Octanol box
 2366
    1OCO     PC    1   5.949   0.961   3.957 -0.1620  0.1198 -0.3567
    1OCO      C    2   5.795   1.361   4.116  0.2232  0.1092  0.1621
    2OCO     PC    3   4.975   1.070   5.009  0.1335 -0.0587  0.1146
    2OCO      C    4   5.121   1.544   4.933 -0.0716  0.1182  0.0851
    3OCO     PC    5   0.088   5.580   0.054  0.1325 -0.3329  0.3555
    3OCO      C    6   0.061   5.765  -0.393 -0.0327 -0.1779 -0.1734
    4OCO     PC    7   6.622   1.368   3.043  0.1011  0.0665 -0.0127
    4OCO      C    8   6.941   1.577   2.844  0.2014  0.3066  0.0747
    5OCO     PC    9   0.709   1.295   1.321 -0.0350 -0.1247 -0.0818
    5OCO      C   10   1.095   1.566   1.492  0.2357 -0.1314  0.2332
    6OCO     PC   11   1.714   5.179   5.406 -0.2982  0.0342  0.1124
    6OCO      C   12   1.354   5.075   5.167  0.2599 -0.0336  0.1588
    7OCO     PC   13   1.757   1.453   1.775  0.1988  0.0211  0.0533
    7OCO      C   14   1.280   1.527   1.943  0.3522  0.1309  0.0082
    8OCO     PC   15   0.119   4.897   1.493  0.0599 -0.0731 -0.2122
    8OCO      C   16   0.307   4.612   1.772  0.1375 -0.2303 -0.1007
    9OCO     PC   17   3.349   3.158   0.309  0.2802 -0.1330  0.2172
    9OCO      C   18   3.747   2.977   0.380  0.0928 -0.0296  0.2800
   10OCO     PC   19   0.232   3.527   2.494  0.1733 -0.0919 -0.2608
   10OCO      C   20  -0.144   3.781   2.483  0.2155 -0.0826 -0.2331
   11OCO     PC   21   4.352   0.242   6.222  0.5496  0.3857  0.0121
   11OCO      C   22   4.208   0.563   6.221 -0.3609 -0.0723 -0.0167
   12OCO     PC   23   0.886   1.630   1.060 -0.1489  0.2626 -0.0009
   12OCO      C   24   0.525   1.423   0.887 -0.1144  0.0025  0.1277
   13OCO     PC   25   1.947   5.361   6.120  0.0762 -0.2110  0.3691
   13OCO      C   26   1.641   5.252   5.875 -0.2447 -0.0238 -0.0896
   14OCO     PC   27   3.036   1.084   1.815  0.0021 -0.1102 -0.2004
   14OCO      C   28   3.288   0.787   1.700  0.2515 -0.1004  0.2172
   15OCO     PC   29   5.618   3.816   3.859 -0.2684 -0.1108  0.0363
   15OCO      C   30   5.215   3.832   3.542  0.1369  0.0040  0.5086
   16OCO     PC   31   6.047   0.069   5.531 -0.1272 -0.0184 -0.0604
   16OCO      C   32   6.400   0.127   5.731 -0.1151 -0.0780 -0.3110
   17OCO     PC   33   4.061   4.541   3.372 -0.0390 -0.4001  0.1100
   17OCO      C   34   4.302   4.779   3.199 -0.0026  0.2133 -0.2447
   18OCO     PC   35   2.647   6.098   2.794 -0.1800 -0.2138 -0.0436
   18OCO      C   36   2.340   6.223   2.465 -0.2854 -0.3986 -0.3057
   19OCO     PC   37   6.005   3.817   5.855  0.0064  0.2495 -0.1307
   19OCO      C   38   5.697   4.075   5.747 -0.2363 -0.3395 -0.2240
   20OCO     PC   39   2.032   6.106   1.843 -0.2098 -0.0237 -0.2006
   20OCO      C   40   1.893   6.376   2.242  0.3123  0.1055  0.0402
   21OCO     PC   41   3.375   1.931   3.183 -0.0896 -0.2306 -0.1004
   21OCO      C   42   3.376   1.846   2.765 -0.0413 -0.0130  0.2553
   22OCO     PC   43   4.253   5.902   4.840 -0.1616 -0.1125  0.2143
   22OCO      C   44   3.941   6.025   5.143 -0.1736 -0.4401  0.1232
   23OCO     PC   45   1.849   0.548   4.888 -0.1531 -0.2951  0.0148
   23OCO      C   46   1.874   0.631   5.339 -0.3038  0.0323 -0.0537
   24OCO     PC   47   4.197   3.791   0.841  0.1286  0.2739  0.2462
   24OCO      C   48   4.151   4.096   1.180  0.1484  0.1963  0.1121
   25OCO     PC   49   2.104   6.153   0.132  0.1284 -0.0026  0.0251
   25OCO      C   50   2.366   6.403  -0.177 -0.0270  0.0149 -0.0278
   26OCO     PC   51   3.571   3.744   2.010 -0.0575 -0.0803 -0.1735
   26OCO      C   52   3.338   3.766   2.507 -0.3694  0.2673  0.3561
   27OCO     PC   53   5.120   5.770   1.011 -0.2501  0.0994  0.0306
   27OCO      C   54   5.231   6.187   0.895  0.0432 -0.1807  0.0607
   28OCO     PC   55   3.114   2.395   3.383  0.1841 -0.1839 -0.1893
   28OCO      C   56   2.912   2.759   3.400 -0.1015 -0.0648 -0.0673
   29OCO     PC   57   3.061   2.787   0.999 -0.1667 -0.0219  0.0289
   29OCO      C   58   2.956   2.570   0.588 -0.0382 -0.0948 -0.1948
   30OCO     PC   59   3.978   4.393   1.663 -0.2374  0.2511  0.0391
   30OCO      C   60   3.914   4.845   1.587 -0.0003 -0.0184 -0.1688
   31OCO     PC   61   4.845   0.924   3.266  0.1387  0.5434  0.1257
   31OCO      C   62   4.496   0.889   3.043 -0.1061 -0.4268  0.1221
   32OCO     PC   63   0.423   1.087   0.477 -0.0059  0.0943  0.1030
   32OCO      C   64   0.458   0.854   0.093  0.0717  0.1559 -0.0172
   33OCO     PC   65   4.298   4.680   1.955 -0.2248  0.0306 -0.0783
   33OCO      C   66   4.617   4.302   1.905  0.2082  0.0987 -0.0493
   34OCO     PC   67   4.783   1.183   6.233  0.0766  0.0005  0.2910
   34OCO      C   68   4.311   1.347   6.418  0.2348  0.0828 -0.0287
   35OCO     PC   69   1.613   3.067   0.449  0.1418  0.0746 -0.0971
   35OCO      C   70   1.642   3.179   0.938  0.0729 -0.0260 -0.0972
   36OCO     PC   71   0.153   5.670   3.270  0.1259 -0.0582  0.2554
   36OCO      C   72   0.231   5.599   2.904  0.3172 -0.1304 -0.4241
   37OCO     PC   73   3.149   0.797   2.253  0.2731  0.0500 -0.3646
   37OCO      C   74   3.460   1.114   2.125 -0.1189 -0.0639  0.2225
   38OCO     PC   75   0.562   6.047   0.780  0.2030 -0.0479 -0.1254
   38OCO      C   76   0.931   6.100   0.920  0.0510  0.1006 -0.1388
   39OCO     PC   77   3.391   0.268   6.276 -0.1579  0.2697  0.1117
   39OCO      C   78   3.383  -0.065   6.566 -0.1943  0.0100 -0.2015
   40OCO     PC   79   6.329   4.079   4.415  0.0732 -0.0092 -0.0627
   40OCO      C   80   6.303   3.694   4.189 -0.1365 -0.0569 -0.1025
   41OCO     PC   81   1.491   2.784   4.964  0.1199 -0.3046  0.0460
   41OCO      C   82   1.636   2.277   4.914  0.0201  0.0433  0.1078
   42OCO     PC   83   5.034   4.054   0.995 -0.0508 -0.1327 -0.1790
   42OCO      C   84   5.325   4.067   0.710 -0.3600 -0.0900  0.1151
   43OCO     PC   85   0.949   4.996   2.367  0.2229 -0.0945 -0.4065
   43OCO      C   86   0.793   5.345   2.156 -0.2974 -0.0797 -0.3803
   44OCO     PC   87   3.995   4.595   6.352 -0.0634 -0.1630  0.2595
   44OCO      C   88   3.746   4.778   6.723  0.3057  0.4524  0.4740
   45OCO     PC   89   6.506   0.698   5.118 -0.2113  0.4294 -0.1161
   45OCO      C   90   6.795   1.079   5.211  0.1032  0.1413  0.2624
   46OCO     PC   91   3.280   2.336   2.462  0.3536 -0.0337 -0.0004
   46OCO      C   92   3.624   2.553   2.245  0.0438 -0.0547  0.2379
   47OCO     PC   93   2.141   1.166   1.979  0.0423  0.0300 -0.0319
   47OCO      C   94   2.532   0.973   1.753  0.2464 -0.1600  0.1237
   48OCO     PC   95   4.392   1.466   4.293 -0.0825  0.4018 -0.2756
   48OCO      C   96   4.168   1.053   4.362  0.1572 -0.0289  0.2925
   49OCO     PC   97   1.510   1.437   0.767 -0.3641 -0.0198 -0.1573
   49OCO      C   98   1.322   1.834   1.044 -0.0930  0.2405  0.1361
   50OCO     PC   99   2.444   1.134   1.133  0.0673  0.1479 -0.1310
   50OCO      C  100   2.461   0.710   1.374 -0.2303 -0.0299  0.5398
   51OCO     PC  101   0.388   4.515   4.262 -0.0245 -0.0446  0.1909
   51OCO      C  102   0.095   4.295   4.040  0.1495 -0.2063  0.1427
   52OCO     PC  103   4.871   4.576   1.127 -0.2181  0.2570  0.4545
   52OCO      C  104   4.485   4.521   1.503  0.0293  0.0210  0.0449
   53OCO     PC  105   6.219   5.072   0.848 -0.1861  0.1963  0.4248
   53OCO      C  106   5.805   5.152   1.001  0.1171 -0.0046  0.1626
   54OCO     PC  107   1.033   1.379   0.662  0.1309 -0.1703  0.0128
   54OCO      C  108   0.898   0.911   0.776  0.1438  0.2274 -0.2979
   55OCO     PC  109   0.213   5.798   0.480  0.1581 -0.1283 -0.1031
   55OCO      C  110  -0.324   5.823   0.329 -0.0602 -0.3534  0.0542
   56OCO     PC  111   5.048   0.297   3.870  0.0994 -0.1645  0.0721
   56OCO      C  112   5.367   0.497   3.771 -0.3169  0.2406 -0.3330
   57OCO     PC  113   5.134   2.885   0.369  0.0517  0.3276  0.0904
   57OCO      C  114   4.735   2.746   0.672  0.1175  0.1391  0.0390
   58OCO     PC  115   1.198   1.054   3.987 -0.2136  0.1823 -0.0148
   58OCO      C  116   1.635   1.015   4.049 -0.1735  0.0371  0.1490
   59OCO     PC  117   2.013   5.036   3.551  0.1227 -0.1160  0.2688
   59OCO      C  118   2.129   4.850   3.957  0.1210 -0.3606  0.0734
   60OCO     PC  119   0.735   3.501   5.261 -0.2115 -0.0332 -0.1184
   60OCO      C  120   0.541   3.230   5.024  0.1887  0.2976 -0.2030
   61OCO     PC  121   3.067   1.866   4.996  0.5675 -0.0082  0.1401
   61OCO      C  122   3.124   2.244   5.134  0.0317 -0.0819 -0.1263
   62OCO     PC  123   3.599   5.207   1.862  0.0691  0.0286 -0.1220
   62OCO      C  124   3.830   5.327   1.587  0.2359 -0.0040 -0.3861
   63OCO     PC  125   2.904   6.170   2.327  0.2588 -0.2581 -0.2425
   63OCO      C  126   2.859   6.651   2.401 -0.2168 -0.2358  0.2593
   64OCO     PC  127   2.868   2.769   6.247  0.1493  0.4320 -0.2414
   64OCO      C  128   3.105   2.797   6.566 -0.1552  0.2795 -0.0032
   65OCO     PC  129   5.507   5.446   4.517 -0.3420  0.0429 -0.0161
   65OCO      C  130   5.139   5.360   4.406  0.1795  0.0319 -0.1968
   66OCO     PC  131   3.586   4.647   4.914  0.0876 -0.2509  0.2238
   66OCO      C  132   3.586   4.458   5.258  0.0893  0.0359  0.1929
   67OCO     PC  133   1.815   4.521   0.829 -0.0478 -0.1280  0.2177
   67OCO      C  134   1.574   4.807   0.704 -0.1658 -0.2864 -0.0950
   68OCO     PC  135   0.478   6.029   3.066 -0.3009  0.3155 -0.0963
   68OCO      C  136   0.103   6.211   2.781  0.0208 -0.1417 -0.1480
   69OCO     PC  137   1.839   2.795   6.019 -0.1022  0.1552 -0.2177
   69OCO      C  138   1.852   3.051   6.362  0.0785 -0.2602  0.1902
   70OCO     PC  139   6.059   0.567   1.504 -0.0035 -0.0554  0.2395
   70OCO      C  140   5.935   0.268   1.113  0.3066  0.0269  0.2292
   71OCO     PC  141   5.399   3.703   5.688  0.1444  0.3545  0.1431
   71OCO      C  142   5.277   3.756   5.275  0.2183 -0.2756 -0.1478
   72OCO     PC  143   4.565   4.655   3.624  0.0366  0.0239  0.0215
   72OCO      C  144   4.574   4.317   3.232 -0.2408  0.4342  0.1687
   73OCO     PC  145   5.178   0.124   0.444  0.2653 -0.1490  0.2110
   73OCO      C  146   4.929  -0.272   0.472  0.0110  0.0546  0.0727
   74OCO     PC  147   2.494   4.794   2.070 -0.2131  0.4235  0.4090
   74OCO      C  148   2.545   4.690   2.469  0.0830  0.0886  0.0849
   75OCO     PC  149   4.399   2.781   3.571 -0.1974  0.1332 -0.3585
   75OCO      C  150   4.589   2.948   3.757 -0.2169 -0.2553 -0.0005
   76OCO     PC  151   6.274   0.725   5.711 -0.2679  0.1300 -0.0422
   76OCO      C  152   6.247   0.972   6.020  0.0182  0.0699  0.0677
   77OCO     PC  153   2.645   5.798   5.710 -0.1940 -0.0889  0.0907
   77OCO      C  154   2.514   6.031   5.300 -0.0978  0.2473 -0.0859
   78OCO     PC  155   6.768   4.437   1.379  0.0731  0.4293 -0.1018
   78OCO      C  156   6.973   4.103   1.118 -0.1669 -0.1046 -0.1832
   79OCO     PC  157   1.728   1.208   2.961  0.1595  0.0770 -0.1052
   79OCO      C  158   1.336   1.166   2.859  0.1621  0.0725  0.1976
   80OCO     PC  159   3.426   2.977   3.714  0.1201 -0.3630 -0.0943
   80OCO      C  160   3.363   3.038   4.157 -0.2805  0.1217 -0.0910
   81OCO     PC  161   1.454   6.208   2.764  0.2903 -0.2088 -0.0390
   81OCO      C  162   1.528   6.735   2.815  0.0569 -0.2314  0.3317
   82OCO     PC  163   2.046   2.225   6.334  0.1646 -0.1376 -0.0076
   82OCO      C  164   1.657   2.045   6.347 -0.1460  0.0707 -0.0785
   83OCO     PC  165   1.655   2.862   5.480  0.0757 -0.3556 -0.1271
   83OCO      C  166   1.189   2.791   5.476 -0.0852 -0.1489  0.2051
   84OCO     PC  167   2.510   4.145   2.275 -0.0152  0.0079 -0.0567
   84OCO      C  168   2.144   4.275   2.509 -0.1616 -0.2170 -0.0080
   85OCO     PC  169   0.314   1.139   2.718  0.1371 -0.1433  0.0928
   85OCO      C  170  -0.118   1.112   2.544 -0.0533  0.0805  0.1230
   86OCO     PC  171   6.029   4.766   2.916 -0.3620 -0.2301 -0.0909
   86OCO      C  172   6.202   5.145   3.012 -0.0806  0.1823  0.1554
   87OCO     PC  173   3.515   0.158   5.088 -0.0258 -0.1765  0.0577
   87OCO      C  174   3.405  -0.260   5.189 -0.2991 -0.0871 -0.4569
   88OCO     PC  175   6.844   0.024   3.334  0.1846 -0.0085  0.1913
   88OCO      C  176   6.564   0.060   3.070 -0.0012  0.1712 -0.2508
   89OCO     PC  177   6.614   0.495   3.279 -0.1061  0.2940 -0.1386
   89OCO      C  178   6.421   0.523   2.927 -0.0707 -0.2364 -0.1583
   90OCO     PC  179   5.697   5.285   2.978 -0.0213  0.1715  0.1127
   90OCO      C  180   5.337   5.544   2.876  0.0742  0.1887  0.0662
   91OCO     PC  181   0.701   0.885   3.651 -0.2628  0.0715  0.0329
   91OCO      C  182   0.855   0.647   3.978 -0.0975  0.1220  0.1260
   92OCO     PC  183   5.095   0.538   0.862 -0.3446 -0.2655  0.1916
   92OCO      C  184   5.225   0.681   1.229  0.4596 -0.2736  0.0483
   93OCO     PC  185   1.818   1.484   5.652  0.1570  0.0202  0.1663
   93OCO      C  186   1.604   1.021   5.585  0.1609  0.1673  0.1067
   94OCO     PC  187   6.631   5.966   3.265  0.3025  0.3369 -0.1499
   94OCO      C  188   6.550   5.664   2.843  0.1134  0.0156 -0.0714
   95OCO     PC  189   3.739   2.781   5.600  0.1878  0.1928  0.3466
   95OCO      C  190   4.139   2.847   5.531  0.3422  0.0875  0.1114
   96OCO     PC  191   6.254   2.351   3.343 -0.2196 -0.1772  0.0651
   96OCO      C  192   5.815   2.544   3.382  0.0250  0.3687 -0.0949
   97OCO     PC  193   0.969   4.762   3.427  0.1373  0.1428  0.2091
   97OCO      C  194   1.228   4.493   3.276  0.1644 -0.1064  0.2031
   98OCO     PC  195   2.700   0.202   2.993 -0.1082  0.0800 -0.1799
   98OCO      C  196   3.069   0.014   2.770 -0.0021 -0.4682 -0.0502
   99OCO     PC  197   3.544   2.414   3.074 -0.0772 -0.0821 -0.1815
   99OCO      C  198   3.441   2.733   3.350 -0.1042 -0.0994  0.3299
  100OCO     PC  199   3.041   0.685   2.891 -0.0943 -0.0874  0.0729
  100OCO      C  200   3.392   0.361   2.664 -0.2463 -0.2699 -0.2164
  101OCO     PC  201   2.810   1.882   4.545  0.0704 -0.3247  0.1744
  101OCO      C  202   2.840   2.393   4.542 -0.0778  0.2340 -0.2097
  102OCO     PC  203   3.547   6.203   1.934 -0.2817  0.1549  0.0234
  102OCO      C  204   3.164   6.327   1.723  0.0820  0.2617 -0.0449
  103OCO     PC  205   6.846   4.398   6.280  0.0674  0.1304  0.0076
  103OCO      C  206   6.965   4.807   6.087 -0.0361  0.2478 -0.0911
  104OCO     PC  207   4.326   0.141   3.350 -0.0485 -0.1212 -0.0035
  104OCO      C  208   4.259   0.402   3.135  0.2089 -0.1843  0.1378
  105OCO     PC  209   4.059   1.267   3.836 -0.2065  0.3614 -0.2943
  105OCO      C  210   4.459   1.149   3.543  0.1372 -0.1147  0.0189
  106OCO     PC  211   2.348   4.503   5.710 -0.0010 -0.1280  0.1318
  106OCO      C  212   2.141   4.915   5.855  0.0467 -0.0543 -0.0589
  107OCO     PC  213   3.105   0.150   4.682  0.1544  0.0582 -0.0930
  107OCO      C  214   2.991  -0.088   4.297 -0.1946  0.0800 -0.0314
  108OCO     PC  215   0.865   2.920   1.651  0.0095 -0.1168  0.0449
  108OCO      C  216   0.823   3.419   1.543  0.1743 -0.2265 -0.0147
  109OCO     PC  217   2.703   2.679   2.189 -0.2317  0.5286  0.2430
  109OCO      C  218   2.553   2.215   2.131 -0.0309 -0.3144  0.2727
  110OCO     PC  219   3.801   1.347   5.047  0.3217  0.1192  0.0991
  110OCO      C  220   4.035   1.059   4.813  0.1745 -0.1999 -0.1655
  111OCO     PC  221   2.470   2.977   1.877  0.4152 -0.0200  0.0165
  111OCO      C  222   2.305   2.600   1.726 -0.3702 -0.0467 -0.1503
  112OCO     PC  223   5.711   0.540   4.268  0.0419 -0.0336  0.0824
  112OCO      C  224   5.843   0.068   4.364  0.0791  0.1190  0.0222
  113OCO     PC  225   1.731   3.783   5.728  0.2400 -0.0966 -0.0371
  113OCO      C  226   1.326   3.707   5.800  0.3065  0.1773  0.2113
  114OCO     PC  227   4.434   2.899   6.030  0.1034  0.0193  0.1487
  114OCO      C  228   4.615   3.083   6.373 -0.2568 -0.3280 -0.1413
  115OCO     PC  229   3.234   5.422   6.136  0.0666 -0.1561 -0.0543
  115OCO      C  230   3.354   5.819   6.476 -0.1990 -0.1691 -0.1695
  116OCO     PC  231   0.138   5.286   3.746 -0.1104  0.2723  0.1433
  116OCO      C  232  -0.136   5.590   3.840  0.3849  0.1547  0.3692
  117OCO     PC  233   5.712   1.986   1.145 -0.0775 -0.1158 -0.2583
  117OCO      C  234   5.771   2.355   1.014  0.0053 -0.2089 -0.0232
  118OCO     PC  235   1.355   0.402   4.774  0.3754 -0.2266 -0.0600
  118OCO      C  236   1.417   0.687   5.129 -0.2386  0.1653 -0.0832
  119OCO     PC  237   2.459   0.519   3.804 -0.0122 -0.0255 -0.0864
  119OCO      C  238   2.450   0.686   4.215  0.2549  0.0650  0.0581
  120OCO     PC  239   2.113   0.652   3.439  0.2091 -0.0017 -0.0207
  120OCO      C  240   1.684   0.357   3.389  0.1684  0.0195 -0.2311
  121OCO     PC  241   0.307   5.715   4.556 -0.1138 -0.0949  0.2266
  121OCO      C  242   0.068   5.337   4.747  0.0488 -0.0315  0.1070
  122OCO     PC  243   3.000   5.076   2.439  0.0130  0.2599  0.2155
  122OCO      C  244   3.155   4.637   2.331 -0.0740  0.2595 -0.1522
  123OCO     PC  245   5.967   0.937   4.905 -0.0006  0.0791  0.0929
  123OCO      C  246   5.850   1.117   4.515  0.2446  0.1163 -0.2102
  124OCO     PC  247   4.144   4.832   3.819  0.0663 -0.0036 -0.2263
  124OCO      C  248   4.244   4.904   4.205 -0.2143 -0.0891 -0.0336
  125OCO     PC  249   4.079   1.741   4.624  0.0108 -0.1495 -0.1201
  125OCO      C  250   4.272   1.674   5.151 -0.3090 -0.2038  0.2008
  126OCO     PC  251   0.008   0.695   4.542 -0.1480 -0.3208  0.0069
  126OCO      C  252  -0.247   0.663   4.287  0.3736  0.0555  0.0337
  127OCO     PC  253   2.190   4.160   3.060 -0.2328 -0.0889 -0.1180
  127OCO      C  254   1.996   3.880   2.783  0.2038 -0.0998 -0.1193
  128OCO     PC  255   6.874   4.758   3.109 -0.2269  0.0888 -0.1049
  128OCO      C  256   6.773   5.164   2.970  0.0950  0.0095  0.1850
  129OCO     PC  257   3.987   4.999   0.802  0.0754 -0.0893  0.2575
  129OCO      C  258   4.288   4.792   0.491 -0.1544 -0.0893  0.2434
  130OCO     PC  259   0.811   5.460   0.911 -0.0657 -0.0239 -0.0585
  130OCO      C  260   0.930   5.123   0.741 -0.2201  0.1443 -0.1900
  131OCO     PC  261   5.362   3.599   1.927 -0.2194 -0.1206  0.2651
  131OCO      C  262   5.519   3.476   2.328 -0.1282  0.0622 -0.0027
  132OCO     PC  263   3.296   3.195   6.213  0.1186 -0.3434  0.2025
  132OCO      C  264   3.013   3.102   5.850  0.2748  0.0404  0.0398
  133OCO     PC  265   6.543   0.337   4.734  0.3384 -0.0871 -0.1181
  133OCO      C  266   6.682   0.005   4.838 -0.0432 -0.1220 -0.1660
  134OCO     PC  267   5.897   1.218   3.483  0.0809  0.0823  0.1680
  134OCO      C  268   5.846   0.785   3.487  0.3505  0.0722  0.4311
  135OCO     PC  269   2.110   1.696   2.088 -0.0825  0.4010  0.1683
  135OCO      C  270   2.600   1.700   2.364  0.2153 -0.0234 -0.0198
  136OCO     PC  271   5.186   0.555   3.233  0.3588  0.0492 -0.1627
  136OCO      C  272   4.846   0.469   2.998 -0.1175  0.0442  0.3225
  137OCO     PC  273   1.517   0.421   5.617  0.0672 -0.0431  0.0382
  137OCO      C  274   1.079   0.384   5.686 -0.0472  0.4490  0.0890
  138OCO     PC  275   5.694   2.744   5.103  0.0339  0.2840  0.2442
  138OCO      C  276   6.086   2.561   5.156  0.2597 -0.1172 -0.0129
  139OCO     PC  277   3.295   2.338   0.035 -0.2466  0.0255 -0.0926
  139OCO      C  278   3.260   2.188   0.389  0.0809  0.2613  0.2437
  140OCO     PC  279   4.334   0.427   0.933 -0.1573  0.0311 -0.0786
  140OCO      C  280   4.701   0.542   1.261  0.4504 -0.1553  0.0636
  141OCO     PC  281   5.233   0.232   5.508 -0.1965 -0.1191  0.1369
  141OCO      C  282   5.539   0.302   5.239  0.0081 -0.2109  0.0157
  142OCO     PC  283   5.850   3.580   2.740 -0.3217  0.1268 -0.2077
  142OCO      C  284   5.689   3.859   2.534 -0.0753  0.1424  0.0879
  143OCO     PC  285   6.540   3.822   0.233 -0.1820 -0.3293  0.0177
  143OCO      C  286   6.925   4.030   0.198  0.1841  0.0642  0.0201
  144OCO     PC  287   2.112   1.473   3.994  0.3730  0.4299  0.3499
  144OCO      C  288   2.113   1.346   4.371  0.1195  0.2622 -0.3037
  145OCO     PC  289   1.038   4.200   1.271 -0.0212 -0.0011  0.1111
  145OCO      C  290   1.056   3.828   1.408 -0.3660 -0.1681 -0.2692
  146OCO     PC  291   3.203   3.444   2.052  0.3183  0.0289 -0.0160
  146OCO      C  292   3.439   3.525   1.564  0.2965 -0.1002 -0.1796
  147OCO     PC  293   2.488   4.914   3.273 -0.1244  0.1938 -0.0380
  147OCO      C  294   2.502   4.443   3.319  0.0271 -0.2065 -0.1851
  148OCO     PC  295   5.150   0.828   6.240 -0.0604  0.0004 -0.0807
  148OCO      C  296   5.288   0.405   6.345  0.0111  0.3036  0.0177
  149OCO     PC  297   0.176   3.070   0.038  0.1278  0.3466 -0.2365
  149OCO      C  298   0.418   3.004  -0.436 -0.1028 -0.1016 -0.3051
  150OCO     PC  299   5.683   2.047   3.461 -0.2553 -0.1978 -0.0173
  150OCO      C  300   5.739   1.836   3.121 -0.3160 -0.4171  0.4385
  151OCO     PC  301   6.525   5.660   6.190 -0.0674 -0.1078  0.0398
  151OCO      C  302   6.717   5.292   6.067  0.1844 -0.1705 -0.1376
  152OCO     PC  303   0.255   5.621   1.057  0.6850 -0.1698 -0.3410
  152OCO      C  304   0.161   6.027   1.390  0.1888  0.2688 -0.1860
  153OCO     PC  305   0.795   5.547   4.854 -0.0117 -0.2057  0.0315
  153OCO      C  306   1.117   5.402   4.668  0.2151  0.1670  0.0139
  154OCO     PC  307   0.694   0.581   0.430  0.1361 -0.3837 -0.3636
  154OCO      C  308   0.492   0.307   0.031  0.4078  0.0192 -0.1883
  155OCO     PC  309   4.350   0.214   5.678  0.0329  0.2025 -0.1489
  155OCO      C  310   3.967   0.405   5.384 -0.2015 -0.1441 -0.3838
  156OCO     PC  311   4.855   0.329   5.126  0.3061  0.1173  0.0230
  156OCO      C  312   5.199   0.665   5.093  0.0138  0.1248  0.3634
  157OCO     PC  313   3.697   2.080   4.213  0.0852 -0.0227  0.0303
  157OCO      C  314   3.769   2.141   4.579 -0.1529  0.1524 -0.2092
  158OCO     PC  315   2.824   4.002   5.075  0.0937 -0.0105 -0.0928
  158OCO      C  316   2.506   3.664   5.143 -0.0340  0.0520  0.1453
  159OCO     PC  317   0.903   1.351   3.637  0.2635  0.1788  0.4691
  159OCO      C  318   0.641   1.636   3.654 -0.1173 -0.2015  0.1082
  160OCO     PC  319   5.711   1.832   0.651  0.1505 -0.3889 -0.1887
  160OCO      C  320   5.945   1.419   0.621 -0.2398  0.0452  0.2667
  161OCO     PC  321   4.906   1.169   5.703  0.1548 -0.2158 -0.0594
  161OCO      C  322   5.220   1.334   5.394  0.0916  0.1429  0.0384
  162OCO     PC  323   2.944   1.268   5.809  0.0925 -0.1071  0.1960
  162OCO      C  324   3.195   1.629   5.971  0.2498 -0.0647 -0.2847
  163OCO     PC  325   6.352   3.385   2.845  0.3587 -0.2897 -0.0206
  163OCO      C  326   6.717   3.294   2.735  0.1079  0.0615 -0.1920
  164OCO     PC  327   5.482   1.896   2.592 -0.1355  0.1123 -0.1215
  164OCO      C  328   5.570   2.321   2.559 -0.3244 -0.1407 -0.0447
  165OCO     PC  329   2.297   1.600   0.451  0.0209  0.3488  0.2893
  165OCO      C  330   2.655   1.645   0.708 -0.0547 -0.1590  0.0258
  166OCO     PC  331   0.049   4.677   0.967 -0.2141 -0.1781  0.0841
  166OCO      C  332   0.332   4.911   0.920  0.0493  0.3270 -0.1543
  167OCO     PC  333   3.570   2.352   3.700  0.1618 -0.0554  0.1886
  167OCO      C  334   3.949   2.265   3.760 -0.0670 -0.0367  0.1929
  168OCO     PC  335   6.073   2.569   0.339  0.1444  0.0168  0.2245
  168OCO      C  336   5.875   2.152   0.204  0.0106 -0.0145  0.1094
  169OCO     PC  337   5.760   4.711   2.476  0.1450 -0.4837 -0.2103
  169OCO      C  338   6.123   5.092   2.459  0.3157 -0.0640  0.2025
  170OCO     PC  339   2.258   0.975   3.088 -0.1614 -0.1330 -0.2536
  170OCO      C  340   2.213   0.583   2.862 -0.1417  0.2286  0.0468
  171OCO     PC  341   4.972   4.201   4.539  0.1654  0.2612 -0.1507
  171OCO      C  342   4.681   4.315   4.837 -0.2101  0.0836  0.0447
  172OCO     PC  343   3.248   0.405   0.883  0.1383 -0.2843  0.1902
  172OCO      C  344   3.567   0.380   1.147 -0.0151 -0.0592  0.1145
  173OCO     PC  345   3.687   4.779   4.146 -0.0574  0.2590 -0.0249
  173OCO      C  346   3.777   4.455   4.477  0.0837 -0.0075  0.1571
  174OCO     PC  347   3.194   3.626   5.399 -0.3090  0.1210 -0.0179
  174OCO      C  348   3.003   3.467   5.053 -0.3795  0.0253  0.1449
  175OCO     PC  349   4.012   0.092   0.732  0.0842  0.1593 -0.0309
  175OCO      C  350   4.029  -0.248   1.008 -0.2220 -0.0626  0.0617
  176OCO     PC  351   4.297   1.990   4.266  0.2609 -0.0481 -0.2455
  176OCO      C  352   4.295   2.217   4.582  0.0506 -0.0084 -0.1249
  177OCO     PC  353   2.352   1.444   5.597  0.0479  0.0868  0.2432
  177OCO      C  354   2.378   1.420   5.154 -0.0859  0.0210  0.0470
  178OCO     PC  355   5.947   0.430   2.007 -0.0043  0.1210  0.1218
  178OCO      C  356   5.568   0.475   1.729 -0.1483 -0.0946 -0.0407
  179OCO     PC  357   5.318   2.657   4.178  0.0109 -0.3070 -0.2233
  179OCO      C  358   5.318   2.987   4.469  0.0690  0.3012  0.2708
  180OCO     PC  359   1.419   4.519   1.328 -0.0725  0.2968 -0.0187
  180OCO      C  360   1.182   4.739   1.102  0.1897 -0.0456  0.2190
  181OCO     PC  361   0.728   1.885   0.687  0.0637 -0.2206 -0.0566
  181OCO      C  362   1.000   2.268   0.771  0.0747  0.1590 -0.2760
  182OCO     PC  363   5.226   2.672   1.782  0.0175 -0.0071 -0.1147
  182OCO      C  364   5.547   2.675   1.346  0.0752  0.0075  0.2060
  183OCO     PC  365   4.238   3.010   4.195  0.1848 -0.2157 -0.0507
  183OCO      C  366   3.877   3.074   4.370  0.1476 -0.0605  0.1695
  184OCO     PC  367   5.689   4.896   1.594 -0.1570  0.2626 -0.0818
  184OCO      C  368   5.540   4.521   1.451 -0.0622 -0.0771 -0.2099
  185OCO     PC  369   5.680   3.011   2.091 -0.1031  0.1381 -0.1768
  185OCO      C  370   5.822   2.781   2.416 -0.2527 -0.1268  0.1445
  186OCO     PC  371   5.465   1.557   3.615  0.2422  0.0910  0.0323
  186OCO      C  372   5.219   1.691   3.299 -0.0217  0.0129  0.4464
  187OCO     PC  373   5.452   3.209   5.328  0.0190 -0.4888  0.0374
  187OCO      C  374   5.048   2.983   5.481  0.1318  0.2165 -0.1363
  188OCO     PC  375   1.135   3.312   1.922 -0.1166  0.1429 -0.1371
  188OCO      C  376   0.973   3.704   1.961 -0.1710  0.0251  0.0834
  189OCO     PC  377   6.010   4.938   4.893  0.1285  0.0452 -0.2499
  189OCO      C  378   5.765   4.821   5.345 -0.1470 -0.0092 -0.0705
  190OCO     PC  379   1.957   2.313   2.434 -0.1642  0.0931 -0.2229
  190OCO      C  380   1.693   2.665   2.581  0.1803 -0.1055 -0.3484
  191OCO     PC  381   6.286   3.053   4.938 -0.0257 -0.2725 -0.2048
  191OCO      C  382   6.625   3.011   5.093  0.3227  0.1088 -0.1168
  192OCO     PC  383   5.326   4.556   0.951  0.2018 -0.0000 -0.2962
  192OCO      C  384   5.333   4.953   1.076 -0.3796 -0.1590 -0.1967
  193OCO     PC  385   4.847   2.068   1.339 -0.1958  0.1591 -0.1910
  193OCO      C  386   5.349   2.244   1.420  0.2377 -0.2697 -0.1763
  194OCO     PC  387   5.200   5.056   2.963 -0.2042 -0.0038 -0.2601
  194OCO      C  388   4.943   4.780   3.112 -0.1174 -0.0631  0.0501
  195OCO     PC  389   1.373   4.252   0.775 -0.0689 -0.0023 -0.2904
  195OCO      C  390   1.507   4.053   1.195 -0.2444 -0.1225  0.0824
  196OCO     PC  391   0.370   2.735   1.756  0.2543 -0.3715 -0.2725
  196OCO      C  392   0.541   2.798   1.298  0.1475  0.1736  0.0911
  197OCO     PC  393   1.206   5.770   5.816  0.0948 -0.1815  0.1009
  197OCO      C  394   1.304   5.359   6.219 -0.0593  0.1232 -0.2187
  198OCO     PC  395   3.375   1.526   3.472  0.4145  0.0814 -0.1581
  198OCO      C  396   3.250   1.438   3.120  0.0461 -0.0847 -0.0173
  199OCO     PC  397   2.479   1.902   3.603  0.4009  0.0983  0.0786
  199OCO      C  398   2.172   1.910   3.948  0.0882 -0.0630 -0.2424
  200OCO     PC  399   0.622   2.344   5.983 -0.2778  0.1088  0.2877
  200OCO      C  400   0.547   2.717   6.342  0.1151 -0.3521  0.0033
  201OCO     PC  401   5.605   5.583   2.474  0.3042  0.0098 -0.0423
  201OCO      C  402   6.047   5.517   2.675  0.1462  0.2706 -0.0638
  202OCO     PC  403   2.785   1.115   3.092  0.1303 -0.2694  0.1113
  202OCO      C  404   2.573   0.814   2.680 -0.1841  0.2637 -0.0019
  203OCO     PC  405   1.960   5.248   4.890  0.0267 -0.0218 -0.1462
  203OCO      C  406   1.547   5.500   4.890 -0.0335 -0.1735 -0.0950
  204OCO     PC  407   2.140   0.929   3.847  0.2559  0.2266 -0.1863
  204OCO      C  408   1.957   0.596   3.944 -0.0457 -0.1597  0.1250
  205OCO     PC  409   5.982   5.841   5.228 -0.0175 -0.0193  0.0358
  205OCO      C  410   5.769   6.282   5.166  0.2775  0.2164 -0.0535
  206OCO     PC  411   4.755   0.878   4.453 -0.0400 -0.3320  0.0724
  206OCO      C  412   5.028   0.505   4.643 -0.3806 -0.0466 -0.0564
  207OCO     PC  413   6.867   5.769   1.910 -0.1886  0.2598  0.0176
  207OCO      C  414   7.184   6.178   1.875 -0.2559  0.2548 -0.0286
  208OCO     PC  415   0.520   0.621   1.029 -0.0279 -0.0141 -0.2229
  208OCO      C  416   0.924   0.391   1.239 -0.1765 -0.1056  0.0039
  209OCO     PC  417   5.103   2.545   5.643  0.1174  0.0377 -0.0058
  209OCO      C  418   5.044   2.511   5.178  0.1498 -0.1114 -0.0216
  210OCO     PC  419   1.654   1.860   2.204  0.0109 -0.4409  0.0659
  210OCO      C  420   1.270   1.877   2.295 -0.0354 -0.3351 -0.0250
  211OCO     PC  421   2.343   0.277   1.590  0.1645 -0.3851  0.2468
  211OCO      C  422   2.320   0.124   2.012  0.0301  0.1500  0.1562
  212OCO     PC  423   2.870   0.455   1.767  0.4158  0.3939  0.1605
  212OCO      C  424   2.636   0.646   2.142  0.2744  0.1027  0.0182
  213OCO     PC  425   5.348   2.674   2.246 -0.0827 -0.1209 -0.1128
  213OCO      C  426   4.850   2.743   2.172  0.0020  0.1622 -0.1492
  214OCO     PC  427   6.194   3.779   3.085  0.0618 -0.0639  0.1089
  214OCO      C  428   5.820   3.848   3.309 -0.1379 -0.1003  0.0590
  215OCO     PC  429   5.491   6.000   0.515  0.2130  0.2069  0.0946
  215OCO      C  430   5.225   6.243   0.082 -0.4099  0.2609  0.1329
  216OCO     PC  431   2.312   0.238   1.027  0.0397  0.2414 -0.1763
  216OCO      C  432   2.090  -0.014   0.763 -0.2684  0.2222 -0.0828
  217OCO     PC  433   2.832   1.565   5.359  0.1084  0.0257 -0.0746
  217OCO      C  434   2.991   1.907   5.645  0.5426 -0.2992 -0.2440
  218OCO     PC  435   4.597   6.002   5.288 -0.1934 -0.2852 -0.1473
  218OCO      C  436   4.879   6.250   5.555 -0.0265 -0.1847  0.0675
  219OCO     PC  437   3.445   1.183   1.142 -0.0842  0.2677 -0.2012
  219OCO      C  438   3.706   0.845   1.392 -0.1759  0.0161  0.2041
  220OCO     PC  439   5.376   4.491   6.159 -0.1618  0.0352  0.0479
  220OCO      C  440   5.465   4.687   5.797  0.1511  0.1393  0.4022
  221OCO     PC  441   6.757   2.421   2.521 -0.0994 -0.1493  0.1863
  221OCO      C  442   6.688   2.236   2.096 -0.1424  0.1208 -0.0482
  222OCO     PC  443   4.624   4.474   5.310  0.0924  0.0004  0.0447
  222OCO      C  444   4.376   4.800   5.518 -0.1077  0.1502 -0.0199
  223OCO     PC  445   4.045   5.575   2.472  0.2692  0.3126  0.2232
  223OCO      C  446   4.408   5.530   2.630 -0.2327  0.0808  0.0029
  224OCO     PC  447   1.463   2.413   4.047  0.0729  0.0050  0.0028
  224OCO      C  448   1.550   2.746   3.694  0.1904  0.2077  0.1003
  225OCO     PC  449   1.454   5.188   2.498 -0.0920 -0.1329 -0.0391
  225OCO      C  450   1.480   5.260   2.806  0.0228  0.0424  0.0616
  226OCO     PC  451   0.344   0.254   0.719  0.0512  0.1571 -0.3936
  226OCO      C  452   0.255   0.624   0.585  0.0194  0.1806 -0.2494
  227OCO     PC  453   3.788   3.518   0.628  0.1534  0.1166 -0.0928
  227OCO      C  454   3.962   3.177   0.929 -0.1421  0.1673  0.0435
  228OCO     PC  455   3.735   3.446   3.823 -0.0128  0.2706  0.2498
  228OCO      C  456   3.918   3.790   4.013 -0.0849  0.1608  0.1473
  229OCO     PC  457   4.546   3.049   1.916 -0.1624  0.1024  0.3319
  229OCO      C  458   4.596   3.416   1.827  0.2331  0.0491 -0.3443
  230OCO     PC  459   6.277   5.747   2.002 -0.3330 -0.2645 -0.0914
  230OCO      C  460   6.008   5.497   2.128 -0.0617  0.1951 -0.0671
  231OCO     PC  461   3.857   1.647   3.565  0.1834 -0.1339  0.0376
  231OCO      C  462   3.617   1.895   3.679 -0.3547 -0.1038 -0.1161
  232OCO     PC  463   6.499   2.821   1.211  0.3213  0.1194  0.0533
  232OCO      C  464   6.926   2.865   1.410  0.1274  0.2106  0.0898
  233OCO     PC  465   1.884   3.102   1.979 -0.2444 -0.1098 -0.1313
  233OCO      C  466   1.624   3.378   1.859 -0.3803  0.1278  0.0279
  234OCO     PC  467   5.296   4.232   2.615 -0.0540 -0.2301  0.0686
  234OCO      C  468   4.898   4.408   2.716 -0.0087  0.1779  0.2421
  235OCO     PC  469   0.793   2.367   1.177 -0.1217 -0.2318 -0.0552
  235OCO      C  470   1.064   2.567   1.360  0.4644  0.2571  0.5438
  236OCO     PC  471   4.868   3.349   0.310  0.0327  0.0452  0.0085
  236OCO      C  472   4.690   3.608   0.603  0.3413  0.2273 -0.2886
  237OCO     PC  473   5.487   1.403   1.786 -0.0572 -0.0740 -0.1344
  237OCO      C  474   5.039   1.291   1.929 -0.1090  0.1007 -0.1974
  238OCO     PC  475   0.324   6.096   3.535  0.0966  0.2101 -0.0117
  238OCO      C  476   0.217   6.420   3.830  0.1582  0.2069  0.0392
  239OCO     PC  477   2.112   2.859   2.395  0.0936  0.1561 -0.0721
  239OCO      C  478   1.964   2.621   2.044  0.1760 -0.5005  0.1530
  240OCO     PC  479   3.703   2.681   4.166  0.0466  0.0293  0.1142
  240OCO      C  480   3.938   2.765   3.775  0.0001 -0.0107  0.0209
  241OCO     PC  481   2.814   3.181   2.242  0.1581 -0.0443 -0.0040
  241OCO      C  482   2.453   3.254   2.230  0.0989 -0.1596  0.0915
  242OCO     PC  483   2.012   1.642   0.034 -0.0266 -0.0047 -0.1632
  242OCO      C  484   2.011   1.857  -0.405 -0.0831  0.0019  0.2299
  243OCO     PC  485   1.274   2.064   3.099  0.0024 -0.1455  0.1876
  243OCO      C  486   0.987   1.932   2.692 -0.0955 -0.1221  0.2207
  244OCO     PC  487   6.661   2.798   6.317 -0.1240  0.3376  0.0895
  244OCO      C  488   6.212   2.801   6.285 -0.3310 -0.1652  0.0115
  245OCO     PC  489   4.958   2.365   3.921 -0.0461  0.0865 -0.0645
  245OCO      C  490   5.129   2.752   3.704  0.0384  0.3080  0.2450
  246OCO     PC  491   6.740   2.732   5.464  0.2321  0.1239  0.0835
  246OCO      C  492   6.802   2.395   5.688  0.0153  0.2054  0.0901
  247OCO     PC  493   6.641   4.861   5.629 -0.0623 -0.0446  0.0037
  247OCO      C  494   6.897   4.765   5.213 -0.0372 -0.0493 -0.3102
  248OCO     PC  495   4.145   3.304   5.779  0.2103 -0.3681  0.3697
  248OCO      C  496   4.046   3.667   6.089 -0.0393  0.2053  0.0974
  249OCO     PC  497   5.144   2.736   3.125 -0.0672 -0.0795  0.1496
  249OCO      C  498   5.473   2.907   3.284 -0.0421 -0.2790 -0.0762
  250OCO     PC  499   3.533   0.951   0.558 -0.0043  0.0239  0.0476
  250OCO      C  500   3.830   0.711   0.875  0.2319 -0.0336 -0.0332
  251OCO     PC  501   2.789   2.341   0.218  0.4085  0.1067 -0.1609
  251OCO      C  502   2.936   1.886   0.064  0.0786 -0.0521 -0.3308
  252OCO     PC  503   0.355   2.300   4.127 -0.0889  0.1348  0.1018
  252OCO      C  504   0.637   1.898   4.096  0.1193  0.1618  0.0740
  253OCO     PC  505   5.715   0.095   2.916  0.1464  0.2986  0.0802
  253OCO      C  506   5.311   0.005   3.058  0.1448 -0.0660  0.1893
  254OCO     PC  507   2.026   3.886   0.078 -0.0456 -0.0030 -0.3767
  254OCO      C  508   2.410   3.847   0.264 -0.2659 -0.0021 -0.1183
  255OCO     PC  509   2.887   5.345   0.646  0.2926  0.0700 -0.1341
  255OCO      C  510   2.989   5.651   0.444  0.1365  0.4025  0.2183
  256OCO     PC  511   4.182   3.403   1.620  0.1434 -0.0296  0.1114
  256OCO      C  512   4.312   3.083   1.395  0.2290 -0.1704  0.2241
  257OCO     PC  513   6.816   5.984   4.261 -0.1929  0.1731 -0.0501
  257OCO      C  514   6.632   5.936   4.647  0.1294 -0.1659 -0.1367
  258OCO     PC  515   1.773   5.661   3.055  0.0693 -0.0879 -0.2480
  258OCO      C  516   1.969   5.500   3.423 -0.1192  0.1604 -0.1866
  259OCO     PC  517   0.732   2.085   4.973 -0.3227 -0.2052  0.1506
  259OCO      C  518   0.743   2.170   4.520 -0.0316  0.0909  0.0112
  260OCO     PC  519   5.623   5.786   2.022  0.2211  0.0238  0.0933
  260OCO      C  520   5.177   5.567   1.815 -0.0211 -0.0570  0.0016
  261OCO     PC  521   0.818   5.043   4.959 -0.3394 -0.0224  0.0701
  261OCO      C  522   0.377   5.038   4.987  0.0741 -0.1489 -0.0089
  262OCO     PC  523   3.824   5.549   0.962 -0.2806 -0.1131 -0.2992
  262OCO      C  524   3.547   5.875   1.052 -0.0059  0.2676  0.1067
  263OCO     PC  525   5.709   1.768   5.630 -0.1540 -0.2913 -0.0419
  263OCO      C  526   6.113   1.936   5.629  0.2158 -0.0846 -0.4935
  264OCO     PC  527   0.923   0.490   5.043  0.0084  0.1429  0.1515
  264OCO      C  528   1.074   0.925   4.853 -0.2657 -0.0273 -0.1484
  265OCO     PC  529   0.156   3.519   3.645 -0.1261  0.0048 -0.1596
  265OCO      C  530   0.398   3.782   4.029  0.2425 -0.2077 -0.3014
  266OCO     PC  531   0.286   3.010   2.397 -0.3663  0.2771 -0.0430
  266OCO      C  532   0.688   3.117   2.074  0.0615  0.0111  0.2160
  267OCO     PC  533   6.398   4.656   3.246 -0.1479 -0.0955 -0.0998
  267OCO      C  534   6.141   4.909   3.456 -0.0169 -0.2504 -0.2615
  268OCO     PC  535   1.543   4.290   5.390 -0.3495  0.0878 -0.1504
  268OCO      C  536   1.320   4.606   5.388 -0.1031  0.1237 -0.3220
  269OCO     PC  537   6.706   1.540   3.777  0.1611  0.0822 -0.0426
  269OCO      C  538   6.291   1.743   4.054 -0.1538  0.2411  0.1095
  270OCO     PC  539   1.986   5.686   2.099  0.1795 -0.2646 -0.1206
  270OCO      C  540   1.930   5.918   2.463 -0.1217 -0.3519  0.1340
  271OCO     PC  541   1.778   2.434   0.343 -0.1049  0.0224 -0.1688
  271OCO      C  542   2.278   2.436   0.324 -0.0312  0.0618 -0.0283
  272OCO     PC  543   5.154   1.830   4.572  0.0520  0.2349  0.2127
  272OCO      C  544   5.538   1.506   4.502  0.0376 -0.1441  0.1010
  273OCO     PC  545   4.483   6.003   1.829 -0.3484 -0.0605 -0.2792
  273OCO      C  546   4.472   6.335   2.061 -0.3808 -0.1521 -0.2129
  274OCO     PC  547   0.398   2.432   3.189  0.0111  0.0498 -0.3496
  274OCO      C  548  -0.023   2.344   3.321  0.2539  0.1203 -0.1502
  275OCO     PC  549   6.341   0.320   3.664  0.1897  0.2280  0.2630
  275OCO      C  550   6.687   0.316   3.809  0.3098 -0.1060  0.1313
  276OCO     PC  551   2.229   3.375   6.357 -0.1858  0.1552  0.1450
  276OCO      C  552   2.054   3.627   6.068  0.2759  0.0091 -0.1598
  277OCO     PC  553   5.307   0.166   2.407 -0.0923  0.1290 -0.0516
  277OCO      C  554   5.190   0.519   2.666 -0.1022 -0.1838 -0.1163
  278OCO     PC  555   1.079   5.794   1.255  0.0622  0.3333  0.0967
  278OCO      C  556   0.685   5.943   1.414 -0.0423 -0.0540  0.1031
  279OCO     PC  557   6.694   1.190   0.361 -0.0668  0.1335 -0.0235
  279OCO      C  558   6.748   0.792   0.199  0.2129  0.0437 -0.1347
  280OCO     PC  559   4.612   3.395   2.781 -0.1339 -0.0988  0.0490
  280OCO      C  560   4.702   3.320   2.343  0.0205 -0.0474  0.0568
  281OCO     PC  561   0.549   0.064   1.115 -0.0672 -0.0461 -0.1203
  281OCO      C  562   0.422   0.178   1.426  0.2134 -0.3690 -0.0205
  282OCO     PC  563   1.752   3.268   5.845 -0.1463 -0.1623  0.2649
  282OCO      C  564   1.366   3.179   5.945 -0.2357 -0.0126 -0.1893
  283OCO     PC  565   4.560   1.570   3.770  0.2257  0.4580  0.0506
  283OCO      C  566   4.434   2.074   3.809  0.3547  0.0388  0.0716
  284OCO     PC  567   3.648   3.991   3.592 -0.1485 -0.0835  0.2610
  284OCO      C  568   3.773   4.028   3.213  0.1900  0.1295  0.4015
  285OCO     PC  569   2.082   2.857   0.333 -0.1063  0.1023  0.1518
  285OCO      C  570   2.144   2.909   0.760 -0.2863 -0.0613 -0.0700
  286OCO     PC  571   0.957   2.742   3.288  0.1140  0.1719 -0.0080
  286OCO      C  572   0.662   2.716   3.531  0.0330 -0.0416  0.3913
  287OCO     PC  573   0.508   5.767   2.123  0.4591  0.0551  0.1046
  287OCO      C  574   0.732   6.110   2.175 -0.0307 -0.2071 -0.1989
  288OCO     PC  575   1.234   3.441   6.294 -0.2940  0.1417 -0.0309
  288OCO      C  576   1.569   3.480   6.485  0.2137  0.0204  0.1807
  289OCO     PC  577   5.344   0.239   4.249  0.3608  0.0973 -0.1197
  289OCO      C  578   4.940   0.035   4.314  0.1344  0.2872 -0.0960
  290OCO     PC  579   1.274   0.605   1.895 -0.0032 -0.2684  0.2674
  290OCO      C  580   1.410   0.386   2.346  0.1347 -0.2302  0.1053
  291OCO     PC  581   4.639   1.706   4.783 -0.0789 -0.3287  0.0152
  291OCO      C  582   4.904   2.017   5.039 -0.0788 -0.0798 -0.1895
  292OCO     PC  583   2.539   2.127   0.628 -0.0299 -0.2963  0.0963
  292OCO      C  584   2.122   2.340   0.881 -0.0631 -0.2229 -0.1400
  293OCO     PC  585   1.191   1.535   5.591 -0.0640  0.0933 -0.2828
  293OCO      C  586   1.155   1.193   5.307 -0.2127 -0.0114  0.2124
  294OCO     PC  587   1.465   2.483   1.119  0.0192  0.1282 -0.0680
  294OCO      C  588   1.763   2.720   0.903 -0.0513  0.2716  0.0211
  295OCO     PC  589   5.568   0.604   4.778 -0.0888  0.1200 -0.0634
  295OCO      C  590   5.526   0.126   4.714 -0.0397 -0.0542 -0.0963
  296OCO     PC  591   0.187   3.532   5.053  0.0422 -0.1784 -0.0365
  296OCO      C  592   0.177   3.981   4.875 -0.1562 -0.3105 -0.3412
  297OCO     PC  593   1.170   0.001   5.059 -0.5000 -0.4276 -0.0147
  297OCO      C  594   1.094  -0.465   4.981 -0.2478 -0.1350 -0.3461
  298OCO     PC  595   0.181   3.583   0.175  0.0623 -0.1585 -0.1427
  298OCO      C  596   0.419   3.435  -0.111 -0.3485  0.2309 -0.0134
  299OCO     PC  597   3.636   3.402   4.559  0.2796  0.0442  0.0940
  299OCO      C  598   3.825   3.106   4.844 -0.1029  0.3567  0.1357
  300OCO     PC  599   6.598   4.777   1.717 -0.0189 -0.2207  0.0348
  300OCO      C  600   6.342   4.424   1.877  0.1082  0.1305 -0.3554
  301OCO     PC  601   4.516   5.605   4.386 -0.1205 -0.0080 -0.4231
  301OCO      C  602   4.457   5.953   4.092  0.1462  0.0219  0.0334
  302OCO     PC  603   1.263   0.046   1.899 -0.0107 -0.0474  0.1859
  302OCO      C  604   1.379  -0.151   2.252  0.2342  0.1719 -0.1921
  303OCO     PC  605   3.167   5.344   1.540 -0.1000 -0.0385  0.0378
  303OCO      C  606   3.502   5.696   1.499 -0.3724  0.2885 -0.0708
  304OCO     PC  607   6.420   5.444   4.449 -0.1982 -0.0184  0.2152
  304OCO      C  608   6.122   5.832   4.538 -0.0313 -0.2994  0.3507
  305OCO     PC  609   2.697   6.155   1.710 -0.1432  0.0079 -0.2498
  305OCO      C  610   2.583   5.791   1.980  0.0140 -0.1329 -0.1610
  306OCO     PC  611   3.933   1.257   5.632 -0.0246  0.1156 -0.0492
  306OCO      C  612   3.989   0.908   5.396  0.1138 -0.1047  0.3085
  307OCO     PC  613   6.282   3.938   2.591  0.1756  0.2240  0.0939
  307OCO      C  614   6.513   4.254   2.400  0.0916 -0.0119  0.0236
  308OCO     PC  615   5.839   3.808   4.321  0.1016 -0.0240  0.1173
  308OCO      C  616   5.557   3.434   4.476  0.1051  0.2755 -0.1344
  309OCO     PC  617   2.880   4.573   0.061 -0.0792 -0.1145  0.4171
  309OCO      C  618   2.529   4.208  -0.049  0.0201 -0.1149  0.2496
  310OCO     PC  619   2.453   1.926   0.149 -0.1578  0.1043  0.2226
  310OCO      C  620   2.703   1.462   0.178 -0.0371  0.3498  0.0919
  311OCO     PC  621   1.478   0.806   4.506  0.2022 -0.1397 -0.1406
  311OCO      C  622   1.645   1.051   4.871 -0.2131 -0.2663 -0.3518
  312OCO     PC  623   3.440   2.202   5.577  0.3160 -0.2117 -0.1240
  312OCO      C  624   3.834   2.288   5.427 -0.1585 -0.1171  0.0689
  313OCO     PC  625   4.292   2.099   6.221 -0.1004 -0.0989  0.0649
  313OCO      C  626   4.103   1.795   6.271  0.0137 -0.0590  0.2320
  314OCO     PC  627   5.194   4.689   4.731  0.2762  0.0921 -0.1434
  314OCO      C  628   4.920   4.853   4.400 -0.1630 -0.2017 -0.0760
  315OCO     PC  629   6.208   0.724   0.969  0.1921  0.3289 -0.0564
  315OCO      C  630   6.407   0.720   0.632  0.1995 -0.0803  0.0970
  316OCO     PC  631   0.457   2.576   2.252  0.0651  0.1691 -0.0618
  316OCO      C  632   0.813   2.236   2.275  0.1134 -0.3130 -0.0245
  317OCO     PC  633   6.399   5.416   5.462 -0.2861  0.1056  0.0170
  317OCO      C  634   6.025   5.295   5.453 -0.1718  0.1656  0.1911
  318OCO     PC  635   5.374   5.268   3.951  0.3177 -0.0830 -0.0283
  318OCO      C  636   5.821   5.048   3.959  0.0917  0.0245 -0.3379
  319OCO     PC  637   0.392   4.904   2.163  0.1180 -0.2455 -0.0510
  319OCO      C  638   0.724   4.621   2.047  0.0352 -0.1624  0.2983
  320OCO     PC  639   0.516   4.888   3.091 -0.0797 -0.0463 -0.0573
  320OCO      C  640   0.296   5.203   3.272  0.1333 -0.1591  0.1170
  321OCO     PC  641   0.567   2.926   2.930 -0.0325 -0.1396  0.3057
  321OCO      C  642   0.699   3.310   2.667  0.0079 -0.0011 -0.0847
  322OCO     PC  643   4.500   4.266   0.898  0.1418 -0.1369 -0.1478
  322OCO      C  644   4.700   4.473   0.601  0.0052 -0.1957 -0.2116
  323OCO     PC  645   6.461   0.315   2.116 -0.1295  0.0959  0.1737
  323OCO      C  646   6.858   0.337   1.908  0.0410  0.0291 -0.2706
  324OCO     PC  647   3.209   5.790   3.567  0.0302  0.3923  0.1682
  324OCO      C  648   3.050   5.366   3.770  0.1325  0.0306  0.1729
  325OCO     PC  649   2.481   0.158   3.497 -0.1406  0.3418  0.2215
  325OCO      C  650   2.287  -0.044   3.779  0.1656  0.3465 -0.0025
  326OCO     PC  651   0.983   6.126   5.507 -0.1560 -0.1914  0.1429
  326OCO      C  652   0.804   6.349   5.857 -0.2616 -0.0480 -0.1153
  327OCO     PC  653   3.886   1.777   1.358  0.1014  0.0524  0.0160
  327OCO      C  654   3.836   1.699   1.805 -0.2191 -0.1573 -0.0472
  328OCO     PC  655   0.753   3.877   4.351  0.0043 -0.0853  0.1223
  328OCO      C  656   0.734   4.195   4.047 -0.0977  0.3319 -0.1263
  329OCO     PC  657   1.399   2.058   5.495 -0.1208 -0.0963 -0.2189
  329OCO      C  658   1.785   2.223   5.396  0.2993  0.0129  0.5169
  330OCO     PC  659   4.838   5.834   0.027 -0.0466 -0.1843 -0.1999
  330OCO      C  660   5.307   5.749   0.062  0.0258  0.0980  0.0122
  331OCO     PC  661   3.012   2.092   1.437 -0.0348 -0.1021 -0.0934
  331OCO      C  662   2.791   2.295   1.016  0.0745  0.0657 -0.1540
  332OCO     PC  663   4.658   4.791   4.837  0.3956  0.0747 -0.2463
  332OCO      C  664   4.914   5.092   4.807 -0.1595  0.0708  0.2305
  333OCO     PC  665   4.815   1.705   0.909 -0.0445 -0.0219 -0.2138
  333OCO      C  666   4.815   1.450   0.669 -0.1375  0.1988  0.0750
  334OCO     PC  667   2.161   4.042   5.885 -0.0781 -0.4610  0.1290
  334OCO      C  668   1.847   4.336   5.929  0.0350 -0.0649 -0.2534
  335OCO     PC  669   0.926   2.398   2.878 -0.1162 -0.2095  0.2450
  335OCO      C  670   0.766   2.166   3.165  0.0018 -0.2878  0.0520
  336OCO     PC  671   1.176   0.775   0.244  0.1191  0.1238  0.0368
  336OCO      C  672   0.853   1.081   0.280  0.1534 -0.0785 -0.1293
  337OCO     PC  673   5.949   3.275   0.524 -0.0759 -0.1885 -0.0548
  337OCO      C  674   5.924   3.283   0.110 -0.2367 -0.0394  0.0227
  338OCO     PC  675   1.430   4.548   0.316 -0.2238  0.0951 -0.1953
  338OCO      C  676   1.095   4.665   0.633 -0.0255 -0.1282 -0.1742
  339OCO     PC  677   4.538   2.420   1.625 -0.3163 -0.0399  0.0384
  339OCO      C  678   4.769   2.741   1.474 -0.4745 -0.0423  0.3728
  340OCO     PC  679   6.235   4.546   4.687  0.0551  0.3196 -0.0627
  340OCO      C  680   6.591   4.671   4.864  0.0274  0.1955 -0.0334
  341OCO     PC  681   1.417   1.517   3.915  0.0306 -0.2934  0.0333
  341OCO      C  682   0.969   1.520   4.143  0.1232 -0.1032 -0.1435
  342OCO     PC  683   5.224   0.967   2.943  0.0141  0.1037 -0.1538
  342OCO      C  684   5.332   1.021   2.444 -0.1485 -0.1758 -0.0673
  343OCO     PC  685   5.414   2.276   5.411  0.1180 -0.1734  0.1345
  343OCO      C  686   5.323   1.852   5.339 -0.1882  0.0090 -0.0178
  344OCO     PC  687   4.127   5.199   2.058 -0.1976  0.4492 -0.0094
  344OCO      C  688   4.258   5.626   2.017  0.4468 -0.0879  0.0191
  345OCO     PC  689   4.961   5.926   4.318 -0.0047  0.0872 -0.0780
  345OCO      C  690   5.245   5.979   4.653  0.0080  0.1397 -0.1091
  346OCO     PC  691   2.284   0.212   5.133 -0.0133 -0.2795  0.1972
  346OCO      C  692   2.249   0.266   4.520 -0.2384  0.0919  0.3116
  347OCO     PC  693   1.517   4.377   4.529  0.0614  0.3244 -0.2062
  347OCO      C  694   1.326   4.501   4.885 -0.0039 -0.0638 -0.0370
  348OCO     PC  695   0.360   5.276   1.855  0.1813  0.3650  0.1114
  348OCO      C  696   0.636   5.019   1.764  0.0575  0.1330 -0.0306
  349OCO     PC  697   5.125   2.438   4.640 -0.2175  0.2219 -0.1931
  349OCO      C  698   5.359   2.193   4.342 -0.1407  0.2944  0.1091
  350OCO     PC  699   6.055   0.681   2.396 -0.0954 -0.1262 -0.2727
  350OCO      C  700   5.582   0.586   2.418  0.1142 -0.0221  0.2074
  351OCO     PC  701   4.087   5.785   5.998 -0.4712  0.0326  0.1549
  351OCO      C  702   4.347   5.822   6.402 -0.0395  0.1082  0.0249
  352OCO     PC  703   5.441   4.326   4.438 -0.2438  0.2485  0.1685
  352OCO      C  704   5.342   3.902   4.318  0.1908  0.1995 -0.0306
  353OCO     PC  705   1.431   5.498   2.050  0.0598 -0.1679 -0.0312
  353OCO      C  706   1.620   5.885   1.905  0.4187 -0.3287 -0.2009
  354OCO     PC  707   5.151   4.681   3.596  0.1599 -0.3101 -0.0421
  354OCO      C  708   4.987   4.346   3.603 -0.1649 -0.0804 -0.1177
  355OCO     PC  709   1.018   5.224   3.226 -0.0335  0.0906 -0.0381
  355OCO      C  710   0.918   5.126   2.901 -0.1430 -0.1615  0.0589
  356OCO     PC  711   1.316   2.573   0.552  0.0382  0.1297 -0.0243
  356OCO      C  712   1.600   2.199   0.713  0.3402 -0.0484 -0.0462
  357OCO     PC  713   1.263   5.809   3.252 -0.0937  0.2560  0.2491
  357OCO      C  714   1.508   6.176   3.270  0.0519  0.0155  0.1950
  358OCO     PC  715   3.013   1.410   2.279 -0.2107  0.0073 -0.0751
  358OCO      C  716   3.086   1.193   2.695 -0.0117  0.0192  0.1597
  359OCO     PC  717   5.961   3.051   0.956  0.0454 -0.0606 -0.0632
  359OCO      C  718   5.616   3.228   1.179 -0.0195  0.1345 -0.2012
  360OCO     PC  719   3.126   3.240   4.618  0.4920  0.2517  0.2303
  360OCO      C  720   3.032   2.875   4.520  0.0063 -0.0985  0.1421
  361OCO     PC  721   2.735   5.691   1.369  0.0949  0.1230  0.0524
  361OCO      C  722   2.660   5.916   0.900 -0.0558  0.2792 -0.0868
  362OCO     PC  723   2.250   3.319   4.033  0.1845  0.2110  0.0742
  362OCO      C  724   2.319   3.006   3.750 -0.1050 -0.0244  0.2479
  363OCO     PC  725   0.106   1.325   4.851  0.0425  0.0942 -0.2656
  363OCO      C  726  -0.023   1.746   4.854 -0.0140 -0.0831  0.0534
  364OCO     PC  727   3.074   0.981   5.342  0.0237  0.0210 -0.0816
  364OCO      C  728   2.726   0.994   5.070  0.1914  0.1372  0.1847
  365OCO     PC  729   3.302   2.713   5.918 -0.0164 -0.0399 -0.0002
  365OCO      C  730   3.016   2.365   5.905 -0.0230  0.2764 -0.1643
  366OCO     PC  731   0.363   2.259   1.438  0.1312 -0.1853  0.3411
  366OCO      C  732   0.521   1.791   1.305  0.3830  0.1901 -0.2980
  367OCO     PC  733   2.396   5.533   6.072 -0.2172 -0.1923  0.0090
  367OCO      C  734   2.254   5.379   5.716 -0.1196  0.1717 -0.2176
  368OCO     PC  735   5.695   0.778   6.183  0.2372  0.1781  0.0578
  368OCO      C  736   5.842   1.118   6.317  0.2505 -0.3665  0.2388
  369OCO     PC  737   1.289   1.764   6.374 -0.0233 -0.0031  0.1211
  369OCO      C  738   1.460   1.804   5.997  0.0686  0.3272 -0.1280
  370OCO     PC  739   5.512   5.823   5.053  0.0587 -0.2079  0.4031
  370OCO      C  740   5.704   6.028   4.695 -0.0747 -0.1849  0.1008
  371OCO     PC  741   6.373   0.309   0.292 -0.3226 -0.0153  0.2864
  371OCO      C  742   6.353  -0.138   0.017  0.1546  0.2918  0.3955
  372OCO     PC  743   2.610   1.423   4.673 -0.1908  0.2006 -0.1680
  372OCO      C  744   3.022   1.439   4.487  0.0734  0.1224 -0.1127
  373OCO     PC  745   1.530   1.677   3.316 -0.0394  0.0498 -0.0929
  373OCO      C  746   1.367   1.249   3.387  0.2439 -0.2376 -0.2429
  374OCO     PC  747   3.207   3.423   3.737 -0.0015 -0.1099  0.0426
  374OCO      C  748   3.025   3.286   3.417  0.0988 -0.2253  0.0183
  375OCO     PC  749   4.426   5.970   2.383  0.0227  0.3501 -0.0380
  375OCO      C  750   4.098   6.179   2.412 -0.2786 -0.0406  0.2040
  376OCO     PC  751   4.794   0.372   0.081  0.3491  0.0580 -0.1000
  376OCO      C  752   4.382   0.420   0.296 -0.0094 -0.1305  0.2659
  377OCO     PC  753   3.574   1.865   6.195 -0.2044 -0.3301  0.1366
  377OCO      C  754   3.815   1.436   6.107 -0.1126 -0.1183 -0.1777
  378OCO     PC  755   0.806   1.063   2.733 -0.1381  0.1821 -0.0737
  378OCO      C  756   0.990   1.473   2.528  0.0876  0.0236  0.2717
  379OCO     PC  757   4.489   0.991   2.291 -0.0695  0.1231  0.1104
  379OCO      C  758   4.808   0.861   2.563  0.0825 -0.0133 -0.0065
  380OCO     PC  759   1.627   1.474   1.291 -0.0081  0.0301 -0.0202
  380OCO      C  760   1.817   1.867   1.142  0.1614  0.0806  0.1554
  381OCO     PC  761   1.666   3.663   4.049  0.0112 -0.0524  0.0097
  381OCO      C  762   1.911   3.463   4.420 -0.1312 -0.3130  0.1282
  382OCO     PC  763   2.648   1.650   1.199 -0.0416  0.0777  0.0644
  382OCO      C  764   2.337   1.974   1.237 -0.2080  0.0910  0.1941
  383OCO     PC  765   4.491   4.462   0.152  0.4837  0.2215 -0.0306
  383OCO      C  766   4.449   4.554  -0.298  0.0667 -0.2361  0.2220
  384OCO     PC  767   2.122   3.597   1.850 -0.1520 -0.1983  0.1403
  384OCO      C  768   1.949   3.958   2.128  0.1792 -0.2408 -0.1059
  385OCO     PC  769   6.302   2.801   0.755 -0.0503 -0.2429  0.0172
  385OCO      C  770   6.705   2.830   0.399  0.3101 -0.0490  0.0990
  386OCO     PC  771   3.625   1.669   5.730 -0.1385 -0.1285  0.0640
  386OCO      C  772   3.801   1.738   5.381 -0.0907  0.1966 -0.1369
  387OCO     PC  773   5.912   4.202   4.658 -0.3668 -0.0341 -0.0187
  387OCO      C  774   5.679   4.547   4.861 -0.1206  0.2038 -0.1450
  388OCO     PC  775   0.709   3.323   3.942 -0.1218 -0.4900 -0.2144
  388OCO      C  776   1.085   3.650   4.007 -0.1511 -0.0820  0.0814
  389OCO     PC  777   2.109   5.087   2.953 -0.1699 -0.1845 -0.4688
  389OCO      C  778   2.214   4.616   2.883  0.1335 -0.1501  0.0746
  390OCO     PC  779   6.546   2.886   3.161  0.0839  0.0081 -0.1688
  390OCO      C  780   6.416   2.569   2.921  0.0494  0.2343 -0.2944
  391OCO     PC  781   5.559   2.850   0.101 -0.0440 -0.1982  0.0259
  391OCO      C  782   5.494   2.466   0.185 -0.0123  0.0537  0.0057
  392OCO     PC  783   2.282   3.902   4.793  0.1260 -0.1209  0.1029
  392OCO      C  784   2.363   3.516   4.676 -0.1031  0.1273  0.0792
  393OCO     PC  785   6.244   3.605   6.275 -0.0340  0.0229  0.2284
  393OCO      C  786   6.692   3.400   6.230  0.0495  0.2142  0.3274
  394OCO     PC  787   3.972   6.352   4.679 -0.3265 -0.2537 -0.0351
  394OCO      C  788   3.609   6.207   4.738  0.3116 -0.1492  0.0073
  395OCO     PC  789   0.102   5.811   2.477 -0.1267  0.2525 -0.2213
  395OCO      C  790  -0.271   5.596   2.358  0.0998  0.3443 -0.2135
  396OCO     PC  791   0.838   4.245   5.979  0.0747  0.1364 -0.3422
  396OCO      C  792   0.844   3.937   5.655 -0.1692  0.2093 -0.0158
  397OCO     PC  793   6.200   2.628   2.117 -0.1007 -0.1354 -0.1747
  397OCO      C  794   6.392   2.832   2.509  0.0266 -0.3326 -0.0652
  398OCO     PC  795   1.965   4.503   1.740  0.0335  0.0682  0.3438
  398OCO      C  796   2.065   4.653   2.157  0.0395 -0.1736  0.1351
  399OCO     PC  797   0.560   5.094   4.037 -0.1835 -0.2152  0.0451
  399OCO      C  798   0.785   4.781   3.893  0.1188 -0.0786 -0.0654
  400OCO     PC  799   5.677   2.502   4.671 -0.3145 -0.2281 -0.0276
  400OCO      C  800   5.873   2.325   4.317  0.0999  0.2528  0.0598
  401OCO     PC  801   3.176   5.644   5.659  0.1855  0.0954 -0.0017
  401OCO      C  802   2.815   5.371   5.837  0.1396 -0.0038 -0.0072
  402OCO     PC  803   0.622   2.254   5.443 -0.0108 -0.0829 -0.0911
  402OCO      C  804   1.013   2.317   5.610  0.1708 -0.1203 -0.3076
  403OCO     PC  805   2.559   2.716   0.803 -0.2380  0.2140 -0.0810
  403OCO      C  806   2.434   2.528   1.248 -0.1354  0.1046 -0.0253
  404OCO     PC  807   0.447   0.587   5.423  0.2790  0.1569  0.1811
  404OCO      C  808  -0.102   0.584   5.541 -0.2192 -0.2289  0.1671
  405OCO     PC  809   5.117   2.450   2.673  0.1232  0.0954  0.2682
  405OCO      C  810   4.714   2.406   2.489 -0.0976 -0.0937 -0.4121
  406OCO     PC  811   2.902   5.210   3.227 -0.2078  0.0354 -0.2477
  406OCO      C  812   3.343   5.345   3.403 -0.0069 -0.1408 -0.1285
  407OCO     PC  813   1.436   3.708   2.892  0.3756 -0.0299  0.2174
  407OCO      C  814   1.574   3.805   2.467  0.0280 -0.1939  0.1792
  408OCO     PC  815   4.936   3.709   4.487 -0.4740  0.0450  0.0482
  408OCO      C  816   4.896   3.847   4.870 -0.2357  0.1027 -0.5262
  409OCO     PC  817   2.778   6.256   3.848  0.3542  0.1716  0.2497
  409OCO      C  818   3.205   6.292   3.791 -0.1231 -0.0226 -0.1061
  410OCO     PC  819   4.207   4.670   5.097 -0.3580 -0.1698 -0.0674
  410OCO      C  820   4.133   4.717   4.725 -0.2789 -0.0429 -0.5787
  411OCO     PC  821   6.788   3.683   1.667 -0.2568  0.3771 -0.2032
  411OCO      C  822   6.702   3.313   1.454  0.1945  0.1760  0.1557
  412OCO     PC  823   6.290   5.730   4.076 -0.0650 -0.0380 -0.2211
  412OCO      C  824   6.269   5.766   3.625 -0.1666 -0.1037 -0.0813
  413OCO     PC  825   0.908   0.208   0.816 -0.0827 -0.2498  0.1793
  413OCO      C  826   1.187   0.548   0.696 -0.1903  0.0984 -0.0575
  414OCO     PC  827   3.400   0.733   6.042 -0.2362 -0.3399 -0.1192
  414OCO      C  828   3.455   1.183   5.827 -0.1893  0.0201 -0.0367
  415OCO     PC  829   6.201   6.072   5.875  0.1781 -0.1181  0.0893
  415OCO      C  830   6.444   5.899   5.578  0.1826 -0.2179  0.0749
  416OCO     PC  831   3.182   0.829   4.815  0.0765 -0.0364 -0.0017
  416OCO      C  832   3.129   0.514   5.120 -0.1102 -0.1394 -0.2289
  417OCO     PC  833   2.360   2.488   2.682 -0.0463  0.1566 -0.1077
  417OCO      C  834   2.585   2.865   2.605 -0.1701 -0.0045  0.0159
  418OCO     PC  835   1.096   4.983   4.299  0.1173  0.2786 -0.2147
  418OCO      C  836   1.369   4.971   4.647 -0.0297 -0.1432 -0.2276
  419OCO     PC  837   3.055   5.662   0.957 -0.1865  0.1612  0.0675
  419OCO      C  838   3.392   5.289   1.126  0.4127 -0.2083  0.2519
  420OCO     PC  839   4.071   5.254   4.554  0.1204  0.1620  0.1482
  420OCO      C  840   4.458   5.339   4.755 -0.1017 -0.1761  0.1703
  421OCO     PC  841   4.901   0.799   3.744  0.4507 -0.0731  0.0107
  421OCO      C  842   4.480   0.686   3.525  0.1856 -0.2838 -0.1809
  422OCO     PC  843   2.532   5.671   4.066 -0.0800 -0.0389 -0.0623
  422OCO      C  844   2.195   5.855   3.869 -0.3013 -0.5073  0.2088
  423OCO     PC  845   2.718   5.705   3.606 -0.0971  0.0695  0.1973
  423OCO      C  846   2.641   6.079   3.316  0.1129  0.2560 -0.1304
  424OCO     PC  847   0.762   1.674   0.210  0.0093  0.1279 -0.1977
  424OCO      C  848   0.795   2.015  -0.043  0.1590 -0.1532 -0.1009
  425OCO     PC  849   5.165   5.469   2.342  0.3687  0.1684 -0.2010
  425OCO      C  850   5.142   5.122   2.005  0.0634  0.1838 -0.1815
  426OCO     PC  851   0.127   6.152   0.900 -0.1919 -0.1234  0.0225
  426OCO      C  852  -0.221   5.888   0.838 -0.2098  0.2519 -0.0583
  427OCO     PC  853   0.641   3.723   3.361  0.1647  0.2619 -0.0183
  427OCO      C  854   0.431   4.056   3.672  0.0668 -0.3001 -0.0185
  428OCO     PC  855   1.527   4.758   5.849 -0.5689 -0.1570 -0.0645
  428OCO      C  856   1.085   4.657   5.865  0.0994  0.0921 -0.0270
  429OCO     PC  857   4.865   6.230   4.879 -0.1614  0.3470  0.0533
  429OCO      C  858   5.165   6.307   5.101 -0.0381  0.0863 -0.2678
  430OCO     PC  859   1.374   5.718   0.793 -0.1254 -0.2406 -0.0252
  430OCO      C  860   1.288   5.352   1.154 -0.4389 -0.0919  0.1655
  431OCO     PC  861   0.470   5.263   1.332 -0.0310  0.1297 -0.0157
  431OCO      C  862   0.739   4.993   1.221  0.2510  0.0851  0.3167
  432OCO     PC  863   6.432   3.424   0.590 -0.0123 -0.0611 -0.0780
  432OCO      C  864   6.417   3.258   0.238  0.1016  0.0822 -0.3766
  433OCO     PC  865   5.831   3.375   3.501  0.2245 -0.0554  0.2475
  433OCO      C  866   5.926   3.181   3.131  0.0811 -0.2430  0.3443
  434OCO     PC  867   5.702   6.334   1.514  0.3806 -0.0608 -0.0637
  434OCO      C  868   5.394   6.585   1.176  0.1951  0.2600 -0.2984
  435OCO     PC  869   5.667   1.521   1.028  0.1127  0.0422 -0.1738
  435OCO      C  870   6.075   1.681   1.334  0.1106  0.0909 -0.3495
  436OCO     PC  871   2.472   3.824   3.175  0.2401 -0.1937 -0.1428
  436OCO      C  872   2.060   3.698   3.258 -0.4818  0.1868  0.3583
  437OCO     PC  873   5.858   5.468   4.165 -0.1501 -0.0128  0.0909
  437OCO      C  874   5.648   5.898   4.204  0.2676 -0.1328  0.1227
  438OCO     PC  875   6.770   3.925   6.152  0.0643  0.2933  0.0063
  438OCO      C  876   7.244   4.078   6.072 -0.0271 -0.3016  0.2012
  439OCO     PC  877   5.051   4.312   0.140  0.3869  0.1070  0.1063
  439OCO      C  878   5.228   4.524   0.476  0.1052  0.0966 -0.1191
  440OCO     PC  879   1.993   0.869   4.403 -0.0343 -0.2810  0.0132
  440OCO      C  880   2.327   0.713   4.663  0.0292 -0.0057  0.1344
  441OCO     PC  881   6.700   2.800   3.661 -0.1894  0.0206  0.1178
  441OCO      C  882   6.427   2.545   3.793  0.3111  0.1831 -0.3887
  442OCO     PC  883   0.067   1.100   6.270  0.1282  0.2898 -0.1156
  442OCO      C  884   0.169   1.050   5.857 -0.2530 -0.2393 -0.2326
  443OCO     PC  885   5.480   5.122   2.545 -0.1605 -0.0243  0.1369
  443OCO      C  886   5.597   5.181   2.133  0.0019 -0.0335 -0.0320
  444OCO     PC  887   3.989   2.581   1.348 -0.3571 -0.0227  0.2452
  444OCO      C  888   3.661   2.349   1.294 -0.0544 -0.0225 -0.1088
  445OCO     PC  889   1.518   3.189   2.704 -0.1808 -0.0605  0.0338
  445OCO      C  890   1.888   3.281   3.033  0.0697  0.0761 -0.1345
  446OCO     PC  891   4.977   1.264   4.094  0.1540  0.3295  0.5273
  446OCO      C  892   4.835   1.344   4.488 -0.1264  0.1724  0.3038
  447OCO     PC  893   1.391   3.488   0.536 -0.0342  0.0212 -0.1604
  447OCO      C  894   1.373   3.697   0.871 -0.0819  0.0515  0.0729
  448OCO     PC  895   2.207   5.081   2.404 -0.1850 -0.2323 -0.0486
  448OCO      C  896   1.921   5.443   2.589 -0.4326 -0.1394 -0.3689
  449OCO     PC  897   2.456   4.413   1.759  0.1781 -0.1720 -0.3175
  449OCO      C  898   2.388   4.025   1.675 -0.3023 -0.1152 -0.1049
  450OCO     PC  899   3.014   4.054   6.266 -0.0874 -0.0433  0.1170
  450OCO      C  900   3.318   4.350   6.438  0.2633  0.1147 -0.0150
  451OCO     PC  901   4.982   4.755   6.223 -0.2459 -0.4126 -0.0847
  451OCO      C  902   5.274   4.850   6.517  0.1153  0.1625 -0.2639
  452OCO     PC  903   1.389   2.644   3.012 -0.0951 -0.1717  0.1634
  452OCO      C  904   1.533   2.990   3.259  0.4067 -0.1200  0.0360
  453OCO     PC  905   4.287   2.296   0.594  0.3418 -0.0177  0.2146
  453OCO      C  906   3.934   2.576   0.731 -0.2565  0.0953  0.2071
  454OCO     PC  907   4.967   3.917   5.849  0.2635  0.2385  0.3784
  454OCO      C  908   4.649   4.025   6.205 -0.1129 -0.1028 -0.1816
  455OCO     PC  909   4.480   6.148   5.999  0.3441  0.0918 -0.3775
  455OCO      C  910   4.749   6.297   6.322  0.0179  0.3314 -0.4021
  456OCO     PC  911   5.381   6.126   5.539  0.1165 -0.0861  0.0963
  456OCO      C  912   5.513   5.713   5.582 -0.0570 -0.2878 -0.0343
  457OCO     PC  913   5.422   5.060   3.368  0.0566  0.0610  0.1602
  457OCO      C  914   5.121   5.468   3.287  0.1378  0.2099 -0.1035
  458OCO     PC  915   3.085   4.555   1.619 -0.1536 -0.1100 -0.0207
  458OCO      C  916   3.087   4.987   1.853  0.1790  0.2844  0.1109
  459OCO     PC  917   5.737   3.348   5.776  0.0989  0.1957  0.0215
  459OCO      C  918   5.737   2.959   6.057  0.1613 -0.0795 -0.2306
  460OCO     PC  919   6.774   1.022   3.349 -0.1640  0.0367  0.0855
  460OCO      C  920   7.175   0.973   3.220  0.0968  0.1737  0.1011
  461OCO     PC  921   4.015   6.012   3.403  0.1019 -0.2299  0.1027
  461OCO      C  922   3.613   6.223   3.415  0.0248 -0.1185  0.2437
  462OCO     PC  923   2.203   5.010   5.339  0.0817  0.2656  0.2618
  462OCO      C  924   2.336   4.822   4.865  0.0196 -0.0450 -0.0577
  463OCO     PC  925   1.909   1.921   2.955 -0.0766  0.0408 -0.6170
  463OCO      C  926   1.911   1.668   2.606  0.0589 -0.1657  0.1084
  464OCO     PC  927   6.442   5.612   5.011  0.1927 -0.3355 -0.1976
  464OCO      C  928   6.396   6.021   5.103 -0.1420  0.2303  0.1293
  465OCO     PC  929   5.935   5.300   0.541 -0.1506  0.0500  0.0195
  465OCO      C  930   6.270   5.564   0.690 -0.1075 -0.0636  0.0730
  466OCO     PC  931   3.546   0.191   5.677  0.0761 -0.0469 -0.0890
  466OCO      C  932   3.933   0.008   5.907 -0.0422  0.3376 -0.1723
  467OCO     PC  933   3.595   1.361   1.554 -0.2093 -0.2237 -0.1043
  467OCO      C  934   3.359   1.569   1.879 -0.0997 -0.0714 -0.1722
  468OCO     PC  935   1.853   1.308   3.508 -0.0028 -0.0202 -0.2916
  468OCO      C  936   2.302   1.398   3.548  0.0882  0.1012 -0.1199
  469OCO     PC  937   3.019   3.416   4.160  0.2026  0.2295 -0.2276
  469OCO      C  938   2.706   3.575   4.071 -0.1058 -0.0904  0.3222
  470OCO     PC  939   0.303   0.296   4.717  0.0348  0.0508 -0.0209
  470OCO      C  940   0.203  -0.142   4.593 -0.0687  0.0925  0.0714
  471OCO     PC  941   1.895   4.301   4.890  0.0796 -0.0483 -0.0777
  471OCO      C  942   2.137   4.261   4.507 -0.0890 -0.2449 -0.0449
  472OCO     PC  943   6.483   3.730   0.989  0.3568  0.1466  0.1137
  472OCO      C  944   6.872   3.817   0.741 -0.1965 -0.1799  0.2705
  473OCO     PC  945   0.582   6.331   2.633 -0.0732  0.0948 -0.1449
  473OCO      C  946   1.036   6.549   2.574  0.1956 -0.1607 -0.0472
  474OCO     PC  947   0.734   3.231   4.464 -0.3690  0.1142  0.0496
  474OCO      C  948   1.017   3.433   4.747 -0.0005 -0.0010 -0.2067
  475OCO     PC  949   0.337   2.661   5.594 -0.0161 -0.2360  0.2181
  475OCO      C  950   0.704   2.800   5.306 -0.2203 -0.0087 -0.3238
  476OCO     PC  951   5.255   2.527   0.713 -0.0338 -0.1296 -0.0165
  476OCO      C  952   5.113   2.650   1.087 -0.0457 -0.0373  0.1953
  477OCO     PC  953   4.365   1.492   1.140  0.3863 -0.1048 -0.2079
  477OCO      C  954   4.699   1.568   1.471  0.0044 -0.2434  0.3539
  478OCO     PC  955   6.197   3.860   4.924  0.2714 -0.0799  0.0247
  478OCO      C  956   6.195   4.005   5.385 -0.1360 -0.1628  0.2412
  479OCO     PC  957   4.786   3.029   3.312 -0.5122 -0.2557  0.0793
  479OCO      C  958   4.424   2.827   3.033  0.1334 -0.2725  0.0424
  480OCO     PC  959   6.008   0.310   4.818  0.0492  0.0439  0.2836
  480OCO      C  960   6.189  -0.090   4.738 -0.1129 -0.0319  0.1152
  481OCO     PC  961   3.535   1.306   3.967  0.1159  0.0239 -0.0247
  481OCO      C  962   3.320   1.066   4.294 -0.0080  0.3065 -0.2281
  482OCO     PC  963   4.208   5.567   1.536  0.1911 -0.0829 -0.2746
  482OCO      C  964   4.286   5.115   1.603 -0.0172 -0.0162 -0.2413
  483OCO     PC  965   0.386   4.143   0.616  0.1212  0.1553  0.3439
  483OCO      C  966   0.537   4.599   0.521 -0.1709  0.3219  0.1206
  484OCO     PC  967   6.493   1.051   4.682 -0.0856  0.0654  0.2210
  484OCO      C  968   6.479   1.345   4.942 -0.1290  0.1579  0.0443
  485OCO     PC  969   4.544   6.039   3.475 -0.2273  0.2055 -0.3420
  485OCO      C  970   4.724   5.645   3.699 -0.1639  0.3391  0.1455
  486OCO     PC  971   1.198   5.190   5.768  0.1004  0.2014  0.2400
  486OCO      C  972   0.827   5.038   6.052  0.0326 -0.3360 -0.0343
  487OCO     PC  973   1.187   0.055   4.453  0.1651  0.0742 -0.0028
  487OCO      C  974   1.483  -0.197   4.712 -0.0243 -0.0583  0.0640
  488OCO     PC  975   4.624   6.088   0.891  0.0937  0.1123  0.1715
  488OCO      C  976   4.321   5.843   0.603  0.0185 -0.2907 -0.2778
  489OCO     PC  977   3.146   3.328   2.573  0.2237 -0.2701  0.0109
  489OCO      C  978   2.829   3.217   2.867 -0.1993  0.0255  0.0678
  490OCO     PC  979   0.806   2.532   4.000  0.1099  0.0074 -0.3600
  490OCO      C  980   0.542   2.822   4.270  0.1520  0.1034  0.1339
  491OCO     PC  981   5.656   0.136   0.654  0.1123  0.3784 -0.1750
  491OCO      C  982   5.982   0.457   0.605  0.4820  0.1060 -0.0729
  492OCO     PC  983   3.609   4.815   1.050 -0.0896 -0.1652 -0.2174
  492OCO      C  984   3.402   4.879   1.481  0.0918 -0.1210 -0.2536
  493OCO     PC  985   2.898   3.227   1.018  0.0192 -0.2379  0.2974
  493OCO      C  986   3.262   3.156   1.224 -0.1884  0.0853 -0.2043
  494OCO     PC  987   4.396   0.034   5.077  0.1954  0.0882  0.3749
  494OCO      C  988   4.496   0.268   4.734  0.0569 -0.1608  0.3455
  495OCO     PC  989   4.980   2.117   1.796 -0.0336  0.0972  0.3194
  495OCO      C  990   5.049   1.744   1.750 -0.0131 -0.2824 -0.1579
  496OCO     PC  991   3.255   3.749   4.687  0.0141 -0.1674  0.2972
  496OCO      C  992   2.849   3.702   4.545 -0.0233 -0.0237 -0.0624
  497OCO     PC  993   3.552   3.307   2.342 -0.0262  0.1236 -0.0329
  497OCO      C  994   3.840   3.712   2.371 -0.1394  0.2316 -0.0198
  498OCO     PC  995   2.302   4.366   0.443 -0.0012  0.4289  0.0283
  498OCO      C  996   1.896   4.353   0.201  0.1298  0.2765 -0.0696
  499OCO     PC  997   6.114   4.490   5.217  0.4334 -0.0730 -0.0085
  499OCO      C  998   6.509   4.423   5.426  0.2383  0.0310  0.2386
  500OCO     PC  999   1.649   1.338   2.311  0.1553  0.1702 -0.5489
  500OCO      C 1000   1.219   1.086   2.226 -0.0446  0.1734 -0.4674
  501OCO     PC 1001   2.263   5.854   2.957 -0.0104  0.0283  0.1304
  501OCO      C 1002   2.348   5.738   2.487 -0.2996  0.1941  0.1477
  502OCO     PC 1003   6.469   4.612   6.026  0.0443 -0.3219 -0.3035
  502OCO      C 1004   6.248   4.962   5.990 -0.1033  0.0290  0.0960
  503OCO     PC 1005   6.131   5.470   5.998 -0.1963 -0.1791 -0.1697
  503OCO      C 1006   5.975   5.684   5.742  0.3231 -0.3533  0.0334
  504OCO     PC 1007   0.554   0.315   4.222  0.3500  0.2906 -0.3361
  504OCO      C 1008   0.780   0.133   4.702 -0.2515  0.0209 -0.0950
  505OCO     PC 1009   3.506   6.375   2.936  0.0735 -0.0023  0.1727
  505OCO      C 1010   3.614   6.278   2.448 -0.1603 -0.2429 -0.3352
  506OCO     PC 1011   2.590   3.966   3.642  0.1901  0.0294  0.0659
  506OCO      C 1012   2.132   3.858   3.718 -0.4623  0.1577 -0.0812
  507OCO     PC 1013   4.257   5.635   5.279 -0.2620  0.0107  0.0480
  507OCO      C 1014   4.446   5.701   5.699 -0.1372  0.2426 -0.0965
  508OCO     PC 1015   3.702   2.580   1.780 -0.1098 -0.0268 -0.1827
  508OCO      C 1016   3.966   2.301   1.926  0.0011 -0.0599 -0.1589
  509OCO     PC 1017   6.298   1.109   2.746  0.1689 -0.0497  0.2489
  509OCO      C 1018   6.426   1.517   2.633  0.0917  0.2952 -0.0510
  510OCO     PC 1019   2.936   2.708   1.621 -0.1993 -0.2595  0.0324
  510OCO      C 1020   3.362   2.747   1.473  0.1659 -0.1027 -0.0663
  511OCO     PC 1021   5.068   3.193   2.051 -0.5399 -0.0935 -0.1750
  511OCO      C 1022   5.199   3.129   2.469  0.3771  0.2476  0.2989
  512OCO     PC 1023   2.898   3.045   5.342 -0.2923 -0.0027 -0.1012
  512OCO      C 1024   2.979   2.712   5.028  0.1992  0.4758  0.2079
  513OCO     PC 1025   1.825   5.200   2.066  0.1964 -0.0743  0.0552
  513OCO      C 1026   2.201   5.250   1.809 -0.0513  0.1658 -0.1369
  514OCO     PC 1027   4.595   3.790   1.149 -0.1759 -0.3021  0.2342
  514OCO      C 1028   4.491   3.912   1.529 -0.0410  0.0565  0.1755
  515OCO     PC 1029   0.385   6.057   4.091 -0.0444  0.0089  0.1159
  515OCO      C 1030   0.415   5.639   3.992  0.2100  0.0408  0.0965
  516OCO     PC 1031   3.996   6.350   2.887 -0.0627 -0.1756  0.2635
  516OCO      C 1032   3.905   6.761   2.593 -0.3013 -0.1143  0.1611
  517OCO     PC 1033   4.637   5.065   5.952 -0.5941 -0.1285 -0.1807
  517OCO      C 1034   4.676   5.458   6.135 -0.3407  0.0328 -0.0404
  518OCO     PC 1035   5.307   1.157   0.869 -0.1443  0.1635  0.1833
  518OCO      C 1036   4.904   0.999   0.786  0.1520  0.0562 -0.0863
  519OCO     PC 1037   0.471   1.564   6.135 -0.0532 -0.0972  0.3720
  519OCO      C 1038   0.381   1.399   6.536  0.0948 -0.1418 -0.1143
  520OCO     PC 1039   3.055   5.853   6.076  0.0564 -0.0227 -0.0102
  520OCO      C 1040   2.748   6.171   5.987 -0.0200 -0.0373  0.1186
  521OCO     PC 1041   1.256   3.802   4.880 -0.2885 -0.1514 -0.0493
  521OCO      C 1042   1.114   3.989   5.206  0.0290 -0.1887 -0.1588
  522OCO     PC 1043   1.820   4.747   6.278 -0.0556  0.0516 -0.1380
  522OCO      C 1044   2.299   4.637   6.363  0.1249 -0.2126  0.0557
  523OCO     PC 1045   1.549   1.565   5.232 -0.2404 -0.0210  0.0805
  523OCO      C 1046   2.040   1.746   5.286  0.0237  0.0228 -0.0009
  524OCO     PC 1047   5.710   5.440   0.102  0.2130  0.2263  0.2454
  524OCO      C 1048   5.658   5.530  -0.330 -0.2655 -0.2382 -0.2088
  525OCO     PC 1049   3.350   3.173   5.507  0.0867 -0.0527 -0.2455
  525OCO      C 1050   3.406   2.989   5.059  0.0717  0.0182 -0.0658
  526OCO     PC 1051   5.132   4.224   5.085  0.3500 -0.0766  0.0471
  526OCO      C 1052   4.860   4.007   5.351 -0.0678  0.2590  0.1251
  527OCO     PC 1053   6.104   3.857   0.657  0.2061 -0.2936  0.0258
  527OCO      C 1054   5.816   4.165   0.806  0.2489 -0.1039 -0.1826
  528OCO     PC 1055   5.143   6.042   1.874 -0.1602  0.0703 -0.2862
  528OCO      C 1056   4.799   5.743   2.126 -0.1084  0.1263 -0.0858
  529OCO     PC 1057   1.295   1.268   0.233 -0.0371  0.2246 -0.2293
  529OCO      C 1058   1.723   1.239   0.319  0.2413  0.0978  0.0088
  530OCO     PC 1059   6.177   6.138   2.927 -0.1810 -0.0858  0.0044
  530OCO      C 1060   6.208   6.471   2.719  0.2878 -0.0770  0.2472
  531OCO     PC 1061   6.508   2.010   2.771  0.2687  0.0813 -0.0552
  531OCO      C 1062   6.905   2.133   2.906 -0.0929  0.0864  0.3045
  532OCO     PC 1063   0.144   4.608   5.633  0.2802  0.2288  0.0605
  532OCO      C 1064   0.090   4.274   5.237 -0.0317  0.0793 -0.2416
  533OCO     PC 1065   1.534   4.839   3.691 -0.0317 -0.2123  0.0910
  533OCO      C 1066   1.557   4.720   4.039 -0.0111 -0.0679  0.0411
  534OCO     PC 1067   5.148   4.341   5.550 -0.2270 -0.0411 -0.1369
  534OCO      C 1068   5.248   4.657   5.222 -0.1424  0.1030 -0.2727
  535OCO     PC 1069   4.188   5.242   1.142 -0.2498 -0.0687  0.0007
  535OCO      C 1070   4.473   5.580   1.037  0.1542  0.3092  0.0486
  536OCO     PC 1071   0.790   0.229   2.149  0.1232 -0.0114 -0.0413
  536OCO      C 1072   0.792   0.298   1.750 -0.1667  0.0429  0.2020
  537OCO     PC 1073   5.597   5.024   6.138 -0.1455  0.0915 -0.0677
  537OCO      C 1074   5.765   5.127   5.815  0.0008 -0.0503 -0.2435
  538OCO     PC 1075   6.735   3.314   3.283 -0.1922  0.7023  0.2131
  538OCO      C 1076   6.480   3.500   3.570  0.1680 -0.1572  0.0059
  539OCO     PC 1077   5.777   1.967   6.111 -0.0219 -0.0453 -0.0859
  539OCO      C 1078   5.843   2.308   5.767 -0.0121  0.0683  0.4361
  540OCO     PC 1079   0.906   6.362   4.004 -0.0411  0.0520  0.1369
  540OCO      C 1080   0.917   5.925   3.892  0.1386  0.0381 -0.0209
  541OCO     PC 1081   4.488   2.435   4.223  0.1137 -0.1551  0.0798
  541OCO      C 1082   4.181   2.502   4.157  0.3530 -0.0578 -0.0903
  542OCO     PC 1083   3.715   0.787   4.506  0.3384 -0.2372  0.0627
  542OCO      C 1084   3.882   0.813   4.046 -0.0116 -0.1514 -0.1443
  543OCO     PC 1085   3.373   3.240   3.025  0.1007 -0.0685 -0.0333
  543OCO      C 1086   3.223   2.884   2.925 -0.0421 -0.2397 -0.1583
  544OCO     PC 1087   4.653   1.072   1.160 -0.0041 -0.2681  0.1145
  544OCO      C 1088   4.734   1.025   1.600 -0.1241 -0.0145 -0.1056
  545OCO     PC 1089   3.759   3.387   0.027 -0.1990 -0.3160  0.2214
  545OCO      C 1090   4.126   3.196  -0.065 -0.1781 -0.1587  0.0117
  546OCO     PC 1091   2.497   0.401   0.055 -0.0142 -0.0945  0.2212
  546OCO      C 1092   2.146   0.250   0.304 -0.3026  0.3385 -0.3292
  547OCO     PC 1093   1.205   3.366   1.195  0.0167 -0.1199 -0.2000
  547OCO      C 1094   1.540   3.600   1.452 -0.1972  0.2803  0.1009
  548OCO     PC 1095   0.108   3.066   4.778 -0.0888 -0.0552 -0.2088
  548OCO      C 1096   0.246   2.787   5.065  0.0376  0.0347  0.0507
  549OCO     PC 1097   2.103   1.154   0.633 -0.1092  0.2831  0.1179
  549OCO      C 1098   2.151   1.491   0.966  0.1238 -0.1883  0.0580
  550OCO     PC 1099   6.146   3.255   3.917  0.1859  0.0997  0.1430
  550OCO      C 1100   6.163   2.928   3.531 -0.0488  0.1651  0.0078
  551OCO     PC 1101   2.552   5.169   3.726 -0.2003 -0.0175 -0.1980
  551OCO      C 1102   2.194   5.325   3.974  0.1233 -0.0548 -0.0415
  552OCO     PC 1103   3.674   3.933   0.835 -0.1042 -0.0902 -0.0865
  552OCO      C 1104   3.215   3.964   0.849  0.1326  0.1453 -0.0177
  553OCO     PC 1105   0.189   0.189   5.659 -0.1962  0.1378 -0.1388
  553OCO      C 1106  -0.087  -0.170   5.803 -0.0075  0.2890  0.2273
  554OCO     PC 1107   0.129   3.290   1.894 -0.2828  0.1255 -0.1237
  554OCO      C 1108   0.373   3.236   1.422  0.1951 -0.0355  0.2262
  555OCO     PC 1109   4.801   0.045   1.677 -0.0478 -0.2073 -0.0717
  555OCO      C 1110   5.133   0.221   1.953  0.0101  0.2469 -0.1754
  556OCO     PC 1111   1.969   2.170   1.906  0.2798  0.1354 -0.1414
  556OCO      C 1112   1.959   2.246   1.424  0.0868  0.3913  0.2997
  557OCO     PC 1113   1.462   4.404   6.248  0.3361 -0.2687  0.1539
  557OCO      C 1114   1.305   4.183   5.854  0.0468 -0.0458  0.1365
  558OCO     PC 1115   2.675   3.094   1.416  0.0729  0.4295 -0.0884
  558OCO      C 1116   2.966   3.228   1.639  0.3680 -0.0282  0.0557
  559OCO     PC 1117   0.644   5.280   3.604  0.0052 -0.3788  0.1973
  559OCO      C 1118   0.675   5.652   3.404 -0.0093  0.0148 -0.2417
  560OCO     PC 1119   2.054   3.678   1.190 -0.2748 -0.1083 -0.0086
  560OCO      C 1120   2.319   3.919   0.765  0.1552 -0.0102 -0.0060
  561OCO     PC 1121   3.377   1.522   0.213 -0.0421  0.2062 -0.2081
  561OCO      C 1122   3.583   1.197   0.093  0.0944 -0.1803 -0.0234
  562OCO     PC 1123   4.000   4.880   2.845 -0.1100  0.1567  0.1318
  562OCO      C 1124   4.213   5.076   2.497  0.0786 -0.1871  0.0961
  563OCO     PC 1125   3.631   4.065   5.590 -0.2266 -0.0521  0.0524
  563OCO      C 1126   3.605   4.049   6.000  0.0886  0.0830 -0.3475
  564OCO     PC 1127   1.360   3.466   4.379  0.0543 -0.0363  0.0494
  564OCO      C 1128   1.489   3.347   4.862 -0.0757 -0.1547 -0.3590
  565OCO     PC 1129   6.877   0.312   0.354  0.0755  0.2531 -0.0169
  565OCO      C 1130   6.852   0.158  -0.108  0.2744 -0.1040 -0.0480
  566OCO     PC 1131   3.671   3.580   5.681  0.1521 -0.2333  0.1612
  566OCO      C 1132   3.673   3.302   5.969 -0.1977  0.1507  0.0857
  567OCO     PC 1133   0.592   3.804   2.866 -0.2656  0.1296  0.3343
  567OCO      C 1134   1.006   3.727   2.668 -0.0294  0.1686  0.1968
  568OCO     PC 1135   5.288   1.897   5.853 -0.0378 -0.1374  0.0005
  568OCO      C 1136   5.030   1.546   5.933  0.2338 -0.3588  0.0631
  569OCO     PC 1137   3.608   0.630   2.091  0.0637  0.3336 -0.0265
  569OCO      C 1138   3.305   0.259   2.167 -0.1312  0.0474  0.1092
  570OCO     PC 1139   4.265   5.626   3.501  0.2629  0.0675  0.0854
  570OCO      C 1140   4.296   5.281   3.825 -0.1913  0.0358  0.2162
  571OCO     PC 1141   2.037   2.841   2.963  0.0563  0.0938  0.0997
  571OCO      C 1142   1.996   2.800   3.435  0.0909 -0.1930  0.0838
  572OCO     PC 1143   5.477   2.121   1.879 -0.1015  0.4668 -0.2345
  572OCO      C 1144   5.678   1.838   1.635 -0.1310  0.0044  0.0327
  573OCO     PC 1145   3.263   5.322   0.207  0.2462 -0.1171  0.1424
  573OCO      C 1146   2.816   5.060   0.239 -0.0037  0.3112  0.2727
  574OCO     PC 1147   1.609   3.889   6.162  0.0181 -0.4057 -0.0192
  574OCO      C 1148   1.226   3.955   6.267  0.1223  0.0929 -0.1685
  575OCO     PC 1149   4.159   5.281   3.125  0.3553 -0.1073  0.0303
  575OCO      C 1150   4.522   5.225   3.415  0.2732  0.0176  0.0319
  576OCO     PC 1151   1.964   3.997   5.294 -0.1918 -0.2828 -0.1224
  576OCO      C 1152   2.241   4.384   5.291 -0.1985  0.2778  0.1558
  577OCO     PC 1153   4.066   4.567   1.154 -0.2605  0.0078 -0.1384
  577OCO      C 1154   4.396   4.749   1.005 -0.1297 -0.0241  0.0119
  578OCO     PC 1155   5.714   6.374   2.004  0.2378 -0.0685  0.0369
  578OCO      C 1156   5.810   6.549   2.402  0.1305  0.2282  0.4367
  579OCO     PC 1157   3.547   5.175   0.604 -0.1276 -0.1472  0.3247
  579OCO      C 1158   3.521   5.579   0.536  0.2224 -0.0360 -0.1192
  580OCO     PC 1159   1.605   5.303   0.699 -0.1534 -0.0092  0.1071
  580OCO      C 1160   1.789   5.496   1.042  0.0581 -0.0266 -0.0112
  581OCO     PC 1161   2.757   2.507   2.967  0.3212  0.3150  0.1202
  581OCO      C 1162   2.841   2.251   2.585  0.1516 -0.0197 -0.0487
  582OCO     PC 1163   5.318   1.696   4.071  0.2381  0.3013 -0.1040
  582OCO      C 1164   5.689   1.879   4.129 -0.2801 -0.2086 -0.0584
  583OCO     PC 1165   1.567   2.129   2.642  0.2185  0.0015 -0.0836
  583OCO      C 1166   1.403   1.681   2.790  0.2492 -0.2487  0.1342
  584OCO     PC 1167   0.455   1.080   1.700  0.1209 -0.0862 -0.1685
  584OCO      C 1168   0.222   1.429   1.666  0.0371 -0.4495  0.2568
  585OCO     PC 1169   0.673   0.665   4.644 -0.0549 -0.1298  0.0921
  585OCO      C 1170   1.079   0.616   4.424 -0.1462 -0.0690 -0.1705
  586OCO     PC 1171   1.464   4.421   1.828  0.0873  0.1411 -0.4190
  586OCO      C 1172   1.492   3.855   1.920  0.0589 -0.1133  0.2149
  587OCO     PC 1173   3.458   2.062   1.675  0.2178  0.1327  0.0393
  587OCO      C 1174   3.544   1.993   2.175  0.0156  0.0635  0.0438
  588OCO     PC 1175   2.582   4.160   2.793 -0.1526 -0.0424  0.1036
  588OCO      C 1176   2.908   4.282   2.573  0.0678  0.2861 -0.1567
  589OCO     PC 1177   4.809   1.718   4.153  0.1306  0.1765 -0.0061
  589OCO      C 1178   4.805   2.102   4.393 -0.0078  0.0455  0.0599
  590OCO     PC 1179   0.048   4.992   0.362  0.2619  0.4632  0.0622
  590OCO      C 1180  -0.107   5.394   0.562  0.2771 -0.2502 -0.1082
  591OCO     PC 1181   6.132   4.518   1.454  0.1501 -0.3876 -0.1822
  591OCO      C 1182   5.942   4.708   1.181  0.1054  0.2147  0.0204
  592OCO     PC 1183   1.092   2.074   1.455 -0.1282  0.1037 -0.0890
  592OCO      C 1184   1.003   2.020   1.895 -0.2965 -0.2196  0.2034
  593OCO     PC 1185   5.674   6.030   5.959  0.0175  0.0117 -0.2817
  593OCO      C 1186   6.041   5.826   6.258  0.3637 -0.1286 -0.1415
  594OCO     PC 1187   3.683   4.216   4.054  0.1971 -0.0144 -0.0487
  594OCO      C 1188   4.095   4.396   4.051  0.2607  0.1435  0.2516
  595OCO     PC 1189   0.250   1.950   0.028 -0.0835 -0.0822 -0.0694
  595OCO      C 1190   0.517   2.266   0.338  0.0730  0.0891 -0.0463
  596OCO     PC 1191   6.870   1.482   0.734 -0.1222 -0.0612 -0.1321
  596OCO      C 1192   7.222   1.758   0.503  0.1105  0.3879  0.1364
  597OCO     PC 1193   1.576   0.201   0.478  0.0223  0.0417  0.1162
  597OCO      C 1194   1.144   0.260   0.239  0.0059 -0.3261  0.1867
  598OCO     PC 1195   6.764   3.211   4.009 -0.2866  0.0544 -0.3065
  598OCO      C 1196   6.764   3.696   4.123 -0.1556 -0.2311 -0.2597
  599OCO     PC 1197   2.078   3.417   0.773 -0.0646 -0.0351 -0.0156
  599OCO      C 1198   1.993   3.473   0.394  0.0807  0.0527 -0.3613
  600OCO     PC 1199   1.135   2.438   4.522 -0.1852 -0.0977 -0.2150
  600OCO      C 1200   0.692   2.616   4.731 -0.1926  0.1828  0.2313
  601OCO     PC 1201   4.418   3.503   0.252  0.1985 -0.1206  0.0389
  601OCO      C 1202   4.151   3.259   0.491 -0.0862 -0.1568  0.0755
  602OCO     PC 1203   0.921   5.637   4.311 -0.0177  0.1385  0.1203
  602OCO      C 1204   1.271   5.867   4.410  0.0812 -0.0924 -0.1950
  603OCO     PC 1205   5.727   1.655   2.157 -0.1127  0.1332  0.1367
  603OCO      C 1206   6.075   1.424   1.858  0.0537  0.0434  0.1108
  604OCO     PC 1207   6.470   5.265   0.166 -0.0525  0.1923  0.2431
  604OCO      C 1208   6.567   4.909  -0.004  0.1788  0.0830  0.0198
  605OCO     PC 1209   3.538   3.515   1.059 -0.0345 -0.0421 -0.0256
  605OCO      C 1210   3.949   3.562   1.223 -0.1227 -0.0420 -0.0012
  606OCO     PC 1211   0.120   2.331   0.609  0.3039 -0.3284 -0.0566
  606OCO      C 1212   0.386   2.338   0.894 -0.1827  0.0173  0.0302
  607OCO     PC 1213   5.783   5.375   3.570 -0.0904  0.1198 -0.1788
  607OCO      C 1214   6.230   5.307   3.770 -0.1776 -0.2670 -0.1009
  608OCO     PC 1215   1.935   1.702   4.750  0.0489 -0.2405  0.1023
  608OCO      C 1216   2.297   1.758   4.474  0.2257  0.0771  0.0247
  609OCO     PC 1217   4.029   0.439   4.900 -0.2034  0.0117  0.0792
  609OCO      C 1218   4.390   0.643   5.139 -0.2842  0.2022  0.0612
  610OCO     PC 1219   6.608   1.515   5.384 -0.3055 -0.0861 -0.1281
  610OCO      C 1220   6.321   1.887   5.213 -0.0554  0.1530  0.2912
  611OCO     PC 1221   0.866   2.781   2.378 -0.1226 -0.0523  0.1066
  611OCO      C 1222   1.060   2.945   2.655 -0.3514 -0.0629 -0.3708
  612OCO     PC 1223   5.262   0.783   5.692  0.2200  0.2189  0.0197
  612OCO      C 1224   4.854   0.596   5.566 -0.4677 -0.0256 -0.1732
  613OCO     PC 1225   4.066   3.947   1.960 -0.0578  0.1024 -0.0963
  613OCO      C 1226   3.902   3.823   1.599  0.1274 -0.0744  0.1066
  614OCO     PC 1227   3.986   0.143   1.326 -0.0837  0.0352 -0.2327
  614OCO      C 1228   4.048   0.473   1.550 -0.1857  0.1615 -0.0472
  615OCO     PC 1229   6.838   0.346   1.034  0.1494 -0.1131 -0.0483
  615OCO      C 1230   6.682  -0.069   1.159 -0.1972 -0.1431  0.3795
  616OCO     PC 1231   2.630   5.074   2.778  0.1055 -0.3225  0.2609
  616OCO      C 1232   2.780   4.692   2.962 -0.1808 -0.1371  0.0801
  617OCO     PC 1233   2.524   2.690   4.754  0.0868  0.1135 -0.2863
  617OCO      C 1234   2.451   2.771   5.152  0.1804 -0.2215  0.1125
  618OCO     PC 1235   3.716   2.422   5.942 -0.1130 -0.2169  0.3564
  618OCO      C 1236   3.930   2.071   5.839 -0.1331 -0.0497 -0.0423
  619OCO     PC 1237   3.719   1.050   3.574  0.2355 -0.2969  0.4973
  619OCO      C 1238   4.092   0.838   3.341 -0.0751  0.2031  0.0972
  620OCO     PC 1239   4.525   3.508   6.048  0.0017 -0.0059 -0.1054
  620OCO      C 1240   4.936   3.516   6.199 -0.0303 -0.3563 -0.2744
  621OCO     PC 1241   3.861   5.310   4.091 -0.0228  0.0138 -0.1116
  621OCO      C 1242   3.535   5.501   3.856 -0.0130 -0.1460  0.0820
  622OCO     PC 1243   3.183   2.875   2.343  0.2309 -0.0629  0.2497
  622OCO      C 1244   3.453   3.041   1.946 -0.2371 -0.1353  0.2343
  623OCO     PC 1245   2.447   0.997   6.101  0.0142  0.1004  0.1161
  623OCO      C 1246   2.570   0.955   5.704 -0.3376 -0.2717 -0.2295
  624OCO     PC 1247   6.184   0.732   4.473 -0.1401 -0.5338 -0.1660
  624OCO      C 1248   6.237   0.383   4.298  0.1604  0.1903 -0.0353
  625OCO     PC 1249   6.641   1.014   3.801 -0.2222 -0.2532  0.1256
  625OCO      C 1250   6.360   0.772   3.824  0.2569 -0.1605  0.1165
  626OCO     PC 1251   4.556   5.157   0.700 -0.2058 -0.1706 -0.1361
  626OCO      C 1252   4.903   5.222   0.996  0.0448  0.3531 -0.1322
  627OCO     PC 1253   5.499   4.978   4.349  0.0537  0.0599  0.0027
  627OCO      C 1254   5.784   4.631   4.280 -0.0189  0.3066 -0.0758
  628OCO     PC 1255   5.222   1.462   2.775  0.1296  0.1584 -0.2188
  628OCO      C 1256   5.613   1.411   2.651 -0.0701 -0.1439  0.1526
  629OCO     PC 1257   6.659   0.762   2.094  0.1037  0.1376 -0.0223
  629OCO      C 1258   6.586   0.649   2.455 -0.1645 -0.1204 -0.1495
  630OCO     PC 1259   3.045   1.940   3.742 -0.0942  0.1393 -0.1111
  630OCO      C 1260   2.819   1.588   3.506 -0.1736 -0.0214 -0.0823
  631OCO     PC 1261   1.499   0.282   6.166  0.0160 -0.2870  0.4476
  631OCO      C 1262   1.629  -0.049   6.477  0.3338  0.1201  0.0990
  632OCO     PC 1263   1.345   4.192   2.854  0.0612 -0.0776  0.1130
  632OCO      C 1264   1.694   4.514   2.895 -0.0521  0.1200  0.0723
  633OCO     PC 1265   3.757   5.451   2.859  0.2059  0.1597 -0.0424
  633OCO      C 1266   3.752   5.858   2.709  0.3212 -0.0176 -0.1879
  634OCO     PC 1267   0.235   1.930   4.486  0.0836 -0.4270  0.0106
  634OCO      C 1268   0.093   1.685   4.154  0.0538 -0.1423 -0.0650
  635OCO     PC 1269   2.118   0.940   2.409  0.3046  0.0838  0.0953
  635OCO      C 1270   2.167   0.485   2.373 -0.0201  0.1308  0.1519
  636OCO     PC 1271   6.758   4.052   5.684  0.1880 -0.3131 -0.0983
  636OCO      C 1272   6.668   3.873   5.327 -0.1587 -0.1993  0.0682
  637OCO     PC 1273   2.041   5.359   0.482 -0.1733 -0.0500 -0.0663
  637OCO      C 1274   2.042   5.662   0.141  0.4720 -0.1532  0.0774
  638OCO     PC 1275   2.532   3.408   3.537 -0.3624 -0.2118 -0.1000
  638OCO      C 1276   1.949   3.326   3.593  0.1415  0.0601 -0.2819
  639OCO     PC 1277   0.912   3.229   0.798  0.1295 -0.2945  0.2370
  639OCO      C 1278   1.193   2.904   0.996  0.1085  0.0213 -0.0510
  640OCO     PC 1279   5.567   3.680   1.446  0.0766 -0.0402 -0.2306
  640OCO      C 1280   5.511   4.079   1.228  0.0018 -0.2719  0.1373
  641OCO     PC 1281   3.920   3.814   0.278 -0.0514 -0.1050  0.1070
  641OCO      C 1282   3.722   4.239   0.342 -0.0585  0.0150  0.1401
  642OCO     PC 1283   5.525   2.434   3.793 -0.3190  0.1339 -0.1989
  642OCO      C 1284   5.341   2.084   3.855 -0.2152 -0.2457  0.1296
  643OCO     PC 1285   1.902   0.048   2.714  0.0274 -0.2053 -0.0840
  643OCO      C 1286   2.088  -0.018   3.112  0.0237 -0.0978  0.1627
  644OCO     PC 1287   5.780   2.930   4.257 -0.2151  0.1149 -0.0942
  644OCO      C 1288   6.029   2.721   3.957 -0.0363  0.2844 -0.4269
  645OCO     PC 1289   3.187   1.008   3.548  0.0875 -0.0618  0.1706
  645OCO      C 1290   3.475   0.665   3.703 -0.0459  0.2470  0.2304
  646OCO     PC 1291   6.537   4.539   3.696  0.1640  0.0884  0.1057
  646OCO      C 1292   6.262   4.850   3.935  0.1029 -0.0133 -0.0373
  647OCO     PC 1293   6.663   6.303   1.788  0.1862  0.2105 -0.1347
  647OCO      C 1294   6.555   5.892   1.520 -0.2357 -0.0401 -0.0468
  648OCO     PC 1295   3.027   3.959   4.191 -0.1474 -0.0765  0.0588
  648OCO      C 1296   3.469   3.689   4.183 -0.1522 -0.0624 -0.0685
  649OCO     PC 1297   6.218   6.170   4.004 -0.0985 -0.1207  0.0764
  649OCO      C 1298   6.673   6.109   3.800  0.0673  0.1442  0.1554
  650OCO     PC 1299   6.031   1.736   3.613  0.0804  0.0887 -0.0682
  650OCO      C 1300   6.053   2.163   3.807  0.1930  0.0398 -0.1560
  651OCO     PC 1301   0.415   5.310   0.580 -0.2170  0.3567  0.0345
  651OCO      C 1302   0.712   5.380   0.190 -0.1825  0.4513  0.0816
  652OCO     PC 1303   6.496   4.760   1.135  0.0601  0.2258 -0.1005
  652OCO      C 1304   6.201   5.029   1.393 -0.1787 -0.2996 -0.4069
  653OCO     PC 1305   4.329   2.727   1.008 -0.0345  0.0004 -0.2020
  653OCO      C 1306   4.629   2.446   1.054 -0.0239  0.0108 -0.1240
  654OCO     PC 1307   5.272   3.235   3.559 -0.0449 -0.1503 -0.2298
  654OCO      C 1308   4.874   3.372   3.694 -0.0960 -0.3168  0.0866
  655OCO     PC 1309   1.129   2.895   4.511 -0.2221 -0.2039  0.2561
  655OCO      C 1310   1.341   3.044   4.092 -0.0229  0.3720  0.1559
  656OCO     PC 1311   2.415   2.250   4.413  0.3861 -0.1663 -0.3402
  656OCO      C 1312   2.624   2.118   4.121 -0.1004 -0.0350  0.0087
  657OCO     PC 1313   6.754   6.180   2.254 -0.2606  0.0596  0.0478
  657OCO      C 1314   6.490   6.055   2.523 -0.1741 -0.0149  0.0081
  658OCO     PC 1315   5.930   5.713   3.133  0.3392  0.0826 -0.0920
  658OCO      C 1316   5.752   5.964   2.839 -0.1186  0.0476  0.0752
  659OCO     PC 1317   4.664   3.975   2.487 -0.5603 -0.0251 -0.0034
  659OCO      C 1318   4.518   3.815   2.128 -0.1177 -0.4486 -0.1192
  660OCO     PC 1319   4.753   0.491   2.234  0.0962  0.0243  0.0346
  660OCO      C 1320   4.252   0.466   2.174  0.0476 -0.2107 -0.2106
  661OCO     PC 1321   6.664   5.029   3.480  0.0880  0.0182 -0.0177
  661OCO      C 1322   6.607   5.444   3.328 -0.3159  0.0509 -0.1928
  662OCO     PC 1323   2.539   6.335   0.438 -0.1757  0.2849  0.1077
  662OCO      C 1324   2.848   6.046   0.259 -0.2170 -0.2015 -0.4232
  663OCO     PC 1325   6.726   1.665   6.377  0.0581  0.1461  0.0884
  663OCO      C 1326   6.419   1.591   6.783 -0.1833 -0.0217 -0.0016
  664OCO     PC 1327   1.757   0.372   1.929  0.1679 -0.0810 -0.2751
  664OCO      C 1328   2.134   0.651   1.783  0.0010  0.0160  0.1151
  665OCO     PC 1329   2.901   4.933   4.034  0.3410  0.0985 -0.0232
  665OCO      C 1330   3.279   5.072   4.232 -0.2230 -0.3436 -0.4241
  666OCO     PC 1331   6.257   0.949   3.202 -0.1901 -0.1565 -0.2199
  666OCO      C 1332   6.386   1.243   3.454 -0.1419  0.1680 -0.3605
  667OCO     PC 1333   4.727   2.349   5.996 -0.1526  0.0733  0.0980
  667OCO      C 1334   4.640   1.909   5.960  0.1853 -0.1024  0.0329
  668OCO     PC 1335   2.718   2.304   5.519  0.4956  0.0594  0.1573
  668OCO      C 1336   2.444   1.901   5.573  0.0415  0.2304 -0.3174
  669OCO     PC 1337   5.004   0.542   1.639 -0.0093 -0.2252  0.1143
  669OCO      C 1338   5.237   0.839   1.786 -0.1217 -0.2134 -0.0812
  670OCO     PC 1339   4.199   5.277   5.747 -0.0920 -0.0275 -0.0903
  670OCO      C 1340   4.125   4.933   6.009  0.2106 -0.4900  0.3480
  671OCO     PC 1341   3.583   1.814   4.854 -0.0365 -0.2127 -0.2432
  671OCO      C 1342   4.020   2.041   5.022 -0.0256  0.1276 -0.0550
  672OCO     PC 1343   4.256   2.542   6.325  0.1146  0.0114 -0.4088
  672OCO      C 1344   4.362   2.808   6.718  0.2635 -0.1131  0.0528
  673OCO     PC 1345   4.139   2.682   4.615 -0.1229  0.0320 -0.0987
  673OCO      C 1346   4.170   2.815   5.063  0.2437 -0.2351 -0.1266
  674OCO     PC 1347   6.726   3.072   5.853 -0.1744  0.2070  0.0878
  674OCO      C 1348   6.461   2.753   5.835  0.1520  0.2056 -0.1081
  675OCO     PC 1349   0.035   1.597   1.226  0.1324  0.0801 -0.1076
  675OCO      C 1350  -0.390   1.412   1.264 -0.1518 -0.2833 -0.1642
  676OCO     PC 1351   6.073   4.884   0.163 -0.1205 -0.2058 -0.3011
  676OCO      C 1352   5.688   4.575   0.239 -0.2048 -0.3138 -0.2656
  677OCO     PC 1353   4.347   3.280   5.201  0.0726  0.0550  0.1302
  677OCO      C 1354   4.763   3.454   5.181 -0.2903  0.1619  0.2422
  678OCO     PC 1355   1.993   6.136   5.525 -0.2595  0.0131 -0.1146
  678OCO      C 1356   1.512   6.316   5.617  0.0826 -0.0891 -0.0975
  679OCO     PC 1357   0.794   5.455   5.830 -0.2342 -0.0551 -0.1512
  679OCO      C 1358   0.654   5.862   5.940 -0.0298 -0.0013  0.0841
  680OCO     PC 1359   6.644   5.188   4.049  0.2490 -0.1128 -0.0212
  680OCO      C 1360   6.946   5.377   4.232 -0.2680  0.1374  0.3098
  681OCO     PC 1361   5.019   5.988   3.061  0.1125  0.0339  0.3235
  681OCO      C 1362   4.933   5.880   2.655 -0.0307 -0.3503 -0.0247
  682OCO     PC 1363   0.822   4.989   5.536 -0.1673  0.0041 -0.1664
  682OCO      C 1364   0.554   4.784   5.352 -0.0410  0.0269  0.0856
  683OCO     PC 1365   1.861   5.682   5.700 -0.0706 -0.1502  0.1224
  683OCO      C 1366   1.476   5.603   5.410  0.1377 -0.2197  0.5380
  684OCO     PC 1367   0.089   3.913   3.106 -0.0691 -0.1179 -0.1976
  684OCO      C 1368  -0.123   4.306   2.937  0.2697 -0.2367 -0.1802
  685OCO     PC 1369   1.005   2.941   4.958 -0.2276 -0.0563  0.0173
  685OCO      C 1370   1.073   2.512   5.058 -0.1379  0.0198 -0.1166
  686OCO     PC 1371   5.682   1.299   5.238  0.1891  0.0597 -0.0915
  686OCO      C 1372   5.924   1.597   4.949 -0.0239 -0.1683  0.1095
  687OCO     PC 1373   1.973   1.880   3.450 -0.0247 -0.1997  0.1128
  687OCO      C 1374   1.660   1.881   3.739  0.1560 -0.1731  0.0038
  688OCO     PC 1375   1.510   1.907   1.671  0.0023  0.0798 -0.1623
  688OCO      C 1376   1.467   2.321   1.670  0.0252  0.1134  0.0786
  689OCO     PC 1377   2.957   3.749   3.361  0.1234 -0.2531 -0.2722
  689OCO      C 1378   3.173   3.920   3.737  0.0364 -0.0332 -0.0715
  690OCO     PC 1379   3.786   6.007   5.580  0.1311  0.1596  0.1740
  690OCO      C 1380   4.242   6.089   5.536  0.4479 -0.3367 -0.3060
  691OCO     PC 1381   1.743   3.125   1.452  0.1506  0.0143 -0.3389
  691OCO      C 1382   2.002   2.765   1.349 -0.0267  0.4816 -0.1166
  692OCO     PC 1383   3.558   4.985   5.683 -0.5321  0.1096 -0.0508
  692OCO      C 1384   3.881   4.840   5.469 -0.1350  0.0248 -0.1323
  693OCO     PC 1385   2.530   6.111   4.307 -0.0113 -0.0708  0.0507
  693OCO      C 1386   2.719   5.854   4.550 -0.2241 -0.1128 -0.3883
  694OCO     PC 1387   0.926   4.187   4.743  0.0298  0.0736 -0.0377
  694OCO      C 1388   1.048   4.453   4.375 -0.0748  0.2883  0.2393
  695OCO     PC 1389   6.323   1.193   4.225  0.1638 -0.1322 -0.0070
  695OCO      C 1390   6.632   1.497   4.416 -0.0415 -0.0567  0.0869
  696OCO     PC 1391   6.782   3.282   0.979  0.3581  0.0887 -0.0180
  696OCO      C 1392   7.058   3.540   1.133  0.3900 -0.2256 -0.2083
  697OCO     PC 1393   4.227   5.784   3.010 -0.0906  0.0507  0.1370
  697OCO      C 1394   4.620   5.658   3.172  0.0533 -0.1521 -0.2807
  698OCO     PC 1395   5.839   2.516   6.221  0.2276 -0.1067 -0.0943
  698OCO      C 1396   6.172   2.317   6.131  0.0147 -0.3319  0.1407
  699OCO     PC 1397   4.888   0.106   1.089 -0.0764  0.2463 -0.1735
  699OCO      C 1398   4.513   0.040   1.289  0.3907  0.0930 -0.2032
  700OCO     PC 1399   5.182   3.860   2.309  0.1336  0.0410  0.0393
  700OCO      C 1400   5.117   3.675   2.637  0.1111 -0.1634  0.0238
  701OCO     PC 1401   3.431   4.967   3.773  0.0337 -0.1636 -0.1170
  701OCO      C 1402   3.080   4.880   3.605 -0.0786  0.1810 -0.1167
  702OCO     PC 1403   2.879   2.030   3.111  0.0732 -0.1443  0.0982
  702OCO      C 1404   2.866   1.629   2.831 -0.2643 -0.2216  0.0862
  703OCO     PC 1405   6.783   1.962   0.915  0.0113  0.0505 -0.2780
  703OCO      C 1406   6.796   1.955   0.409  0.0919 -0.1753  0.1173
  704OCO     PC 1407   0.590   4.008   1.164  0.1020 -0.2249 -0.0933
  704OCO      C 1408   0.768   3.696   1.012 -0.0024  0.1140 -0.1005
  705OCO     PC 1409   3.214   0.579   4.352 -0.1365  0.0654 -0.0507
  705OCO      C 1410   3.131   0.339   4.043 -0.2193  0.0290  0.1240
  706OCO     PC 1411   1.290   6.258   0.640 -0.1468  0.1007  0.1543
  706OCO      C 1412   1.710   6.058   0.494 -0.2380  0.0666  0.2249
  707OCO     PC 1413   3.541   5.715   5.941 -0.1755 -0.1249  0.1957
  707OCO      C 1414   3.412   6.120   6.021  0.1222 -0.3116 -0.3599
  708OCO     PC 1415   1.663   6.281   1.605 -0.0591 -0.2731  0.0662
  708OCO      C 1416   1.996   6.370   1.392 -0.1090 -0.0366  0.0043
  709OCO     PC 1417   5.490   5.858   1.481  0.2086 -0.1568  0.1580
  709OCO      C 1418   5.213   6.189   1.400 -0.0309  0.0052  0.1410
  710OCO     PC 1419   3.960   2.553   3.341 -0.0014 -0.1922 -0.1395
  710OCO      C 1420   4.292   2.285   3.401  0.2065 -0.2204 -0.0753
  711OCO     PC 1421   1.748   6.012   1.045 -0.1131  0.1463 -0.1137
  711OCO      C 1422   1.548   5.792   1.417 -0.1434 -0.0474 -0.1617
  712OCO     PC 1423   4.722   4.899   0.304 -0.1888  0.1323  0.1242
  712OCO      C 1424   4.424   4.931   0.046 -0.2384 -0.0571  0.1333
  713OCO     PC 1425   6.317   3.312   1.160 -0.0373  0.2342  0.2652
  713OCO      C 1426   6.010   3.514   1.028  0.2234 -0.0333  0.0832
  714OCO     PC 1427   2.724   3.224   6.311 -0.0656  0.3567  0.1118
  714OCO      C 1428   2.540   3.663   6.151 -0.3740  0.1184 -0.2049
  715OCO     PC 1429   4.468   3.201   0.877  0.0001 -0.2843  0.0417
  715OCO      C 1430   4.839   3.138   0.932 -0.1393 -0.3108 -0.0982
  716OCO     PC 1431   0.870   4.598   1.506 -0.1346  0.1937 -0.0091
  716OCO      C 1432   0.948   4.221   1.870  0.0053 -0.3119  0.1396
  717OCO     PC 1433   6.800   4.015   3.681  0.3846  0.5077  0.0184
  717OCO      C 1434   6.432   4.138   3.941 -0.0438 -0.1046 -0.0572
  718OCO     PC 1435   6.261   1.263   0.071 -0.3821  0.0004  0.0442
  718OCO      C 1436   5.980   1.644   0.086  0.0694  0.3195  0.3549
  719OCO     PC 1437   4.742   5.928   1.380 -0.0727 -0.0441  0.3658
  719OCO      C 1438   4.815   5.484   1.467 -0.0934  0.0250  0.1221
  720OCO     PC 1439   6.581   1.886   1.393 -0.1169  0.1120 -0.1322
  720OCO      C 1440   6.312   2.241   1.204 -0.1456  0.0813 -0.0185
  721OCO     PC 1441   0.176   1.025   1.204 -0.2387  0.2757  0.0090
  721OCO      C 1442  -0.157   0.851   1.111  0.0958 -0.1341 -0.1142
  722OCO     PC 1443   6.747   4.278   4.531 -0.4436  0.1269  0.1891
  722OCO      C 1444   6.502   4.556   4.284 -0.1923  0.1016 -0.0629
  723OCO     PC 1445   1.916   4.644   5.482  0.0266  0.2921  0.0952
  723OCO      C 1446   1.773   4.774   5.008  0.2405  0.0365  0.2565
  724OCO     PC 1447   1.544   4.115   3.287  0.2482  0.1079  0.0590
  724OCO      C 1448   1.644   3.783   3.590 -0.0139  0.0231 -0.0115
  725OCO     PC 1449   0.890   0.705   2.305 -0.1831  0.1601 -0.1408
  725OCO      C 1450   1.163   0.747   2.612  0.0463  0.0457 -0.1371
  726OCO     PC 1451   2.287   5.554   1.052  0.0447  0.0262 -0.0633
  726OCO      C 1452   2.508   5.220   1.243 -0.0727 -0.2515  0.3190
  727OCO     PC 1453   2.542   5.894   6.329  0.0404  0.0666  0.0992
  727OCO      C 1454   2.786   5.459   6.357  0.1481 -0.1389  0.0763
  728OCO     PC 1455   4.027   4.638   2.357  0.0928 -0.3869  0.2253
  728OCO      C 1456   4.255   4.220   2.406 -0.1996 -0.0612  0.1957
  729OCO     PC 1457   3.714   1.347   4.566  0.0333 -0.0178  0.0054
  729OCO      C 1458   3.954   1.570   4.198 -0.3081  0.1488 -0.1142
  730OCO     PC 1459   5.883   3.465   1.839 -0.1659  0.1014  0.0923
  730OCO      C 1460   5.950   3.840   2.133  0.0284  0.0051 -0.2491
  731OCO     PC 1461   6.350   1.845   6.113  0.0607  0.0042 -0.0813
  731OCO      C 1462   6.601   1.904   5.756 -0.0263  0.2011  0.2982
  732OCO     PC 1463   3.849   0.967   1.838 -0.0170  0.0303  0.0662
  732OCO      C 1464   4.089   1.303   1.564 -0.1141 -0.1679 -0.0599
  733OCO     PC 1465   4.955   3.928   3.008  0.2091 -0.0659  0.2049
  733OCO      C 1466   4.896   3.585   3.244  0.1592 -0.0618 -0.4107
  734OCO     PC 1467   5.957   5.892   0.368  0.1062 -0.0394  0.2558
  734OCO      C 1468   5.749   6.200   0.077 -0.2253 -0.1588  0.1748
  735OCO     PC 1469   0.368   4.378   2.834 -0.0616 -0.0255  0.0577
  735OCO      C 1470   0.620   4.674   2.570  0.2005 -0.1654  0.1684
  736OCO     PC 1471   0.732   0.805   5.863  0.0224  0.0056 -0.0309
  736OCO      C 1472   0.921   0.832   5.481  0.1515 -0.1241  0.0886
  737OCO     PC 1473   5.324   6.176   3.977  0.1600 -0.0334 -0.2258
  737OCO      C 1474   4.853   6.199   3.915 -0.0601  0.0252  0.1003
  738OCO     PC 1475   6.719   1.663   2.296 -0.2505  0.1597 -0.1805
  738OCO      C 1476   6.292   1.806   2.228  0.3979 -0.0402 -0.0107
  739OCO     PC 1477   3.555   3.466   5.066  0.0688 -0.4757 -0.1344
  739OCO      C 1478   3.813   3.230   5.315 -0.3002  0.0884 -0.2868
  740OCO     PC 1479   5.222   2.892   4.977  0.0769 -0.1667 -0.3003
  740OCO      C 1480   5.246   3.336   4.892  0.1622  0.0841 -0.5668
  741OCO     PC 1481   2.382   2.512   3.470  0.2858  0.0317 -0.0591
  741OCO      C 1482   2.474   2.906   3.147  0.0616 -0.1142  0.2888
  742OCO     PC 1483   1.825   3.019   4.054  0.0866 -0.0507  0.0587
  742OCO      C 1484   2.136   2.919   4.345 -0.0224  0.2426  0.0969
  743OCO     PC 1485   1.602   4.996   1.278 -0.1515 -0.3760  0.1608
  743OCO      C 1486   1.780   5.441   1.626  0.1145 -0.0767 -0.0481
  744OCO     PC 1487   0.473   1.072   5.496 -0.2914 -0.0174  0.2465
  744OCO      C 1488   0.242   1.409   5.334 -0.3012  0.1940 -0.0736
  745OCO     PC 1489   0.762   1.406   5.716 -0.1219 -0.0850 -0.1030
  745OCO      C 1490   0.608   1.763   5.489  0.3939  0.0716 -0.0818
  746OCO     PC 1491   0.883   4.537   5.082 -0.1456  0.0607 -0.3952
  746OCO      C 1492   0.902   4.402   5.510  0.5012 -0.1907 -0.1884
  747OCO     PC 1493   1.090   3.133   0.236 -0.1799 -0.2120 -0.1754
  747OCO      C 1494   0.823   3.146  -0.198  0.0216 -0.1099 -0.1587
  748OCO     PC 1495   0.400   4.486   1.255  0.2761  0.0083  0.2614
  748OCO      C 1496   0.744   4.518   1.027 -0.2474  0.1400  0.4070
  749OCO     PC 1497   4.568   6.172   2.928 -0.0905 -0.0020  0.0388
  749OCO      C 1498   4.911   6.406   2.737  0.0404 -0.0948 -0.2316
  750OCO     PC 1499   2.640   6.318   4.856 -0.1319  0.0352  0.1343
  750OCO      C 1500   2.154   6.257   4.794  0.2242 -0.1395  0.1985
  751OCO     PC 1501   5.344   5.236   5.445 -0.1346 -0.1758 -0.1456
  751OCO      C 1502   5.151   5.468   4.964  0.0477 -0.0406 -0.4405
  752OCO     PC 1503   2.210   5.696   1.587 -0.3350  0.2938 -0.0605
  752OCO      C 1504   2.316   6.008   1.227 -0.1632 -0.1439  0.3099
  753OCO     PC 1505   5.182   4.638   4.093  0.2741 -0.0408  0.1851
  753OCO      C 1506   5.391   4.246   3.944 -0.0357  0.3969 -0.0197
  754OCO     PC 1507   6.261   4.330   0.957  0.3042  0.3335 -0.0888
  754OCO      C 1508   6.077   4.594   0.654 -0.2399  0.1825 -0.2355
  755OCO     PC 1509   1.993   5.027   0.939  0.0088 -0.0612 -0.0991
  755OCO      C 1510   2.103   4.746   1.283  0.0507  0.1487  0.1798
  756OCO     PC 1511   3.710   1.140   2.567 -0.0978  0.0118  0.1411
  756OCO      C 1512   3.496   0.889   2.665  0.0990 -0.0444  0.0731
  757OCO     PC 1513   5.276   0.028   3.526  0.0305 -0.0618 -0.1015
  757OCO      C 1514   4.850   0.077   3.337  0.2066 -0.1120 -0.0803
  758OCO     PC 1515   4.535   6.161   4.511 -0.1011  0.0439 -0.1219
  758OCO      C 1516   4.436   6.449   4.252  0.1895  0.1123  0.0230
  759OCO     PC 1517   1.783   2.348   3.295 -0.2054  0.1876  0.3440
  759OCO      C 1518   1.407   2.296   3.535 -0.3098  0.1908 -0.2502
  760OCO     PC 1519   4.182   1.319   2.529  0.0744 -0.1416 -0.0724
  760OCO      C 1520   4.606   1.318   2.658 -0.2730  0.1485 -0.0812
  761OCO     PC 1521   6.148   0.051   1.695  0.2762 -0.0236 -0.2536
  761OCO      C 1522   6.025  -0.356   1.724 -0.3465 -0.0633  0.0421
  762OCO     PC 1523   0.659   0.141   3.118 -0.0564  0.0749 -0.0437
  762OCO      C 1524   1.136   0.159   3.167  0.0173  0.1492  0.3086
  763OCO     PC 1525   6.518   2.334   0.688 -0.1082 -0.1561 -0.2230
  763OCO      C 1526   6.134   2.256   0.707  0.1140 -0.3534 -0.1722
  764OCO     PC 1527   1.493   3.252   3.706 -0.2735  0.0743  0.1489
  764OCO      C 1528   1.040   3.001   3.694 -0.1597 -0.5030 -0.2470
  765OCO     PC 1529   1.653   0.168   1.055  0.1604 -0.3069 -0.1810
  765OCO      C 1530   1.401   0.330   1.451  0.0698  0.2354 -0.3082
  766OCO     PC 1531   4.095   3.867   5.689  0.2770 -0.3565 -0.1327
  766OCO      C 1532   4.471   3.631   5.518 -0.1856 -0.0584  0.6620
  767OCO     PC 1533   5.795   6.380   3.836 -0.0742 -0.2559  0.0509
  767OCO      C 1534   5.887   6.815   3.842 -0.0067  0.0832  0.2574
  768OCO     PC 1535   0.619   3.840   0.245 -0.0388  0.0027 -0.0483
  768OCO      C 1536   0.938   3.658   0.466  0.0977  0.1835 -0.0253
  769OCO     PC 1537   2.917   3.667   2.857 -0.3179 -0.1024  0.1114
  769OCO      C 1538   2.877   3.778   2.438 -0.3113  0.4106 -0.3198
  770OCO     PC 1539   4.775   4.944   1.444 -0.0604  0.1595 -0.1960
  770OCO      C 1540   4.919   4.679   1.777  0.1171  0.4090 -0.1101
  771OCO     PC 1541   3.764   1.337   3.178 -0.1734 -0.0343  0.0529
  771OCO      C 1542   3.865   1.637   2.866 -0.1867 -0.2730  0.1556
  772OCO     PC 1543   0.454   3.561   0.686 -0.0733  0.2353  0.0111
  772OCO      C 1544   0.069   3.309   0.548 -0.4083 -0.0355 -0.1700
  773OCO     PC 1545   0.291   4.075   2.469 -0.1419  0.3426 -0.2013
  773OCO      C 1546   0.140   4.386   2.354  0.1077  0.0491 -0.3092
  774OCO     PC 1547   5.700   2.543   1.903  0.0588 -0.1956 -0.0572
  774OCO      C 1548   5.834   2.283   1.567 -0.3762 -0.1969 -0.2007
  775OCO     PC 1549   0.516   4.582   5.914  0.4612  0.2244 -0.1515
  775OCO      C 1550   0.430   4.276   5.607 -0.3604 -0.2035 -0.1896
  776OCO     PC 1551   2.931   0.490   3.532  0.0513  0.2017 -0.0595
  776OCO      C 1552   2.625   0.611   3.274  0.0108 -0.1704  0.0251
  777OCO     PC 1553   4.664   0.722   6.060  0.2974  0.1710 -0.3568
  777OCO      C 1554   4.413   0.709   5.681 -0.1169  0.3838  0.0576
  778OCO     PC 1555   3.107   6.061   1.304 -0.0383  0.0018 -0.1087
  778OCO      C 1556   3.600   6.244   1.372  0.0818 -0.0180  0.2799
  779OCO     PC 1557   5.596   4.178   2.217 -0.2481  0.2304  0.2943
  779OCO      C 1558   5.994   4.302   2.371 -0.0423  0.1183 -0.4195
  780OCO     PC 1559   0.248   3.633   4.556  0.0464  0.3028 -0.0794
  780OCO      C 1560   0.299   4.059   4.423 -0.2281  0.1652  0.3218
  781OCO     PC 1561   6.293   2.459   1.625 -0.4063 -0.1107  0.1982
  781OCO      C 1562   6.452   2.910   1.702  0.1742  0.2256  0.2610
  782OCO     PC 1563   3.500   5.625   2.346  0.2604 -0.0345  0.0680
  782OCO      C 1564   3.672   5.658   1.966 -0.0160  0.1717 -0.3315
  783OCO     PC 1565   0.904   5.848   0.472  0.1291  0.0737  0.1049
  783OCO      C 1566   1.120   5.810  -0.003  0.1603 -0.0920 -0.1906
  784OCO     PC 1567   3.144   1.362   4.966  0.1474  0.5556 -0.2989
  784OCO      C 1568   3.399   1.413   5.335 -0.0348  0.3279 -0.0551
  785OCO     PC 1569   3.082   1.432   1.472  0.2323 -0.1395 -0.3758
  785OCO      C 1570   3.325   1.746   1.253  0.1033  0.0147 -0.1585
  786OCO     PC 1571   1.040   5.777   2.108 -0.1080 -0.1299  0.0962
  786OCO      C 1572   1.160   5.944   1.700  0.1772  0.2285 -0.2882
  787OCO     PC 1573   0.727   1.387   3.134  0.2210  0.1037 -0.2430
  787OCO      C 1574   1.052   1.608   3.150  0.2850  0.1418 -0.1890
  788OCO     PC 1575   0.392   3.112   0.946  0.1648 -0.0571  0.1945
  788OCO      C 1576   0.024   2.781   0.905 -0.2765  0.1748 -0.0122
  789OCO     PC 1577   5.012   4.951   2.497 -0.1548  0.0972  0.1311
  789OCO      C 1578   4.775   4.625   2.298 -0.0398  0.2460 -0.0399
  790OCO     PC 1579   2.484   1.883   5.002 -0.0286 -0.4531 -0.0809
  790OCO      C 1580   2.602   2.290   5.058 -0.2207  0.2185  0.1326
  791OCO     PC 1581   2.036   3.119   4.853 -0.0815  0.1395  0.0560
  791OCO      C 1582   1.951   2.722   5.091 -0.2842  0.1269 -0.1105
  792OCO     PC 1583   5.019   4.897   5.616 -0.2559 -0.1731  0.1045
  792OCO      C 1584   5.172   5.188   5.939  0.0677  0.1677 -0.0147
  793OCO     PC 1585   3.787   0.640   0.012 -0.2675 -0.4151  0.1209
  793OCO      C 1586   3.922   0.854   0.299 -0.0249 -0.1482 -0.0234
  794OCO     PC 1587   5.585   5.821   3.699  0.0330 -0.1014  0.2378
  794OCO      C 1588   5.463   5.886   3.295  0.0556 -0.1922 -0.0163
  795OCO     PC 1589   0.299   3.783   5.442 -0.0841  0.2938  0.1445
  795OCO      C 1590   0.555   3.535   5.710 -0.1319 -0.0403 -0.0539
  796OCO     PC 1591   0.210   0.181   2.388 -0.0106 -0.1141  0.1457
  796OCO      C 1592  -0.205   0.171   2.561  0.3827 -0.0931  0.0298
  797OCO     PC 1593   1.235   1.973   4.173 -0.1659 -0.2024  0.2573
  797OCO      C 1594   1.134   1.943   3.744 -0.2073 -0.2625 -0.0209
  798OCO     PC 1595   3.519   0.647   5.519  0.1125 -0.0067  0.2232
  798OCO      C 1596   3.661   0.775   5.044  0.2328 -0.2529 -0.1115
  799OCO     PC 1597   4.144   4.320   2.949 -0.0040 -0.0066 -0.1889
  799OCO      C 1598   4.392   4.627   2.763  0.1221  0.1866  0.1068
  800OCO     PC 1599   3.571   4.257   1.218  0.0541 -0.1191 -0.1358
  800OCO      C 1600   3.331   3.950   1.348 -0.4205 -0.0521 -0.0612
  801OCO     PC 1601   6.230   1.859   3.160  0.0170 -0.1089  0.1741
  801OCO      C 1602   5.974   2.282   2.956  0.1328  0.1268  0.4228
  802OCO     PC 1603   0.692   4.784   4.565 -0.0829 -0.0422 -0.4172
  802OCO      C 1604   0.446   4.459   4.766 -0.1679 -0.0236 -0.1195
  803OCO     PC 1605   4.087   5.164   5.210 -0.0724 -0.0543  0.2137
  803OCO      C 1606   3.923   5.570   4.922  0.0333  0.0769 -0.0663
  804OCO     PC 1607   2.233   1.480   1.502 -0.0310 -0.1316 -0.0053
  804OCO      C 1608   2.083   1.028   1.471  0.1210  0.0611 -0.0238
  805OCO     PC 1609   4.660   4.654   4.093 -0.0518 -0.0164  0.0762
  805OCO      C 1610   4.492   4.481   4.392  0.0293  0.0005 -0.2444
  806OCO     PC 1611   0.209   2.263   4.977  0.0992 -0.0461  0.0567
  806OCO      C 1612   0.126   1.929   5.302 -0.2232 -0.2049  0.0267
  807OCO     PC 1613   3.362   4.452   3.087 -0.2508 -0.0541 -0.1880
  807OCO      C 1614   2.931   4.216   3.259 -0.0370  0.0549 -0.0460
  808OCO     PC 1615   4.000   3.736   5.239  0.0620 -0.1123 -0.0712
  808OCO      C 1616   4.387   3.872   5.078 -0.1236 -0.3779  0.1299
  809OCO     PC 1617   4.199   2.439   5.836 -0.0124 -0.1642  0.0924
  809OCO      C 1618   4.342   2.007   5.527  0.0231 -0.2108  0.0113
  810OCO     PC 1619   5.856   0.956   5.655 -0.0340  0.0536  0.0058
  810OCO      C 1620   5.657   0.798   5.344  0.2295  0.0194 -0.0170
  811OCO     PC 1621   2.278   3.268   5.369 -0.0896  0.3753  0.4574
  811OCO      C 1622   2.197   3.680   5.517 -0.2205  0.3126  0.4864
  812OCO     PC 1623   5.683   4.380   3.393  0.1083  0.0395  0.1877
  812OCO      C 1624   5.849   4.561   3.741  0.0512 -0.2079 -0.0640
  813OCO     PC 1625   0.281   2.004   3.712 -0.2325 -0.0340  0.1446
  813OCO      C 1626   0.692   2.229   3.679 -0.0147  0.0653  0.2897
  814OCO     PC 1627   3.231   1.736   4.139 -0.0487 -0.0092  0.1695
  814OCO      C 1628   3.248   2.031   4.467  0.0285 -0.1460 -0.1957
  815OCO     PC 1629   1.226   1.182   1.125 -0.2333  0.0065  0.0759
  815OCO      C 1630   1.003   0.868   1.353 -0.1867  0.1783 -0.0256
  816OCO     PC 1631   6.518   4.806   0.554 -0.1269  0.0816  0.1294
  816OCO      C 1632   6.399   4.477   0.269  0.1380 -0.1019 -0.2039
  817OCO     PC 1633   5.612   3.653   0.688  0.0236  0.2288 -0.2387
  817OCO      C 1634   5.360   3.418   0.357  0.0198  0.0289 -0.4481
  818OCO     PC 1635   1.126   5.121   3.829 -0.1591 -0.1912 -0.1678
  818OCO      C 1636   1.180   5.531   3.666 -0.1048  0.0340 -0.1174
  819OCO     PC 1637   1.199   0.756   6.076 -0.3155 -0.1111 -0.0343
  819OCO      C 1638   0.959   0.441   6.218 -0.0119  0.0099 -0.1387
  820OCO     PC 1639   3.539   6.360   0.855 -0.0717  0.0270 -0.1027
  820OCO      C 1640   3.718   6.110   0.494  0.2663  0.2967 -0.3726
  821OCO     PC 1641   2.633   0.039   5.577  0.0018 -0.1710 -0.1482
  821OCO      C 1642   2.103   0.251   5.617 -0.1709 -0.0510 -0.1225
  822OCO     PC 1643   5.643   0.790   0.975  0.0681 -0.0322 -0.2598
  822OCO      C 1644   5.947   1.118   1.008 -0.2865  0.1073 -0.0205
  823OCO     PC 1645   3.781   5.524   5.468 -0.1099 -0.1193  0.2444
  823OCO      C 1646   3.743   5.297   5.930  0.0436 -0.0951 -0.0450
  824OCO     PC 1647   4.605   5.160   5.288  0.0172  0.0016  0.1017
  824OCO      C 1648   4.872   5.459   5.529 -0.1948  0.0152 -0.1174
  825OCO     PC 1649   0.622   3.794   4.870 -0.3156  0.2609  0.0129
  825OCO      C 1650   0.568   4.126   5.161  0.0464 -0.0187 -0.0078
  826OCO     PC 1651   0.783   5.551   1.715  0.0992 -0.0539  0.1559
  826OCO      C 1652   1.035   5.250   1.620  0.1197  0.2447 -0.0956
  827OCO     PC 1653   4.007   1.232   0.587 -0.2569 -0.1885 -0.2264
  827OCO      C 1654   3.937   1.523   0.274 -0.0640 -0.0575  0.0916
  828OCO     PC 1655   6.587   2.299   5.166 -0.0423  0.0388  0.0529
  828OCO      C 1656   6.338   2.389   5.553  0.1694 -0.0882 -0.1073
  829OCO     PC 1657   6.566   4.183   4.977 -0.0723 -0.1933  0.2328
  829OCO      C 1658   6.585   3.795   4.691  0.0317 -0.2054  0.0126
  830OCO     PC 1659   3.519   5.953   4.103  0.4913 -0.1217 -0.1777
  830OCO      C 1660   3.792   5.931   3.814  0.1076  0.0386  0.2338
  831OCO     PC 1661   3.446   2.580   0.651 -0.0205 -0.1011 -0.0257
  831OCO      C 1662   3.268   2.296   1.027 -0.1396  0.0486  0.2290
  832OCO     PC 1663   2.577   1.120   0.524 -0.1327 -0.2299 -0.1048
  832OCO      C 1664   2.715   0.863   0.176  0.3220 -0.3674 -0.0809
  833OCO     PC 1665   0.987   4.030   3.153  0.0161 -0.2422  0.0312
  833OCO      C 1666   1.098   4.078   3.503 -0.1298  0.0933 -0.1668
  834OCO     PC 1667   2.387   3.374   3.079 -0.2434  0.1133 -0.0902
  834OCO      C 1668   2.253   3.178   2.705  0.0869 -0.0511  0.3571
  835OCO     PC 1669   3.481   4.409   0.728  0.0399  0.0351  0.0471
  835OCO      C 1670   3.257   4.731   0.582  0.1152 -0.0381  0.0890
  836OCO     PC 1671   1.693   1.798   0.436 -0.2588 -0.1731  0.1902
  836OCO      C 1672   2.028   2.030   0.404 -0.1848 -0.1663 -0.0273
  837OCO     PC 1673   2.123   1.123   4.844 -0.0006  0.0053  0.0291
  837OCO      C 1674   2.308   0.719   5.171 -0.1642  0.5183  0.0826
  838OCO     PC 1675   3.142   2.439   1.932  0.1566 -0.3758  0.1499
  838OCO      C 1676   2.985   1.970   1.930  0.1231  0.0002  0.0046
  839OCO     PC 1677   2.729   1.644   3.977 -0.1055  0.1517  0.0459
  839OCO      C 1678   2.991   1.290   4.004 -0.1657  0.0289 -0.2922
  840OCO     PC 1679   6.069   0.695   0.147 -0.1196 -0.2005 -0.2515
  840OCO      C 1680   5.981   0.917   0.496 -0.1305  0.2350 -0.4070
  841OCO     PC 1681   0.159   2.593   4.547 -0.2702 -0.2007 -0.2297
  841OCO      C 1682  -0.148   2.237   4.623 -0.0287 -0.1655  0.0532
  842OCO     PC 1683   5.361   2.184   3.022 -0.4515 -0.2386 -0.1953
  842OCO      C 1684   5.294   2.309   3.403 -0.1739 -0.2159 -0.1363
  843OCO     PC 1685   4.413   0.837   3.975  0.4750 -0.1038  0.2548
  843OCO      C 1686   4.103   0.397   3.775 -0.2521  0.0126 -0.0153
  844OCO     PC 1687   2.058   4.227   1.241 -0.2754 -0.2701  0.2005
  844OCO      C 1688   1.837   3.968   1.601 -0.0781 -0.2997  0.3249
  845OCO     PC 1689   5.950   1.089   1.492 -0.0284  0.2104  0.1757
  845OCO      C 1690   5.599   1.002   1.424  0.0019  0.1079  0.1692
  846OCO     PC 1691   4.917   1.930   3.735  0.1031 -0.2722  0.0979
  846OCO      C 1692   4.693   1.853   3.362  0.0389  0.2142  0.2624
  847OCO     PC 1693   2.297   4.534   0.891 -0.1011  0.1905  0.1430
  847OCO      C 1694   2.461   4.962   0.775  0.2254 -0.1627  0.0958
  848OCO     PC 1695   5.364   5.452   0.502  0.1262  0.2256 -0.0682
  848OCO      C 1696   5.097   5.336   0.063 -0.0484  0.0515 -0.3004
  849OCO     PC 1697   4.033   0.858   2.361  0.2828  0.3770  0.1811
  849OCO      C 1698   3.946   0.844   2.848  0.0807 -0.1015  0.1614
  850OCO     PC 1699   2.929   3.028   0.528  0.0566  0.1646 -0.2065
  850OCO      C 1700   2.723   3.493   0.330 -0.0226  0.0447  0.4988
  851OCO     PC 1701   0.376   1.449   2.350 -0.1214  0.2535 -0.1377
  851OCO      C 1702   0.549   1.688   2.672 -0.0784 -0.1371 -0.1869
  852OCO     PC 1703   6.187   6.086   0.788 -0.3510 -0.0742 -0.0083
  852OCO      C 1704   6.065   6.349   0.463 -0.0393 -0.3101 -0.0984
  853OCO     PC 1705   4.238   2.641   2.112  0.0227  0.1326  0.2518
  853OCO      C 1706   4.115   2.851   1.773 -0.1483 -0.3300  0.2403
  854OCO     PC 1707   5.629   3.365   3.910  0.2012 -0.2609  0.1976
  854OCO      C 1708   5.634   2.970   3.793 -0.1065  0.0128  0.2541
  855OCO     PC 1709   5.034   6.016   5.956 -0.1341  0.0663  0.1958
  855OCO      C 1710   5.115   5.665   6.017  0.4597  0.0798  0.3000
  856OCO     PC 1711   6.207   3.164   5.935 -0.1693 -0.0316  0.1593
  856OCO      C 1712   6.362   3.059   5.521 -0.1338  0.1417  0.1867
  857OCO     PC 1713   0.107   4.814   3.969  0.0751  0.0158  0.2973
  857OCO      C 1714   0.312   4.793   3.554 -0.2008 -0.0802 -0.0264
  858OCO     PC 1715   3.987   6.012   1.970  0.3201 -0.1586 -0.1465
  858OCO      C 1716   4.020   6.008   1.483 -0.0587 -0.0759  0.0319
  859OCO     PC 1717   3.573   0.294   4.630  0.3495 -0.4076 -0.0867
  859OCO      C 1718   3.461   0.028   4.272  0.2667 -0.2630 -0.2013
  860OCO     PC 1719   6.028   0.532   5.296 -0.0860  0.0233 -0.0469
  860OCO      C 1720   5.596   0.426   5.764 -0.0811 -0.1034  0.1385
  861OCO     PC 1721   1.041   3.292   3.099 -0.1841  0.1005  0.4594
  861OCO      C 1722   1.156   3.537   3.432 -0.3024  0.2192  0.0960
  862OCO     PC 1723   6.272   4.132   6.113  0.1375 -0.1799 -0.2490
  862OCO      C 1724   6.118   4.086   6.568 -0.0664 -0.4553  0.0662
  863OCO     PC 1725   6.208   2.649   4.618  0.1173  0.1239  0.0384
  863OCO      C 1726   6.549   2.678   4.690 -0.0413  0.0032  0.1874
  864OCO     PC 1727   4.377   1.988   1.040  0.0657  0.2186 -0.2333
  864OCO      C 1728   4.013   2.155   1.006 -0.0146  0.1173 -0.1791
  865OCO     PC 1729   6.258   2.012   1.781 -0.0183 -0.2993 -0.1359
  865OCO      C 1730   5.970   2.185   2.080  0.2807  0.1924  0.1707
  866OCO     PC 1731   6.012   1.467   5.989  0.0173  0.0077 -0.1505
  866OCO      C 1732   6.440   1.401   5.874 -0.0128  0.3867 -0.0232
  867OCO     PC 1733   2.492   0.401   5.928 -0.0913  0.0629  0.0743
  867OCO      C 1734   2.060   0.377   6.195 -0.3209  0.0247  0.0114
  868OCO     PC 1735   5.060   2.052   2.363  0.1364  0.0114  0.2184
  868OCO      C 1736   5.222   1.566   2.278 -0.2447  0.2438  0.2469
  869OCO     PC 1737   2.120   2.145   4.810 -0.0326 -0.0155 -0.1377
  869OCO      C 1738   2.025   2.485   4.643 -0.2105  0.2559 -0.0787
  870OCO     PC 1739   6.191   6.235   2.145  0.2246  0.1789 -0.0214
  870OCO      C 1740   5.886   5.997   2.405 -0.2408 -0.0594  0.0445
  871OCO     PC 1741   5.026   3.117   5.940 -0.0180 -0.0252  0.3438
  871OCO      C 1742   5.343   3.242   6.237  0.0859 -0.1832 -0.1108
  872OCO     PC 1743   4.824   2.866   4.209  0.2148 -0.1323  0.2298
  872OCO      C 1744   5.122   3.142   4.082  0.0881 -0.1224 -0.0922
  873OCO     PC 1745   3.963   1.734   2.295 -0.0158 -0.2637 -0.1888
  873OCO      C 1746   3.554   1.555   2.433  0.1229 -0.5027  0.1888
  874OCO     PC 1747   5.960   4.176   4.041  0.2517 -0.3752  0.2067
  874OCO      C 1748   6.082   3.779   3.772 -0.3852  0.0707  0.2175
  875OCO     PC 1749   3.682   5.132   2.335  0.2264  0.1107  0.0546
  875OCO      C 1750   3.628   4.711   2.032  0.1263 -0.3016 -0.4285
  876OCO     PC 1751   0.503   0.888   4.201 -0.0268  0.3269  0.0216
  876OCO      C 1752   0.906   1.078   4.394  0.3097  0.2066  0.0884
  877OCO     PC 1753   1.386   2.593   5.830 -0.2417  0.1599 -0.0634
  877OCO      C 1754   1.764   2.257   5.854  0.0237 -0.3433 -0.0548
  878OCO     PC 1755   3.097   5.423   2.069  0.0762 -0.1691  0.1117
  878OCO      C 1756   3.145   5.824   1.773 -0.0568 -0.1412  0.4559
  879OCO     PC 1757   1.602   4.269   2.345  0.0045 -0.0109 -0.0420
  879OCO      C 1758   1.192   4.088   2.286  0.1284  0.2134 -0.1477
  880OCO     PC 1759   5.596   2.881   0.611 -0.1162  0.0159 -0.1086
  880OCO      C 1760   5.358   3.125   0.760  0.2663 -0.5132 -0.1588
  881OCO     PC 1761   2.020   4.422   3.445 -0.3785 -0.1432 -0.1508
  881OCO      C 1762   1.679   4.406   3.683  0.0148 -0.0237 -0.1636
  882OCO     PC 1763   0.317   0.540   3.425 -0.1534 -0.0410 -0.3756
  882OCO      C 1764   0.612   0.248   3.607  0.2506  0.2298  0.2291
  883OCO     PC 1765   5.750   4.058   6.246  0.3574  0.1180  0.2059
  883OCO      C 1766   5.494   3.743   6.137  0.2278  0.1949 -0.1563
  884OCO     PC 1767   3.906   2.070   3.146 -0.2232 -0.1553 -0.0077
  884OCO      C 1768   4.225   2.042   2.855 -0.0811 -0.0118 -0.2910
  885OCO     PC 1769   1.018   4.306   0.282 -0.2640 -0.0608  0.0404
  885OCO      C 1770   0.927   4.128   0.685  0.0214 -0.0883  0.0446
  886OCO     PC 1771   0.706   2.692   0.735 -0.2382 -0.1569 -0.0555
  886OCO      C 1772   0.862   2.595   0.378  0.0640  0.4807  0.0195
  887OCO     PC 1773   3.623   4.107   2.727 -0.0793 -0.3364 -0.0589
  887OCO      C 1774   3.358   3.832   2.975  0.3820 -0.1679  0.2112
  888OCO     PC 1775   4.024   5.751   4.364 -0.1166 -0.0941  0.0560
  888OCO      C 1776   3.971   6.157   4.258 -0.0386 -0.1374  0.0340
  889OCO     PC 1777   3.007   0.683   5.749  0.3368 -0.0948  0.2992
  889OCO      C 1778   2.673   0.477   5.426  0.0133 -0.0044  0.0576
  890OCO     PC 1779   6.227   4.310   2.946 -0.0109 -0.1236  0.1029
  890OCO      C 1780   5.902   4.140   2.870  0.2392 -0.0377 -0.0531
  891OCO     PC 1781   6.873   1.279   2.025  0.1471 -0.0761 -0.2149
  891OCO      C 1782   6.452   1.240   2.138 -0.0117 -0.0935 -0.1077
  892OCO     PC 1783   6.233   6.207   3.502  0.1070 -0.0399  0.1233
  892OCO      C 1784   5.823   6.199   3.370 -0.0211  0.0938  0.0501
  893OCO     PC 1785   0.595   3.194   0.357 -0.0099  0.0867 -0.0605
  893OCO      C 1786   0.353   2.788   0.436 -0.1443 -0.0236 -0.2083
  894OCO     PC 1787   2.445   1.278   2.665  0.2441 -0.1645 -0.1895
  894OCO      C 1788   2.542   1.206   2.241  0.0118 -0.2788 -0.1939
  895OCO     PC 1789   1.956   0.777   5.936  0.0144  0.0269  0.1087
  895OCO      C 1790   2.074   0.950   5.584 -0.0736 -0.2559 -0.0768
  896OCO     PC 1791   4.160   1.674   5.801  0.0709 -0.1246  0.1276
  896OCO      C 1792   4.537   1.444   5.970 -0.0693  0.0414  0.0942
  897OCO     PC 1793   1.511   5.317   3.371 -0.1723  0.3037  0.0884
  897OCO      C 1794   1.638   4.936   3.192 -0.2219  0.0394 -0.1079
  898OCO     PC 1795   2.499   1.190   4.128 -0.3537  0.0476  0.0971
  898OCO      C 1796   2.798   0.913   4.460 -0.1194  0.1233  0.2185
  899OCO     PC 1797   0.590   5.763   2.619 -0.1494  0.0655 -0.0313
  899OCO      C 1798   0.859   5.697   3.013  0.1369  0.1056  0.2835
  900OCO     PC 1799   4.007   2.035   0.261 -0.5097 -0.0984 -0.3547
  900OCO      C 1800   3.750   2.301   0.233 -0.1172 -0.3049 -0.0556
  901OCO     PC 1801   1.704   5.863   6.181 -0.0968 -0.2630 -0.1739
  901OCO      C 1802   1.353   6.222   6.116  0.4905 -0.3592 -0.3512
  902OCO     PC 1803   1.393   0.980   0.634 -0.2272 -0.2729 -0.0266
  902OCO      C 1804   1.700   0.633   0.690  0.1994  0.0383  0.0413
  903OCO     PC 1805   6.613   6.297   0.526 -0.0725  0.0389 -0.2724
  903OCO      C 1806   6.453   6.527   0.783  0.2840 -0.0036  0.0965
  904OCO     PC 1807   2.580   3.579   1.526 -0.0393  0.0519 -0.1002
  904OCO      C 1808   2.712   3.644   1.961  0.3727  0.3834 -0.1980
  905OCO     PC 1809   3.580   2.749   6.319 -0.0482 -0.1598 -0.0590
  905OCO      C 1810   3.917   2.889   5.996  0.3614 -0.1026  0.4107
  906OCO     PC 1811   0.905   0.531   2.933 -0.1722 -0.1058 -0.0028
  906OCO      C 1812   0.517   0.436   2.685 -0.2521  0.0021 -0.0547
  907OCO     PC 1813   5.459   1.118   4.791  0.1922  0.1024 -0.0853
  907OCO      C 1814   5.346   0.941   4.358  0.0896  0.0767 -0.0053
  908OCO     PC 1815   5.544   2.770   5.646 -0.4086  0.0884  0.0506
  908OCO      C 1816   6.007   2.764   5.685  0.0783  0.1316 -0.0184
  909OCO     PC 1817   4.638   3.184   5.611  0.2403 -0.2697  0.3211
  909OCO      C 1818   4.886   3.479   5.668  0.2775  0.4225 -0.0592
  910OCO     PC 1819   4.168   3.211   2.640 -0.0176  0.4298  0.0691
  910OCO      C 1820   4.205   3.351   2.251 -0.2902  0.2626  0.3984
  911OCO     PC 1821   1.652   5.952   5.140 -0.0938 -0.1362 -0.1770
  911OCO      C 1822   1.683   6.487   5.225 -0.2982  0.2163  0.2921
  912OCO     PC 1823   1.961   6.182   4.180 -0.3087  0.0223 -0.1801
  912OCO      C 1824   1.498   6.220   4.103  0.1569  0.0176 -0.4360
  913OCO     PC 1825   0.877   2.771   5.855  0.1740  0.1004 -0.4568
  913OCO      C 1826   0.867   3.131   5.658 -0.3448  0.0991 -0.0712
  914OCO     PC 1827   6.233   1.076   5.350  0.0561  0.0054 -0.0632
  914OCO      C 1828   6.141   1.387   5.439 -0.1949 -0.2122  0.2238
  915OCO     PC 1829   5.539   4.971   0.569 -0.2810 -0.3124  0.1239
  915OCO      C 1830   5.086   4.957   0.606 -0.1592 -0.2534  0.1066
  916OCO     PC 1831   2.140   2.801   5.640  0.6472  0.0126 -0.0263
  916OCO      C 1832   2.616   2.754   5.747  0.0380  0.0439  0.1000
  917OCO     PC 1833   6.479   4.720   2.675 -0.0379  0.2674 -0.1519
  917OCO      C 1834   6.646   4.706   2.235 -0.0703 -0.0156  0.0170
  918OCO     PC 1835   3.318   3.714   6.084  0.1647  0.0773  0.3386
  918OCO      C 1836   3.045   3.695   5.866  0.2987  0.0727 -0.2437
  919OCO     PC 1837   5.477   3.154   1.671 -0.0488  0.4101 -0.0691
  919OCO      C 1838   5.171   3.125   1.402  0.1001 -0.0421 -0.0454
  920OCO     PC 1839   2.944   4.526   5.765  0.0675 -0.1312  0.0231
  920OCO      C 1840   3.357   4.477   5.820 -0.0738  0.3889  0.3484
  921OCO     PC 1841   0.297   4.121   1.618 -0.2330  0.3582  0.0243
  921OCO      C 1842  -0.064   4.248   1.857  0.0419  0.1250 -0.0015
  922OCO     PC 1843   4.022   2.616   2.788 -0.0558 -0.0746  0.0701
  922OCO      C 1844   3.661   2.774   2.729 -0.1211 -0.1504 -0.0349
  923OCO     PC 1845   3.767   3.912   4.503 -0.0777 -0.0097 -0.2155
  923OCO      C 1846   4.005   3.643   4.768  0.2295 -0.1678  0.1123
  924OCO     PC 1847   1.792   3.891   4.539  0.2351 -0.2371 -0.0457
  924OCO      C 1848   1.245   3.940   4.441 -0.2866 -0.1319 -0.2169
  925OCO     PC 1849   2.572   4.086   4.285 -0.0874  0.3372 -0.1268
  925OCO      C 1850   2.270   3.800   4.222 -0.2693  0.0110  0.1445
  926OCO     PC 1851   4.598   2.607   5.454  0.0676 -0.1748 -0.2096
  926OCO      C 1852   4.752   2.936   5.144 -0.1470  0.1006  0.3923
  927OCO     PC 1853   4.451   3.612   3.847  0.2141  0.0286  0.0931
  927OCO      C 1854   4.429   3.928   4.193 -0.0714 -0.0942  0.0668
  928OCO     PC 1855   6.854   1.836   1.837 -0.1911 -0.0401 -0.0296
  928OCO      C 1856   6.539   1.571   1.828  0.2365  0.0746 -0.0983
  929OCO     PC 1857   1.186   4.576   2.510  0.0420 -0.0627 -0.0269
  929OCO      C 1858   1.289   4.788   2.879  0.0355 -0.1405  0.2310
  930OCO     PC 1859   3.877   0.608   5.903  0.0334  0.1391 -0.0032
  930OCO      C 1860   4.051   0.998   6.019 -0.1624  0.2726  0.1183
  931OCO     PC 1861   6.830   6.095   0.027  0.0622  0.5816  0.1297
  931OCO      C 1862   7.087   6.262   0.316  0.2788  0.2201  0.0828
  932OCO     PC 1863   2.625   4.500   1.265  0.1741 -0.0698  0.0132
  932OCO      C 1864   2.665   4.794   1.516  0.4149  0.1479 -0.0123
  933OCO     PC 1865   3.892   0.146   2.128 -0.1185  0.1381  0.1407
  933OCO      C 1866   4.122   0.097   1.791 -0.0199  0.0876  0.0325
  934OCO     PC 1867   3.303   4.502   3.945 -0.1367 -0.0601  0.1027
  934OCO      C 1868   3.457   4.487   3.568 -0.0391 -0.0878  0.1641
  935OCO     PC 1869   0.220   0.602   3.926  0.1324 -0.2356 -0.0363
  935OCO      C 1870   0.208   0.975   3.720 -0.2745  0.0695  0.0685
  936OCO     PC 1871   0.719   6.047   4.474 -0.2803  0.1277 -0.0738
  936OCO      C 1872   0.598   6.025   4.895 -0.0404 -0.3615 -0.0081
  937OCO     PC 1873   2.276   2.373   5.846  0.1444 -0.0656 -0.2675
  937OCO      C 1874   2.261   2.379   5.453 -0.0047 -0.0498  0.2780
  938OCO     PC 1875   6.160   2.180   4.842 -0.0956 -0.1011 -0.0904
  938OCO      C 1876   6.391   1.934   4.617  0.1228 -0.2402  0.4228
  939OCO     PC 1877   6.629   0.573   6.046 -0.1602 -0.0454 -0.1314
  939OCO      C 1878   7.124   0.599   6.056  0.2944  0.0670 -0.0379
  940OCO     PC 1879   2.562   2.870   0.235 -0.1442 -0.3464 -0.1215
  940OCO      C 1880   2.322   2.781  -0.139 -0.0594 -0.2659  0.3070
  941OCO     PC 1881   4.810   2.892   2.749 -0.1935 -0.3693  0.0752
  941OCO      C 1882   4.506   2.860   2.482  0.0681 -0.1017  0.2008
  942OCO     PC 1883   5.653   5.984   0.972  0.1600  0.2219 -0.0083
  942OCO      C 1884   5.565   5.602   0.991 -0.1058  0.1149  0.5042
  943OCO     PC 1885   2.664   0.784   0.908  0.1259  0.1175 -0.1472
  943OCO      C 1886   2.513   0.528   0.625 -0.0204 -0.0822  0.3153
  944OCO     PC 1887   6.385   4.923   5.217 -0.4693 -0.1791 -0.1529
  944OCO      C 1888   6.487   5.142   4.847 -0.5185 -0.5081  0.0101
  945OCO     PC 1889   0.248   1.979   5.779  0.1801  0.1039  0.0527
  945OCO      C 1890   0.125   1.553   5.781  0.2488 -0.1809 -0.2628
  946OCO     PC 1891   4.696   3.358   4.276 -0.0151 -0.3365  0.2867
  946OCO      C 1892   4.149   3.497   4.302 -0.0194  0.2134 -0.2472
  947OCO     PC 1893   3.801   5.224   0.121  0.1011  0.1867  0.2485
  947OCO      C 1894   4.189   5.351  -0.088 -0.3356 -0.2512  0.0467
  948OCO     PC 1895   3.885   3.091   3.058  0.2395  0.1802  0.0942
  948OCO      C 1896   4.321   3.363   3.146  0.1945  0.2934 -0.0788
  949OCO     PC 1897   2.806   5.640   5.158 -0.1914  0.0143 -0.1775
  949OCO      C 1898   2.454   5.318   4.951  0.1753  0.5170  0.0336
  950OCO     PC 1899   3.886   4.105   4.946  0.1337 -0.0411 -0.2800
  950OCO      C 1900   4.041   4.371   5.413  0.0829  0.0637  0.3056
  951OCO     PC 1901   3.381   4.907   6.323 -0.0644  0.4052 -0.0185
  951OCO      C 1902   3.633   4.872   6.126  0.2947  0.3131 -0.1796
  952OCO     PC 1903   4.710   4.034   0.416 -0.1978 -0.0231 -0.0332
  952OCO      C 1904   4.930   3.837   0.267 -0.1376  0.0276  0.6005
  953OCO     PC 1905   0.479   5.910   0.053 -0.0999 -0.1426  0.3206
  953OCO      C 1906   0.361   6.244  -0.292 -0.1836  0.0603 -0.0574
  954OCO     PC 1907   5.707   5.343   5.086 -0.1444 -0.0660 -0.0185
  954OCO      C 1908   5.467   5.043   4.950  0.1081  0.0227  0.0514
  955OCO     PC 1909   5.224   2.047   0.896 -0.1930 -0.2098 -0.0257
  955OCO      C 1910   5.258   1.651   0.636 -0.0560  0.0143  0.2604
  956OCO     PC 1911   1.480   0.436   4.020  0.0987  0.0014  0.1381
  956OCO      C 1912   1.766   0.325   4.397  0.1484 -0.1955  0.2975
  957OCO     PC 1913   4.923   1.878   2.849  0.0076  0.1594  0.1034
  957OCO      C 1914   4.632   1.794   2.550  0.1762  0.1152  0.2415
  958OCO     PC 1915   2.774   4.296   0.794  0.0052 -0.0308  0.6059
  958OCO      C 1916   2.765   4.680   0.513 -0.0295 -0.0554 -0.3776
  959OCO     PC 1917   5.639   4.199   5.256 -0.0832  0.2221  0.0831
  959OCO      C 1918   5.804   3.742   5.376 -0.0303  0.0526 -0.2394
  960OCO     PC 1919   3.317   4.699   4.490 -0.0195  0.2138 -0.1213
  960OCO      C 1920   3.116   4.879   4.865 -0.1433 -0.0053 -0.0238
  961OCO     PC 1921   0.953   0.916   3.244 -0.0112 -0.0989  0.2452
  961OCO      C 1922   1.007   0.536   3.456  0.2734  0.1977 -0.3328
  962OCO     PC 1923   6.244   3.473   5.307  0.2380  0.4236 -0.1640
  962OCO      C 1924   5.902   3.104   5.342 -0.2738  0.0077 -0.1598
  963OCO     PC 1925   5.398   2.320   6.035  0.1481  0.0664  0.0428
  963OCO      C 1926   5.282   2.659   6.128  0.1334  0.0634 -0.0397
  964OCO     PC 1927   3.293   5.720   3.055 -0.0000 -0.1264 -0.1050
  964OCO      C 1928   3.198   5.358   2.840 -0.0286 -0.2918 -0.0336
  965OCO     PC 1929   1.402   2.805   6.365 -0.3639 -0.0826  0.3700
  965OCO      C 1930   1.066   2.617   6.289 -0.1520  0.0281  0.2349
  966OCO     PC 1931   5.068   3.266   2.934 -0.0866 -0.1713  0.0895
  966OCO      C 1932   5.499   3.229   2.813 -0.0992  0.2027 -0.1908
  967OCO     PC 1933   3.134   3.482   0.647 -0.0766  0.1066 -0.2010
  967OCO      C 1934   2.817   3.708   0.823  0.2508  0.1092  0.0451
  968OCO     PC 1935   4.435   2.356   5.028 -0.1033 -0.2746 -0.1536
  968OCO      C 1936   4.645   2.589   4.720 -0.0741 -0.0345 -0.0349
  969OCO     PC 1937   0.892   0.912   1.838  0.0233 -0.1902 -0.0696
  969OCO      C 1938   0.692   1.107   2.178 -0.0234  0.1133 -0.2387
  970OCO     PC 1939   2.701   5.364   1.754  0.0171 -0.1015 -0.1197
  970OCO      C 1940   2.562   5.319   2.118  0.0470  0.1557  0.1832
  971OCO     PC 1941   2.538   4.028   5.486 -0.0565  0.1829  0.3369
  971OCO      C 1942   2.702   4.059   5.858  0.3386  0.1891  0.1361
  972OCO     PC 1943   3.100   4.488   1.103  0.0806 -0.0733  0.1894
  972OCO      C 1944   2.971   4.975   1.082 -0.0022 -0.1729 -0.0746
  973OCO     PC 1945   2.209   6.008   5.971  0.1057  0.1710  0.1130
  973OCO      C 1946   1.824   6.369   6.004 -0.0503 -0.1743 -0.2567
  974OCO     PC 1947   0.157   2.551   6.048  0.3513 -0.3101 -0.2592
  974OCO      C 1948   0.103   2.493   6.496 -0.2868  0.0875  0.1563
  975OCO     PC 1949   5.520   4.587   2.890 -0.3963 -0.2896  0.3392
  975OCO      C 1950   5.235   4.344   3.112  0.1211  0.0409 -0.0914
  976OCO     PC 1951   2.438   3.383   1.085 -0.2556  0.0835  0.1442
  976OCO      C 1952   2.224   3.215   1.516 -0.0573 -0.0216  0.0151
  977OCO     PC 1953   0.308   3.273   4.254  0.2217 -0.2025  0.2689
  977OCO      C 1954  -0.131   3.305   4.454  0.0473  0.1446  0.1668
  978OCO     PC 1955   0.187   3.789   2.041 -0.1104  0.3558 -0.2933
  978OCO      C 1956   0.512   3.683   1.864 -0.0400 -0.0481  0.2152
  979OCO     PC 1957   0.716   1.496   1.822 -0.2948  0.0286  0.0421
  979OCO      C 1958   0.765   1.747   2.209 -0.3124  0.0962  0.1714
  980OCO     PC 1959   2.437   5.388   3.146  0.1169 -0.0761 -0.0504
  980OCO      C 1960   2.807   5.645   2.973  0.2560  0.2654 -0.1203
  981OCO     PC 1961   4.854   2.659   0.040  0.2711  0.2436  0.0499
  981OCO      C 1962   4.664   2.236   0.067  0.0922  0.2010 -0.2560
  982OCO     PC 1963   5.751   0.947   2.846  0.0767 -0.1061  0.1321
  982OCO      C 1964   5.890   0.580   2.838  0.1894 -0.1509 -0.0917
  983OCO     PC 1965   5.722   3.688   4.918  0.1796  0.1108 -0.0270
  983OCO      C 1966   5.448   3.977   4.822 -0.1714  0.2235  0.0975
  984OCO     PC 1967   2.474   1.558   6.084  0.0426  0.2416  0.1235
  984OCO      C 1968   2.618   1.970   6.031 -0.0059 -0.1908  0.1383
  985OCO     PC 1969   3.662   0.061   3.842 -0.2067 -0.0989  0.0411
  985OCO      C 1970   4.216  -0.074   3.780  0.1826 -0.2513 -0.1036
  986OCO     PC 1971   5.244   1.731   1.263  0.0621 -0.0544 -0.1060
  986OCO      C 1972   5.163   1.363   1.357 -0.1305  0.1155 -0.2519
  987OCO     PC 1973   2.174   4.270   3.977  0.0096  0.2710  0.5249
  987OCO      C 1974   1.787   4.235   4.164  0.0122  0.0591  0.2460
  988OCO     PC 1975   1.146   1.329   6.048 -0.1578  0.0843  0.2223
  988OCO      C 1976   0.732   1.173   6.203 -0.1972  0.0462  0.0375
  989OCO     PC 1977   4.410   0.179   2.593 -0.0632 -0.1785  0.1064
  989OCO      C 1978   4.366   0.607   2.688  0.1178  0.3770 -0.1393
  990OCO     PC 1979   0.098   2.758   2.860 -0.0399  0.1152  0.2816
  990OCO      C 1980   0.183   2.856   3.324 -0.0772  0.2348 -0.1187
  991OCO     PC 1981   5.070   0.744   0.377  0.2967 -0.1637 -0.0137
  991OCO      C 1982   5.057   1.204   0.273 -0.2243 -0.1182  0.0059
  992OCO     PC 1983   3.106   5.014   5.873 -0.0310  0.3066  0.0761
  992OCO      C 1984   2.631   4.892   6.068  0.0326 -0.0538 -0.0390
  993OCO     PC 1985   2.666   0.984   3.678  0.0993  0.1095 -0.0677
  993OCO      C 1986   3.002   0.791   3.933  0.1053  0.2887  0.1819
  994OCO     PC 1987   6.878   5.259   5.234 -0.1012  0.0281 -0.1778
  994OCO      C 1988   7.247   5.509   5.104 -0.1859  0.1273  0.2256
  995OCO     PC 1989   0.499   0.635   2.015 -0.0546  0.1471 -0.1828
  995OCO      C 1990   0.200   0.833   2.285  0.0622 -0.3059  0.0981
  996OCO     PC 1991   1.532   2.389   2.133  0.2032  0.0442 -0.1807
  996OCO      C 1992   1.225   2.443   2.441  0.4193 -0.1596 -0.0471
  997OCO     PC 1993   3.265   2.651   5.423 -0.1739  0.1922 -0.0256
  997OCO      C 1994   3.548   2.533   5.106 -0.3555 -0.0149 -0.1946
  998OCO     PC 1995   3.811   3.353   1.918  0.2611  0.1534 -0.0990
  998OCO      C 1996   3.795   3.120   1.471  0.0471  0.0358  0.1292
  999OCO     PC 1997   3.216   5.936   2.583 -0.1163 -0.3117 -0.0627
  999OCO      C 1998   2.814   5.661   2.474 -0.0342 -0.1403  0.2208
 1000OCO     PC 1999   4.626   5.088   2.892  0.1479  0.3341 -0.1792
 1000OCO      C 2000   4.837   5.413   2.787 -0.0705 -0.0537  0.0112
 1001OCO     PC 2001   3.459   0.398   0.405 -0.2226 -0.0011 -0.1581
 1001OCO      C 2002   3.297   0.744   0.138 -0.3134  0.0396 -0.1400
 1002OCO     PC 2003   1.452   3.679   5.264  0.2068  0.1243 -0.0577
 1002OCO      C 2004   1.200   3.292   5.277 -0.1904  0.1018 -0.1482
 1003OCO     PC 2005   2.038   1.284   6.094 -0.0360  0.1444  0.1551
 1003OCO      C 2006   1.586   1.368   6.236 -0.0984  0.1755  0.0861
 1004OCO     PC 2007   0.430   6.091   5.565  0.1805 -0.2108 -0.0554
 1004OCO      C 2008   0.744   5.723   5.388  0.2009 -0.0387  0.0297
 1005OCO     PC 2009   1.337   1.864   4.681 -0.0503 -0.0568 -0.0612
 1005OCO      C 2010   1.088   1.730   5.149  0.1682  0.0202 -0.0656
 1006OCO     PC 2011   1.332   1.101   1.689  0.1686  0.0148 -0.1064
 1006OCO      C 2012   1.669   0.866   1.624 -0.1674 -0.3194 -0.1510
 1007OCO     PC 2013   3.187   5.480   4.767  0.0594 -0.2543  0.3189
 1007OCO      C 2014   3.354   5.644   5.149  0.1426 -0.0883 -0.1028
 1008OCO     PC 2015   5.119   3.512   0.963 -0.1657  0.3172  0.1822
 1008OCO      C 2016   5.023   3.696   1.425  0.0805 -0.2576 -0.3531
 1009OCO     PC 2017   1.819   5.178   4.460  0.0857 -0.0236  0.0076
 1009OCO      C 2018   1.934   4.815   4.450 -0.2390  0.0887  0.0202
 1010OCO     PC 2019   2.996   0.039   5.222  0.1472 -0.1382 -0.0288
 1010OCO      C 2020   3.006  -0.370   4.959  0.1918  0.1778  0.0555
 1011OCO     PC 2021   4.394   0.941   0.734 -0.0146 -0.0960 -0.1251
 1011OCO      C 2022   4.602   0.915   0.295  0.2627  0.1068  0.0688
 1012OCO     PC 2023   0.516   5.255   4.586 -0.1034  0.0710  0.0167
 1012OCO      C 2024   0.181   4.938   4.477 -0.0395 -0.1858 -0.0731
 1013OCO     PC 2025   1.140   4.446   3.818 -0.1077 -0.0915 -0.0925
 1013OCO      C 2026   1.348   4.142   3.924  0.0055  0.2394  0.0370
 1014OCO     PC 2027   2.898   4.042   1.664  0.1153  0.0184  0.0362
 1014OCO      C 2028   2.942   4.175   2.041 -0.0350  0.1040 -0.1158
 1015OCO     PC 2029   1.397   5.723   2.552 -0.1178  0.1060 -0.1244
 1015OCO      C 2030   0.993   5.473   2.554  0.0169  0.1547  0.0867
 1016OCO     PC 2031   2.040   5.667   5.245  0.0583  0.2823  0.2449
 1016OCO      C 2032   2.329   5.788   4.906 -0.1529 -0.1934  0.3783
 1017OCO     PC 2033   0.255   0.791   5.018 -0.0183 -0.1488 -0.1885
 1017OCO      C 2034   0.073   0.383   5.136 -0.1423 -0.0348 -0.0912
 1018OCO     PC 2035   4.865   5.131   3.685  0.1928 -0.1818  0.3263
 1018OCO      C 2036   4.746   5.231   4.069  0.1763 -0.1833  0.0717
 1019OCO     PC 2037   4.639   5.355   0.227 -0.2173 -0.1620 -0.2506
 1019OCO      C 2038   4.808   5.596   0.620 -0.0313  0.0574  0.3176
 1020OCO     PC 2039   4.514   1.213   4.949  0.3047 -0.2375  0.1040
 1020OCO      C 2040   4.485   1.187   5.395 -0.2226 -0.1802 -0.3862
 1021OCO     PC 2041   1.983   6.047   3.462  0.4062 -0.0935  0.0616
 1021OCO      C 2042   1.787   6.411   3.782 -0.1922 -0.0935  0.0355
 1022OCO     PC 2043   3.423   3.061   0.812 -0.0624  0.2484  0.5270
 1022OCO      C 2044   3.623   2.812   1.068 -0.3332  0.0518  0.1468
 1023OCO     PC 2045   3.788   3.583   2.968  0.1647  0.1556 -0.1091
 1023OCO      C 2046   3.512   3.578   3.374 -0.0033 -0.1947 -0.0736
 1024OCO     PC 2047   6.415   0.164   5.223  0.2195 -0.0643 -0.2450
 1024OCO      C 2048   6.760  -0.109   5.314  0.1108  0.2964 -0.0631
 1025OCO     PC 2049   0.941   1.845   5.884  0.3076  0.0152 -0.1723
 1025OCO      C 2050   1.249   2.207   6.097  0.1402  0.0054  0.0993
 1026OCO     PC 2051   1.439   1.251   4.417  0.0052 -0.2760 -0.2538
 1026OCO      C 2052   1.251   1.379   4.821  0.0605 -0.1289 -0.1688
 1027OCO     PC 2053   3.525   2.807   4.590 -0.1949 -0.1819  0.0311
 1027OCO      C 2054   3.302   2.449   4.710  0.2840  0.0573 -0.1750
 1028OCO     PC 2055   1.671   0.874   6.358 -0.1105 -0.0825  0.1404
 1028OCO      C 2056   1.636   0.554   6.542 -0.0621 -0.0730  0.2472
 1029OCO     PC 2057   5.448   3.903   2.958 -0.0389 -0.1288 -0.0721
 1029OCO      C 2058   5.469   3.509   3.205  0.0439 -0.0396 -0.0173
 1030OCO     PC 2059   0.588   3.196   3.343 -0.0316 -0.0179  0.2096
 1030OCO      C 2060   0.287   3.338   3.077 -0.2249  0.2248  0.0040
 1031OCO     PC 2061   0.676   0.048   0.439 -0.2535 -0.2039  0.2346
 1031OCO      C 2062   0.799  -0.101   0.014 -0.1292 -0.0821  0.0438
 1032OCO     PC 2063   5.076   4.297   2.070 -0.1439  0.2048 -0.0035
 1032OCO      C 2064   5.390   4.602   2.200 -0.1594 -0.1275 -0.0501
 1033OCO     PC 2065   4.740   5.735   4.890  0.1691 -0.2133 -0.2333
 1033OCO      C 2066   5.089   5.828   5.313  0.0109 -0.3772  0.0393
 1034OCO     PC 2067   4.539   0.520   1.792  0.1064  0.1721  0.1562
 1034OCO      C 2068   4.312   0.938   1.848  0.4400  0.0763 -0.2951
 1035OCO     PC 2069   2.751   5.303   4.585 -0.1728 -0.1238 -0.0261
 1035OCO      C 2070   2.379   5.243   4.460 -0.0786  0.1171 -0.0464
 1036OCO     PC 2071   5.179   5.698   3.945 -0.1991  0.2624 -0.2288
 1036OCO      C 2072   5.080   5.945   3.560  0.0678  0.2586 -0.0369
 1037OCO     PC 2073   2.506   4.653   3.770 -0.1204  0.1507  0.0966
 1037OCO      C 2074   2.874   4.354   3.793 -0.1562 -0.1266 -0.3993
 1038OCO     PC 2075   6.213   0.846   1.895  0.0413  0.0094  0.0182
 1038OCO      C 2076   6.461   1.002   1.577 -0.1184  0.0167 -0.1774
 1039OCO     PC 2077   4.852   2.103   5.551 -0.0114  0.0416  0.2291
 1039OCO      C 2078   4.795   1.687   5.394  0.2222  0.4176  0.1953
 1040OCO     PC 2079   4.736   0.481   4.162 -0.1919  0.0353 -0.0953
 1040OCO      C 2080   4.617   0.233   3.740  0.2011  0.0727  0.1356
 1041OCO     PC 2081   4.025   1.680   0.788 -0.0525  0.0250  0.2512
 1041OCO      C 2082   3.630   1.889   0.786  0.0720  0.2749  0.1360
 1042OCO     PC 2083   2.049   4.764   0.371  0.3677 -0.2178  0.1320
 1042OCO      C 2084   2.251   5.132   0.083 -0.0087 -0.1718  0.2445
 1043OCO     PC 2085   3.313   4.026   5.200 -0.3160  0.1675 -0.0106
 1043OCO      C 2086   3.097   4.201   5.454  0.2173 -0.0601 -0.2048
 1044OCO     PC 2087   0.300   2.989   3.845  0.2705  0.1283 -0.0282
 1044OCO      C 2088   0.212   2.547   3.718  0.2162  0.0772 -0.1192
 1045OCO     PC 2089   4.771   2.478   3.474 -0.1220  0.1298 -0.1056
 1045OCO      C 2090   4.707   2.304   3.062  0.1450  0.2033  0.1149
 1046OCO     PC 2091   4.213   3.814   2.726  0.1839  0.1735  0.0018
 1046OCO      C 2092   4.452   3.884   3.057 -0.1157  0.3128  0.0569
 1047OCO     PC 2093   6.092   3.468   4.628 -0.0947  0.0019 -0.1597
 1047OCO      C 2094   5.786   3.059   4.735  0.0176 -0.3246  0.0962
 1048OCO     PC 2095   5.965   4.586   6.173 -0.0779 -0.1053 -0.0456
 1048OCO      C 2096   6.080   4.530   5.738  0.0708  0.0153  0.1664
 1049OCO     PC 2097   4.415   1.698   0.446  0.5599  0.0541 -0.3091
 1049OCO      C 2098   4.738   1.714   0.081 -0.2230  0.0280  0.0446
 1050OCO     PC 2099   2.939   0.316   0.477 -0.0105  0.2536  0.2376
 1050OCO      C 2100   2.962   0.169   0.064 -0.1330 -0.0373 -0.1631
 1051OCO     PC 2101   2.139   0.755   0.954  0.0184  0.2197 -0.1436
 1051OCO      C 2102   1.927   0.545   1.316 -0.1472  0.0039  0.0745
 1052OCO     PC 2103   6.056   4.750   2.073  0.0283 -0.0127  0.0549
 1052OCO      C 2104   5.815   4.465   1.880 -0.0602  0.0781 -0.4792
 1053OCO     PC 2105   4.100   1.339   2.062 -0.1485 -0.0250 -0.1424
 1053OCO      C 2106   4.485   1.493   2.107 -0.1563 -0.0240 -0.1149
 1054OCO     PC 2107   1.601   4.776   2.244  0.0952  0.1598  0.0386
 1054OCO      C 2108   1.824   4.852   2.604  0.0971  0.0499  0.0779
 1055OCO     PC 2109   6.418   3.970   1.973 -0.0554 -0.0811  0.0370
 1055OCO      C 2110   6.477   3.990   1.457 -0.5475  0.1383 -0.2613
 1056OCO     PC 2111   4.177   5.343   0.457 -0.0090 -0.4189 -0.2659
 1056OCO      C 2112   3.987   5.694   0.268 -0.0738  0.2158 -0.1253
 1057OCO     PC 2113   5.964   1.404   2.982 -0.1929 -0.2071  0.2762
 1057OCO      C 2114   5.579   1.370   3.183  0.2216  0.0864 -0.0239
 1058OCO     PC 2115   3.138   0.862   0.885  0.0993 -0.1057  0.2895
 1058OCO      C 2116   2.954   0.933   1.316 -0.0230 -0.2108  0.1085
 1059OCO     PC 2117   5.669   0.315   3.339  0.0525 -0.1345  0.3768
 1059OCO      C 2118   6.054   0.331   3.262 -0.0477  0.0721  0.0804
 1060OCO     PC 2119   2.415   3.669   2.525  0.3313 -0.0062 -0.0291
 1060OCO      C 2120   2.049   3.501   2.394  0.0764  0.1605 -0.0936
 1061OCO     PC 2121   6.019   1.928   2.661 -0.1001  0.1330 -0.1234
 1061OCO      C 2122   6.197   2.346   2.496  0.0765  0.2158 -0.1369
 1062OCO     PC 2123   6.777   3.377   5.385 -0.1134 -0.0268  0.1179
 1062OCO      C 2124   7.156   3.144   5.486  0.1747 -0.0121 -0.1206
 1063OCO     PC 2125   2.612   3.956   1.229 -0.1976 -0.0985  0.0019
 1063OCO      C 2126   2.971   3.634   1.292  0.2379  0.0210  0.1282
 1064OCO     PC 2127   6.240   3.506   2.375 -0.1837  0.0003 -0.2658
 1064OCO      C 2128   6.105   3.216   2.272 -0.3419 -0.0695 -0.0006
 1065OCO     PC 2129   2.300   1.187   0.118  0.1128  0.1928  0.1834
 1065OCO      C 2130   2.203   0.771   0.304 -0.2944  0.2301 -0.1390
 1066OCO     PC 2131   2.325   2.218   3.071 -0.1156  0.2457  0.0618
 1066OCO      C 2132   2.328   1.940   2.740  0.3962 -0.1108  0.0242
 1067OCO     PC 2133   5.956   1.240   2.405 -0.0141  0.0753  0.0307
 1067OCO      C 2134   5.766   1.021   2.020  0.0311 -0.2201 -0.2696
 1068OCO     PC 2135   6.277   3.076   4.413 -0.0021 -0.3907  0.3459
 1068OCO      C 2136   6.437   2.888   4.110  0.2198 -0.3102 -0.0852
 1069OCO     PC 2137   1.704   5.330   3.798  0.1497  0.2358  0.1736
 1069OCO      C 2138   1.640   5.803   3.651 -0.2439  0.4676 -0.5607
 1070OCO     PC 2139   4.238   1.667   3.258  0.0539 -0.0577 -0.0525
 1070OCO      C 2140   4.215   1.280   3.025 -0.0107 -0.0005 -0.0331
 1071OCO     PC 2141   3.627   4.619   2.619  0.2236  0.1708  0.0980
 1071OCO      C 2142   3.284   4.839   2.748 -0.0797  0.2494 -0.1865
 1072OCO     PC 2143   3.973   4.350   0.747 -0.1882  0.0895 -0.0861
 1072OCO      C 2144   4.248   4.160   0.510  0.0245  0.3391 -0.3633
 1073OCO     PC 2145   3.535   5.145   5.153  0.2075  0.1869  0.0712
 1073OCO      C 2146   3.577   5.139   4.684  0.4506 -0.3028 -0.2529
 1074OCO     PC 2147   1.702   5.196   0.138  0.1764 -0.1053  0.0663
 1074OCO      C 2148   1.528   5.641   0.332 -0.0957  0.0058  0.2203
 1075OCO     PC 2149   5.423   0.980   3.815 -0.0552  0.0719  0.2045
 1075OCO      C 2150   5.315   0.991   3.406 -0.0002 -0.0597 -0.1296
 1076OCO     PC 2151   2.021   2.454   4.141  0.5952 -0.0752 -0.1180
 1076OCO      C 2152   1.919   2.357   3.746 -0.2595 -0.0223  0.0706
 1077OCO     PC 2153   2.907   5.140   5.209 -0.2455  0.4115 -0.0815
 1077OCO      C 2154   3.198   4.834   5.382 -0.0034  0.1817 -0.0978
 1078OCO     PC 2155   4.232   4.066   3.565 -0.1013  0.0304  0.0085
 1078OCO      C 2156   4.738   3.877   3.574 -0.0595  0.1597 -0.0027
 1079OCO     PC 2157   1.270   4.884   6.325 -0.0167 -0.0781  0.2108
 1079OCO      C 2158   1.262   5.133   6.729 -0.1087  0.0827 -0.2413
 1080OCO     PC 2159   6.192   1.688   0.872  0.0751  0.0064  0.4308
 1080OCO      C 2160   6.354   1.224   0.785  0.2752 -0.0718  0.0856
 1081OCO     PC 2161   0.897   6.140   3.431  0.0834 -0.0261  0.0411
 1081OCO      C 2162   1.225   6.311   3.659  0.0175  0.0932  0.4060
 1082OCO     PC 2163   2.540   5.638   0.448  0.0758 -0.0819 -0.2382
 1082OCO      C 2164   2.185   5.863   0.598 -0.0672 -0.0889 -0.3599
 1083OCO     PC 2165   3.886   0.091   0.086  0.0506 -0.1537 -0.0402
 1083OCO      C 2166   3.826  -0.311  -0.006 -0.0624 -0.2006  0.0058
 1084OCO     PC 2167   3.173   0.191   1.345  0.0918  0.2052  0.3188
 1084OCO      C 2168   3.555   0.306   1.641 -0.0303 -0.0495  0.0209
 1085OCO     PC 2169   1.913   3.601   4.914 -0.0547  0.0519 -0.0653
 1085OCO      C 2170   1.771   3.337   5.362  0.0819  0.1830  0.1063
 1086OCO     PC 2171   4.358   1.886   1.559 -0.1804 -0.4716  0.0092
 1086OCO      C 2172   4.439   2.021   1.965  0.0782 -0.1046  0.0285
 1087OCO     PC 2173   5.510   1.293   5.821  0.0743 -0.3419 -0.3409
 1087OCO      C 2174   5.341   1.383   6.263  0.0146  0.2764  0.3005
 1088OCO     PC 2175   5.071   2.256   0.370  0.0621  0.4499  0.1525
 1088OCO      C 2176   4.711   2.129   0.635 -0.2590 -0.0997 -0.0231
 1089OCO     PC 2177   5.407   3.994   0.199 -0.0276  0.5799 -0.0277
 1089OCO      C 2178   5.823   3.727   0.256  0.0699  0.1761 -0.2804
 1090OCO     PC 2179   0.409   5.305   6.160  0.1428  0.0218  0.1165
 1090OCO      C 2180   0.404   5.008   6.397 -0.1243 -0.1259  0.1606
 1091OCO     PC 2181   1.187   1.847   0.478 -0.2862  0.2077  0.3202
 1091OCO      C 2182   1.241   2.249   0.205 -0.2401  0.0669 -0.1145
 1092OCO     PC 2183   6.427   3.408   1.893  0.0985 -0.0697  0.2040
 1092OCO      C 2184   6.266   3.559   1.553 -0.1987  0.0500 -0.1084
 1093OCO     PC 2185   1.354   6.220   1.233  0.2481  0.1717  0.0932
 1093OCO      C 2186   0.928   6.322   1.437 -0.0990 -0.0021 -0.5092
 1094OCO     PC 2187   1.629   2.654   4.473 -0.1656  0.0113 -0.1814
 1094OCO      C 2188   1.616   3.019   4.518  0.3685 -0.1760 -0.1754
 1095OCO     PC 2189   0.158   0.266   2.938  0.0758 -0.0331 -0.0207
 1095OCO      C 2190   0.012   0.726   2.859 -0.0718  0.4262 -0.0495
 1096OCO     PC 2191   0.240   2.017   2.439  0.2784 -0.0010 -0.0186
 1096OCO      C 2192   0.487   2.363   2.738  0.3838  0.1121 -0.2586
 1097OCO     PC 2193   4.077   3.611   3.461  0.3283  0.1210  0.0678
 1097OCO      C 2194   4.204   3.235   3.643  0.1129 -0.0361 -0.3088
 1098OCO     PC 2195   6.798   2.372   1.625  0.0493  0.0374 -0.1298
 1098OCO      C 2196   6.834   2.372   1.188 -0.0047 -0.0458  0.2079
 1099OCO     PC 2197   1.643   0.823   2.187 -0.2320 -0.1453  0.1214
 1099OCO      C 2198   1.655   0.844   2.645  0.1013 -0.0622  0.0364
 1100OCO     PC 2199   1.554   2.787   1.739 -0.2624  0.3262 -0.1623
 1100OCO      C 2200   1.372   2.866   2.201 -0.2157  0.2238 -0.0276
 1101OCO     PC 2201   4.937   1.340   3.544  0.0946  0.1533 -0.1211
 1101OCO      C 2202   4.678   1.408   3.158 -0.1203 -0.0220  0.0593
 1102OCO     PC 2203   3.511   0.682   3.129  0.0350  0.0196 -0.0950
 1102OCO      C 2204   3.775   0.302   3.311  0.0405 -0.1248  0.0869
 1103OCO     PC 2205   4.864   6.200   2.262  0.1641  0.1189  0.1499
 1103OCO      C 2206   5.308   6.069   2.350  0.1381  0.3908  0.0433
 1104OCO     PC 2207   0.028   1.157   4.193  0.0909  0.1655 -0.1595
 1104OCO      C 2208   0.509   1.325   3.965  0.1316  0.0843  0.0939
 1105OCO     PC 2209   2.659   3.164   4.895 -0.0549 -0.1376 -0.1232
 1105OCO      C 2210   2.584   3.192   4.417  0.0949 -0.1584 -0.1401
 1106OCO     PC 2211   6.356   2.303   4.255  0.2097  0.1825  0.1677
 1106OCO      C 2212   6.743   2.495   4.140 -0.0675 -0.2104  0.2840
 1107OCO     PC 2213   2.736   4.607   5.270 -0.2098  0.1083 -0.0465
 1107OCO      C 2214   2.661   4.911   5.593 -0.1035  0.3694  0.1216
 1108OCO     PC 2215   1.749   1.023   1.085 -0.1614 -0.2224  0.2866
 1108OCO      C 2216   1.409   0.691   1.088 -0.1959 -0.1468 -0.4672
 1109OCO     PC 2217   3.807   5.107   3.481  0.0420  0.0042  0.0962
 1109OCO      C 2218   3.479   4.900   3.222 -0.1965 -0.1484  0.0029
 1110OCO     PC 2219   0.855   1.648   4.640 -0.0538  0.2226  0.0772
 1110OCO      C 2220   0.509   1.438   4.490  0.0052 -0.0121  0.0418
 1111OCO     PC 2221   1.372   5.361   4.164 -0.0211  0.0570  0.0342
 1111OCO      C 2222   1.680   5.679   4.184 -0.1358  0.0704  0.2619
 1112OCO     PC 2223   3.014   2.486   3.923 -0.1898 -0.1399  0.2316
 1112OCO      C 2224   3.274   2.436   4.174 -0.1222  0.1497 -0.1467
 1113OCO     PC 2225   1.440   4.037   0.307 -0.0546  0.0288  0.1234
 1113OCO      C 2226   1.875   3.987   0.628 -0.0225  0.2146  0.0247
 1114OCO     PC 2227   1.729   1.695   4.289  0.0248  0.1817 -0.1617
 1114OCO      C 2228   1.746   2.155   4.377 -0.0466  0.0766  0.1998
 1115OCO     PC 2229   5.997   3.051   1.572 -0.0806 -0.0084  0.1354
 1115OCO      C 2230   6.057   2.694   1.318 -0.0626 -0.0789  0.2696
 1116OCO     PC 2231   4.180   4.137   6.229  0.0212 -0.1008 -0.0554
 1116OCO      C 2232   3.978   4.433   5.894 -0.2508 -0.0265 -0.1895
 1117OCO     PC 2233   2.659   4.380   4.660 -0.0356  0.4226  0.2375
 1117OCO      C 2234   2.962   4.473   4.297  0.1184  0.0282 -0.1156
 1118OCO     PC 2235   4.723   0.202   0.550 -0.1889  0.2653 -0.0710
 1118OCO      C 2236   4.342  -0.109   0.371  0.1868 -0.1779 -0.0923
 1119OCO     PC 2237   6.717   2.765   2.128 -0.0180 -0.1123  0.1742
 1119OCO      C 2238   6.694   3.184   2.254  0.0170  0.2388  0.2021
 1120OCO     PC 2239   4.626   5.239   2.299 -0.1534  0.0924  0.3706
 1120OCO      C 2240   4.666   5.228   1.905 -0.0900 -0.0083  0.0527
 1121OCO     PC 2241   1.030   6.053   2.549  0.2214 -0.0943  0.0771
 1121OCO      C 2242   0.999   6.196   2.923  0.0509  0.1649 -0.1961
 1122OCO     PC 2243   0.487   1.665   5.013  0.1171  0.0043  0.0681
 1122OCO      C 2244   0.655   1.223   4.971 -0.1347  0.0702 -0.0070
 1123OCO     PC 2245   0.653   3.749   2.324  0.0127 -0.1928 -0.2144
 1123OCO      C 2246   0.508   4.174   2.061  0.1438 -0.1442 -0.0321
 1124OCO     PC 2247   6.734   2.184   6.169 -0.0195 -0.0110  0.0662
 1124OCO      C 2248   6.512   2.286   6.522  0.0716  0.0364  0.0635
 1125OCO     PC 2249   0.028   5.439   1.482  0.0624  0.2189 -0.0419
 1125OCO      C 2250  -0.436   5.423   1.600 -0.2048  0.3257  0.1787
 1126OCO     PC 2251   0.257   0.631   1.526  0.0408 -0.1774 -0.2931
 1126OCO      C 2252  -0.255   0.502   1.500  0.2083  0.2231 -0.1324
 1127OCO     PC 2253   3.004   1.331   0.921 -0.2003 -0.1268 -0.1003
 1127OCO      C 2254   3.081   1.848   0.779 -0.3603  0.2456  0.0897
 1128OCO     PC 2255   2.677   6.383   1.276  0.0047 -0.2038  0.2024
 1128OCO      C 2256   2.788   6.721   1.092  0.0437 -0.0699  0.1635
 1129OCO     PC 2257   3.068   3.995   0.404  0.0146 -0.2244 -0.1103
 1129OCO      C 2258   3.270   3.713   0.201 -0.0800  0.1586  0.6562
 1130OCO     PC 2259   6.777   5.192   1.020  0.2606 -0.0661 -0.2422
 1130OCO      C 2260   6.528   5.505   1.133  0.0981  0.0962 -0.3355
 1131OCO     PC 2261   3.350   4.251   4.681 -0.0709 -0.2792 -0.1727
 1131OCO      C 2262   3.097   4.417   4.946  0.2343 -0.1496 -0.0187
 1132OCO     PC 2263   6.708   4.261   0.686  0.1151 -0.0347 -0.1451
 1132OCO      C 2264   6.897   4.475   0.475  0.3797 -0.1606  0.0094
 1133OCO     PC 2265   1.085   2.505   1.930 -0.0115  0.0028 -0.1481
 1133OCO      C 2266   0.742   2.435   1.707 -0.0237 -0.0349 -0.3163
 1134OCO     PC 2267   0.385   5.392   5.543 -0.0154  0.0977 -0.0919
 1134OCO      C 2268   0.307   5.095   5.674  0.1086 -0.0825 -0.0204
 1135OCO     PC 2269   2.171   5.728   4.412 -0.0100 -0.0779 -0.1342
 1135OCO      C 2270   1.840   5.874   4.620  0.0408 -0.1515 -0.2891
 1136OCO     PC 2271   4.183   0.587   4.471 -0.0697 -0.1628 -0.1731
 1136OCO      C 2272   3.868   0.326   4.227 -0.1854 -0.2367  0.0558
 1137OCO     PC 2273   0.820   4.214   2.638  0.5548  0.2833  0.0154
 1137OCO      C 2274   0.894   4.526   2.927  0.0392 -0.0118  0.0602
 1138OCO     PC 2275   0.129   4.849   2.630  0.2658  0.0279  0.1742
 1138OCO      C 2276  -0.194   5.102   2.467 -0.0433  0.0205 -0.0395
 1139OCO     PC 2277   5.831   4.094   1.616 -0.1518  0.3523 -0.1537
 1139OCO      C 2278   6.009   3.982   1.232 -0.0867 -0.1171 -0.0175
 1140OCO     PC 2279   0.093   0.198   4.272  0.0276 -0.0115  0.1815
 1140OCO      C 2280  -0.307   0.037   4.198  0.1237 -0.2771  0.2302
 1141OCO     PC 2281   5.300   4.072   1.675  0.0514  0.0577  0.0014
 1141OCO      C 2282   4.907   4.199   1.472  0.0430  0.1842  0.1434
 1142OCO     PC 2283   6.178   0.363   6.207 -0.2181 -0.0756 -0.3041
 1142OCO      C 2284   5.896   0.119   6.039  0.0075  0.2313 -0.0635
 1143OCO     PC 2285   4.519   3.567   4.672  0.2849  0.3814 -0.1396
 1143OCO      C 2286   4.261   4.119   4.655  0.1114  0.3213  0.3105
 1144OCO     PC 2287   4.926   0.254   5.973 -0.3572 -0.1863 -0.0189
 1144OCO      C 2288   5.366  -0.024   5.998 -0.0559  0.3246  0.1188
 1145OCO     PC 2289   2.419   4.700   4.299  0.3242  0.0753 -0.1234
 1145OCO      C 2290   2.744   4.845   4.517  0.3522  0.0297  0.2270
 1146OCO     PC 2291   0.847   4.770   0.194 -0.0118 -0.2976  0.1824
 1146OCO      C 2292   0.535   4.423   0.015 -0.3144  0.1356  0.1377
 1147OCO     PC 2293   0.301   5.340   2.393  0.1879 -0.2700  0.1428
 1147OCO      C 2294   0.562   5.258   2.611 -0.1681  0.0589 -0.0075
 1148OCO     PC 2295   6.775   5.223   1.970 -0.1109 -0.0374 -0.0651
 1148OCO      C 2296   6.380   5.132   2.035  0.1397 -0.3696  0.1278
 1149OCO     PC 2297   3.052   1.082   0.437 -0.0148 -0.0827 -0.0318
 1149OCO      C 2298   3.112   1.145  -0.085 -0.0700  0.0725 -0.0202
 1150OCO     PC 2299   0.681   0.139   5.276 -0.2634  0.2017  0.1455
 1150OCO      C 2300   0.368  -0.014   5.123 -0.1316 -0.1453 -0.1305
 1151OCO     PC 2301   2.534   1.695   3.135  0.3730  0.0896 -0.1035
 1151OCO      C 2302   2.171   1.491   3.056  0.0517  0.0255  0.1536
 1152OCO     PC 2303   3.755   2.170   2.591 -0.1097  0.0370 -0.3280
 1152OCO      C 2304   4.092   2.318   2.442  0.0115  0.2099 -0.0607
 1153OCO     PC 2305   5.741   0.280   0.098 -0.1822  0.1347 -0.0825
 1153OCO      C 2306   5.545   0.575   0.387 -0.0575 -0.1401 -0.0718
 1154OCO     PC 2307   0.065   5.760   5.427 -0.1800  0.4427 -0.1513
 1154OCO      C 2308   0.072   5.950   4.975 -0.0405  0.3296 -0.3199
 1155OCO     PC 2309   2.965   6.320   0.792  0.1790 -0.0174  0.0314
 1155OCO      C 2310   3.256   6.012   0.632  0.0807  0.1118 -0.0469
 1156OCO     PC 2311   3.261   5.924   4.545  0.0469 -0.1918 -0.0606
 1156OCO      C 2312   3.571   5.629   4.508  0.0495  0.0208  0.1174
 1157OCO     PC 2313   5.428   1.840   0.173 -0.0484  0.1654  0.1024
 1157OCO      C 2314   5.601   1.416   0.266  0.0189 -0.0309  0.1713
 1158OCO     PC 2315   2.698   0.417   4.853 -0.0032 -0.0529  0.0990
 1158OCO      C 2316   2.751   0.375   4.418 -0.0817 -0.0573  0.2297
 1159OCO     PC 2317   5.389   2.147   4.931  0.0489  0.0398 -0.1531
 1159OCO      C 2318   5.777   2.107   5.125  0.2138  0.0851  0.2652
 1160OCO     PC 2319   2.629   2.774   4.202  0.1577 -0.2703  0.0585
 1160OCO      C 2320   2.828   3.000   3.919  0.0158 -0.3541  0.0629
 1161OCO     PC 2321   4.824   4.425   5.848 -0.2234  0.0353  0.0457
 1161OCO      C 2322   4.501   4.115   5.712  0.3100 -0.1083  0.0928
 1162OCO     PC 2323   6.688   1.870   3.283  0.0648 -0.2653  0.2623
 1162OCO      C 2324   6.549   2.065   3.707 -0.0625  0.2550 -0.0580
 1163OCO     PC 2325   3.951   1.211   1.100  0.4348  0.2030 -0.2104
 1163OCO      C 2326   4.205   0.856   1.249  0.0057 -0.0748  0.0430
 1164OCO     PC 2327   5.818   5.445   1.589 -0.1250 -0.2693  0.0852
 1164OCO      C 2328   5.419   5.338   1.440  0.0078  0.0231 -0.1728
 1165OCO     PC 2329   6.055   5.727   1.163  0.0380  0.0325 -0.2546
 1165OCO      C 2330   6.197   6.168   1.276 -0.0907 -0.0378  0.0895
 1166OCO     PC 2331   3.038   5.868   4.068 -0.2146  0.0967 -0.0540
 1166OCO      C 2332   2.992   5.493   4.243  0.0741 -0.3114  0.0943
 1167OCO     PC 2333   0.043   3.580   5.801  0.1854 -0.1471 -0.4052
 1167OCO      C 2334  -0.419   3.633   5.779 -0.1095 -0.1276  0.0265
 1168OCO     PC 2335   2.650   1.519   1.915  0.2686  0.0862 -0.0600
 1168OCO      C 2336   2.470   1.925   1.765  0.0066  0.1953  0.2164
 1169OCO     PC 2337   3.547   4.186   1.796  0.1431  0.0723  0.1284
 1169OCO      C 2338   3.706   4.290   2.213  0.1570  0.5857  0.0986
 1170OCO     PC 2339   1.615   0.850   3.569 -0.1509 -0.1589 -0.2594
 1170OCO      C 2340   1.427   0.786   3.205 -0.0487 -0.0522  0.0588
 1171OCO     PC 2341   3.096   6.151   3.224  0.3840 -0.1188 -0.1842
 1171OCO      C 2342   3.241   6.639   3.200  0.0239  0.2141  0.0378
 1172OCO     PC 2343   5.475   2.766   2.733  0.2155  0.0645  0.1980
 1172OCO      C 2344   5.936   2.749   2.878  0.2735 -0.1207 -0.0647
 1173OCO     PC 2345   6.162   4.228   3.515 -0.0916 -0.1233 -0.0842
 1173OCO      C 2346   6.505   4.075   3.367 -0.2715 -0.0158  0.5700
 1174OCO     PC 2347   5.772   1.940   4.605 -0.3695  0.0752 -0.0661
 1174OCO      C 2348   6.058   1.610   4.440  0.1555 -0.0122 -0.0269
 1175OCO     PC 2349   1.501   4.981   1.770  0.1773 -0.1534 -0.0187
 1175OCO      C 2350   1.242   4.949   1.996  0.0643  0.0729  0.0979
 1176OCO     PC 2351   5.047   3.717   4.005  0.0560 -0.1123  0.0075
 1176OCO      C 2352   4.890   4.141   4.064 -0.0894  0.0231 -0.0665
 1177OCO     PC 2353   0.279   2.266   1.930 -0.2082  0.4466  0.0392
 1177OCO      C 2354   0.495   1.925   1.782 -0.0047 -0.2884 -0.2174
 1178OCO     PC 2355   3.060   0.153   5.906  0.0766  0.3601 -0.3042
 1178OCO      C 2356   3.153  -0.194   5.594 -0.3021  0.0578 -0.0521
 1179OCO     PC 2357   5.985   5.342   4.636 -0.0147  0.2230  0.1980
 1179OCO      C 2358   6.175   4.960   4.402 -0.0280 -0.1727 -0.0026
 1180OCO     PC 2359   0.640   4.403   3.387 -0.3283 -0.5153 -0.1773
 1180OCO      C 2360   0.184   4.357   3.394  0.0179  0.0910 -0.3147
 1181OCO     PC 2361   2.411   3.202   5.897  0.0358  0.0481  0.3982
 1181OCO      C 2362   2.682   3.442   5.593  0.2138  0.1179  0.1093
 1182OCO     PC 2363   0.369   1.884   3.166  0.1387 -0.2547  0.0726
 1182OCO      C 2364   0.189   1.506   3.491 -0.2121  0.3847 -0.1621
 1183OCO     PC 2365   4.398   3.116   4.674 -0.0706  0.2998 -0.2448
 1183OCO      C 2366   4.827   3.132   4.655 -0.1579 -0.1217  0.0614
   6.88424   6.38415   6.38415
