;;
;; Generated by CHARMM-GUI FF-Converter
;;
;; Correspondance:
;; jul316@lehigh.edu or wonpil@lehigh.edu
;;
;; GROMACS topology file for OOOTG
;;


[ moleculetype ]
; name	nrexcl
OOOTG	     3

[ atoms ]
; nr	type	resnr	residu	atom	cgnr	charge	mass
     1       CTL2     14    OOOTG     C1      1    -0.005000    12.0110   ; qtot -0.005
     2       HAL2     14    OOOTG     HA      2     0.110000     1.0080   ; qtot  0.105
     3       HAL2     14    OOOTG     HB      3     0.110000     1.0080   ; qtot  0.215
     4        OSL     14    OOOTG    O11      4    -0.247000    15.9994   ; qtot -0.032
     5        OBL     14    OOOTG    O12      5    -0.415000    15.9994   ; qtot -0.447
     6         CL     14    OOOTG    C11      6     0.343000    12.0110   ; qtot -0.104
     7       CTL2     14    OOOTG    C12      7    -0.104000    12.0110   ; qtot -0.208
     8       HAL2     14    OOOTG    H2P      8     0.104000     1.0080   ; qtot -0.104
     9       HAL2     14    OOOTG    H2Q      9     0.104000     1.0080   ; qtot  0.000
    10       CTL1     14    OOOTG     C2     10     0.060000    12.0110   ; qtot  0.060
    11       HAL1     14    OOOTG     HS     11     0.125000     1.0080   ; qtot  0.185
    12        OSL     14    OOOTG    O21     12    -0.266000    15.9994   ; qtot -0.081
    13         CL     14    OOOTG    C21     13     0.371000    12.0110   ; qtot  0.290
    14        OBL     14    OOOTG    O22     14    -0.420000    15.9994   ; qtot -0.130
    15       CTL2     14    OOOTG    C22     15    -0.096000    12.0110   ; qtot -0.226
    16       HAL2     14    OOOTG    H2R     16     0.113000     1.0080   ; qtot -0.113
    17       HAL2     14    OOOTG    H2S     17     0.113000     1.0080   ; qtot  0.000
    18       CTL2     14    OOOTG     C3     18    -0.005000    12.0110   ; qtot -0.005
    19       HAL2     14    OOOTG     HX     19     0.110000     1.0080   ; qtot  0.105
    20       HAL2     14    OOOTG     HY     20     0.110000     1.0080   ; qtot  0.215
    21        OSL     14    OOOTG    O31     21    -0.247000    15.9994   ; qtot -0.032
    22         CL     14    OOOTG    C31     22     0.343000    12.0110   ; qtot  0.311
    23        OBL     14    OOOTG    O32     23    -0.415000    15.9994   ; qtot -0.104
    24       CTL2     14    OOOTG    C32     24    -0.104000    12.0110   ; qtot -0.208
    25       HAL2     14    OOOTG    H2X     25     0.104000     1.0080   ; qtot -0.104
    26       HAL2     14    OOOTG    H2Y     26     0.104000     1.0080   ; qtot  0.000
    27       CTL2     14    OOOTG    C13     27    -0.180000    12.0110   ; qtot -0.180
    28       HAL2     14    OOOTG    H3P     28     0.090000     1.0080   ; qtot -0.090
    29       HAL2     14    OOOTG    H3Q     29     0.090000     1.0080   ; qtot  0.000
    30       CTL2     14    OOOTG    C14     30    -0.180000    12.0110   ; qtot -0.180
    31       HAL2     14    OOOTG    H4P     31     0.090000     1.0080   ; qtot -0.090
    32       HAL2     14    OOOTG    H4Q     32     0.090000     1.0080   ; qtot  0.000
    33       CTL2     14    OOOTG    C15     33    -0.180000    12.0110   ; qtot -0.180
    34       HAL2     14    OOOTG    H5P     34     0.090000     1.0080   ; qtot -0.090
    35       HAL2     14    OOOTG    H5Q     35     0.090000     1.0080   ; qtot  0.000
    36       CTL2     14    OOOTG    C16     36    -0.180000    12.0110   ; qtot -0.180
    37       HAL2     14    OOOTG    H6P     37     0.090000     1.0080   ; qtot -0.090
    38       HAL2     14    OOOTG    H6Q     38     0.090000     1.0080   ; qtot  0.000
    39       CTL2     14    OOOTG    C17     39    -0.180000    12.0110   ; qtot -0.180
    40       HAL2     14    OOOTG    H7P     40     0.090000     1.0080   ; qtot -0.090
    41       HAL2     14    OOOTG    H7Q     41     0.090000     1.0080   ; qtot  0.000
    42       CTL2     14    OOOTG    C18     42    -0.180000    12.0110   ; qtot -0.180
    43       HAL2     14    OOOTG    H8P     43     0.090000     1.0080   ; qtot -0.090
    44       HAL2     14    OOOTG    H8Q     44     0.090000     1.0080   ; qtot  0.000
    45       CEL1     14    OOOTG    C19     45    -0.150000    12.0110   ; qtot -0.150
    46       HEL1     14    OOOTG    H9P     46     0.150000     1.0080   ; qtot  0.000
    47       CEL1     14    OOOTG   C110     47    -0.150000    12.0110   ; qtot -0.150
    48       HEL1     14    OOOTG   H10P     48     0.150000     1.0080   ; qtot  0.000
    49       CTL2     14    OOOTG   C111     49    -0.180000    12.0110   ; qtot -0.180
    50       HAL2     14    OOOTG   H11P     50     0.090000     1.0080   ; qtot -0.090
    51       HAL2     14    OOOTG   H11Q     51     0.090000     1.0080   ; qtot  0.000
    52       CTL2     14    OOOTG   C112     52    -0.180000    12.0110   ; qtot -0.180
    53       HAL2     14    OOOTG   H12P     53     0.090000     1.0080   ; qtot -0.090
    54       HAL2     14    OOOTG   H12Q     54     0.090000     1.0080   ; qtot  0.000
    55       CTL2     14    OOOTG   C113     55    -0.180000    12.0110   ; qtot -0.180
    56       HAL2     14    OOOTG   H13P     56     0.090000     1.0080   ; qtot -0.090
    57       HAL2     14    OOOTG   H13Q     57     0.090000     1.0080   ; qtot  0.000
    58       CTL2     14    OOOTG   C114     58    -0.180000    12.0110   ; qtot -0.180
    59       HAL2     14    OOOTG   H14P     59     0.090000     1.0080   ; qtot -0.090
    60       HAL2     14    OOOTG   H14Q     60     0.090000     1.0080   ; qtot  0.000
    61       CTL2     14    OOOTG   C115     61    -0.180000    12.0110   ; qtot -0.180
    62       HAL2     14    OOOTG   H15P     62     0.090000     1.0080   ; qtot -0.090
    63       HAL2     14    OOOTG   H15Q     63     0.090000     1.0080   ; qtot  0.000
    64       CTL2     14    OOOTG   C116     64    -0.180000    12.0110   ; qtot -0.180
    65       HAL2     14    OOOTG   H16P     65     0.090000     1.0080   ; qtot -0.090
    66       HAL2     14    OOOTG   H16Q     66     0.090000     1.0080   ; qtot  0.000
    67       CTL2     14    OOOTG   C117     67    -0.180000    12.0110   ; qtot -0.180
    68       HAL2     14    OOOTG   H17P     68     0.090000     1.0080   ; qtot -0.090
    69       HAL2     14    OOOTG   H17Q     69     0.090000     1.0080   ; qtot  0.000
    70       CTL3     14    OOOTG   C118     70    -0.270000    12.0110   ; qtot -0.270
    71       HAL3     14    OOOTG   H18P     71     0.090000     1.0080   ; qtot -0.180
    72       HAL3     14    OOOTG   H18Q     72     0.090000     1.0080   ; qtot -0.090
    73       HAL3     14    OOOTG   H18O     73     0.090000     1.0080   ; qtot  0.000
    74       CTL2     14    OOOTG    C23     74    -0.180000    12.0110   ; qtot -0.180
    75       HAL2     14    OOOTG    H3R     75     0.090000     1.0080   ; qtot -0.090
    76       HAL2     14    OOOTG    H3S     76     0.090000     1.0080   ; qtot  0.000
    77       CTL2     14    OOOTG    C24     77    -0.180000    12.0110   ; qtot -0.180
    78       HAL2     14    OOOTG    H4R     78     0.090000     1.0080   ; qtot -0.090
    79       HAL2     14    OOOTG    H4S     79     0.090000     1.0080   ; qtot  0.000
    80       CTL2     14    OOOTG    C25     80    -0.180000    12.0110   ; qtot -0.180
    81       HAL2     14    OOOTG    H5R     81     0.090000     1.0080   ; qtot -0.090
    82       HAL2     14    OOOTG    H5S     82     0.090000     1.0080   ; qtot  0.000
    83       CTL2     14    OOOTG    C26     83    -0.180000    12.0110   ; qtot -0.180
    84       HAL2     14    OOOTG    H6R     84     0.090000     1.0080   ; qtot -0.090
    85       HAL2     14    OOOTG    H6S     85     0.090000     1.0080   ; qtot  0.000
    86       CTL2     14    OOOTG    C27     86    -0.180000    12.0110   ; qtot -0.180
    87       HAL2     14    OOOTG    H7R     87     0.090000     1.0080   ; qtot -0.090
    88       HAL2     14    OOOTG    H7S     88     0.090000     1.0080   ; qtot  0.000
    89       CTL2     14    OOOTG    C28     89    -0.180000    12.0110   ; qtot -0.180
    90       HAL2     14    OOOTG    H8R     90     0.090000     1.0080   ; qtot -0.090
    91       HAL2     14    OOOTG    H8S     91     0.090000     1.0080   ; qtot  0.000
    92       CEL1     14    OOOTG    C29     92    -0.150000    12.0110   ; qtot -0.150
    93       HEL1     14    OOOTG    H9R     93     0.150000     1.0080   ; qtot  0.000
    94       CEL1     14    OOOTG   C210     94    -0.150000    12.0110   ; qtot -0.150
    95       HEL1     14    OOOTG   H10R     95     0.150000     1.0080   ; qtot  0.000
    96       CTL2     14    OOOTG   C211     96    -0.180000    12.0110   ; qtot -0.180
    97       HAL2     14    OOOTG   H11R     97     0.090000     1.0080   ; qtot -0.090
    98       HAL2     14    OOOTG   H11S     98     0.090000     1.0080   ; qtot  0.000
    99       CTL2     14    OOOTG   C212     99    -0.180000    12.0110   ; qtot -0.180
   100       HAL2     14    OOOTG   H12R    100     0.090000     1.0080   ; qtot -0.090
   101       HAL2     14    OOOTG   H12S    101     0.090000     1.0080   ; qtot  0.000
   102       CTL2     14    OOOTG   C213    102    -0.180000    12.0110   ; qtot -0.180
   103       HAL2     14    OOOTG   H13R    103     0.090000     1.0080   ; qtot -0.090
   104       HAL2     14    OOOTG   H13S    104     0.090000     1.0080   ; qtot  0.000
   105       CTL2     14    OOOTG   C214    105    -0.180000    12.0110   ; qtot -0.180
   106       HAL2     14    OOOTG   H14R    106     0.090000     1.0080   ; qtot -0.090
   107       HAL2     14    OOOTG   H14S    107     0.090000     1.0080   ; qtot  0.000
   108       CTL2     14    OOOTG   C215    108    -0.180000    12.0110   ; qtot -0.180
   109       HAL2     14    OOOTG   H15R    109     0.090000     1.0080   ; qtot -0.090
   110       HAL2     14    OOOTG   H15S    110     0.090000     1.0080   ; qtot  0.000
   111       CTL2     14    OOOTG   C216    111    -0.180000    12.0110   ; qtot -0.180
   112       HAL2     14    OOOTG   H16R    112     0.090000     1.0080   ; qtot -0.090
   113       HAL2     14    OOOTG   H16S    113     0.090000     1.0080   ; qtot  0.000
   114       CTL2     14    OOOTG   C217    114    -0.180000    12.0110   ; qtot -0.180
   115       HAL2     14    OOOTG   H17R    115     0.090000     1.0080   ; qtot -0.090
   116       HAL2     14    OOOTG   H17S    116     0.090000     1.0080   ; qtot  0.000
   117       CTL3     14    OOOTG   C218    117    -0.270000    12.0110   ; qtot -0.270
   118       HAL3     14    OOOTG   H18R    118     0.090000     1.0080   ; qtot -0.180
   119       HAL3     14    OOOTG   H18S    119     0.090000     1.0080   ; qtot -0.090
   120       HAL3     14    OOOTG   H18T    120     0.090000     1.0080   ; qtot  0.000
   121       CTL2     14    OOOTG    C33    121    -0.180000    12.0110   ; qtot -0.180
   122       HAL2     14    OOOTG    H3X    122     0.090000     1.0080   ; qtot -0.090
   123       HAL2     14    OOOTG    H3Y    123     0.090000     1.0080   ; qtot  0.000
   124       CTL2     14    OOOTG    C34    124    -0.180000    12.0110   ; qtot -0.180
   125       HAL2     14    OOOTG    H4X    125     0.090000     1.0080   ; qtot -0.090
   126       HAL2     14    OOOTG    H4Y    126     0.090000     1.0080   ; qtot  0.000
   127       CTL2     14    OOOTG    C35    127    -0.180000    12.0110   ; qtot -0.180
   128       HAL2     14    OOOTG    H5X    128     0.090000     1.0080   ; qtot -0.090
   129       HAL2     14    OOOTG    H5Y    129     0.090000     1.0080   ; qtot  0.000
   130       CTL2     14    OOOTG    C36    130    -0.180000    12.0110   ; qtot -0.180
   131       HAL2     14    OOOTG    H6X    131     0.090000     1.0080   ; qtot -0.090
   132       HAL2     14    OOOTG    H6Y    132     0.090000     1.0080   ; qtot  0.000
   133       CTL2     14    OOOTG    C37    133    -0.180000    12.0110   ; qtot -0.180
   134       HAL2     14    OOOTG    H7X    134     0.090000     1.0080   ; qtot -0.090
   135       HAL2     14    OOOTG    H7Y    135     0.090000     1.0080   ; qtot  0.000
   136       CTL2     14    OOOTG    C38    136    -0.180000    12.0110   ; qtot -0.180
   137       HAL2     14    OOOTG    H8X    137     0.090000     1.0080   ; qtot -0.090
   138       HAL2     14    OOOTG    H8Y    138     0.090000     1.0080   ; qtot  0.000
   139       CEL1     14    OOOTG    C39    139    -0.150000    12.0110   ; qtot -0.150
   140       HEL1     14    OOOTG    H9X    140     0.150000     1.0080   ; qtot  0.000
   141       CEL1     14    OOOTG   C310    141    -0.150000    12.0110   ; qtot -0.150
   142       HEL1     14    OOOTG   H10X    142     0.150000     1.0080   ; qtot  0.000
   143       CTL2     14    OOOTG   C311    143    -0.180000    12.0110   ; qtot -0.180
   144       HAL2     14    OOOTG   H11X    144     0.090000     1.0080   ; qtot -0.090
   145       HAL2     14    OOOTG   H11Y    145     0.090000     1.0080   ; qtot  0.000
   146       CTL2     14    OOOTG   C312    146    -0.180000    12.0110   ; qtot -0.180
   147       HAL2     14    OOOTG   H12X    147     0.090000     1.0080   ; qtot -0.090
   148       HAL2     14    OOOTG   H12Y    148     0.090000     1.0080   ; qtot  0.000
   149       CTL2     14    OOOTG   C313    149    -0.180000    12.0110   ; qtot -0.180
   150       HAL2     14    OOOTG   H13X    150     0.090000     1.0080   ; qtot -0.090
   151       HAL2     14    OOOTG   H13Y    151     0.090000     1.0080   ; qtot  0.000
   152       CTL2     14    OOOTG   C314    152    -0.180000    12.0110   ; qtot -0.180
   153       HAL2     14    OOOTG   H14X    153     0.090000     1.0080   ; qtot -0.090
   154       HAL2     14    OOOTG   H14Y    154     0.090000     1.0080   ; qtot  0.000
   155       CTL2     14    OOOTG   C315    155    -0.180000    12.0110   ; qtot -0.180
   156       HAL2     14    OOOTG   H15X    156     0.090000     1.0080   ; qtot -0.090
   157       HAL2     14    OOOTG   H15Y    157     0.090000     1.0080   ; qtot  0.000
   158       CTL2     14    OOOTG   C316    158    -0.180000    12.0110   ; qtot -0.180
   159       HAL2     14    OOOTG   H16X    159     0.090000     1.0080   ; qtot -0.090
   160       HAL2     14    OOOTG   H16Y    160     0.090000     1.0080   ; qtot  0.000
   161       CTL2     14    OOOTG   C317    161    -0.180000    12.0110   ; qtot -0.180
   162       HAL2     14    OOOTG   H17X    162     0.090000     1.0080   ; qtot -0.090
   163       HAL2     14    OOOTG   H17Y    163     0.090000     1.0080   ; qtot  0.000
   164       CTL3     14    OOOTG   C318    164    -0.270000    12.0110   ; qtot -0.270
   165       HAL3     14    OOOTG   H18X    165     0.090000     1.0080   ; qtot -0.180
   166       HAL3     14    OOOTG   H18Y    166     0.090000     1.0080   ; qtot -0.090
   167       HAL3     14    OOOTG   H18Z    167     0.090000     1.0080   ; qtot  0.000

[ bonds ]
; ai	aj	funct	b0	Kb
    1     2     1
    1     3     1
    1     4     1
    1    10     1
    4     6     1
    6     5     1
    6     7     1
    7     8     1
    7     9     1
    7    27     1
   10    11     1
   10    12     1
   10    18     1
   12    13     1
   13    14     1
   13    15     1
   15    16     1
   15    17     1
   15    74     1
   18    19     1
   18    20     1
   18    21     1
   21    22     1
   22    23     1
   22    24     1
   24    25     1
   24    26     1
   24   121     1
   27    28     1
   27    29     1
   27    30     1
   30    31     1
   30    32     1
   30    33     1
   33    34     1
   33    35     1
   33    36     1
   36    37     1
   36    38     1
   36    39     1
   39    40     1
   39    41     1
   39    42     1
   42    43     1
   42    44     1
   42    45     1
   45    46     1
   45    47     1
   47    48     1
   47    49     1
   49    50     1
   49    51     1
   49    52     1
   52    53     1
   52    54     1
   52    55     1
   55    56     1
   55    57     1
   55    58     1
   58    59     1
   58    60     1
   58    61     1
   61    62     1
   61    63     1
   61    64     1
   64    65     1
   64    66     1
   64    67     1
   67    68     1
   67    69     1
   67    70     1
   70    71     1
   70    72     1
   70    73     1
   74    75     1
   74    76     1
   74    77     1
   77    78     1
   77    79     1
   77    80     1
   80    81     1
   80    82     1
   80    83     1
   83    84     1
   83    85     1
   83    86     1
   86    87     1
   86    88     1
   86    89     1
   89    90     1
   89    91     1
   89    92     1
   92    93     1
   92    94     1
   94    95     1
   94    96     1
   96    97     1
   96    98     1
   96    99     1
   99   100     1
   99   101     1
   99   102     1
  102   103     1
  102   104     1
  102   105     1
  105   106     1
  105   107     1
  105   108     1
  108   109     1
  108   110     1
  108   111     1
  111   112     1
  111   113     1
  111   114     1
  114   115     1
  114   116     1
  114   117     1
  117   118     1
  117   119     1
  117   120     1
  121   122     1
  121   123     1
  121   124     1
  124   125     1
  124   126     1
  124   127     1
  127   128     1
  127   129     1
  127   130     1
  130   131     1
  130   132     1
  130   133     1
  133   134     1
  133   135     1
  133   136     1
  136   137     1
  136   138     1
  136   139     1
  139   140     1
  139   141     1
  141   142     1
  141   143     1
  143   144     1
  143   145     1
  143   146     1
  146   147     1
  146   148     1
  146   149     1
  149   150     1
  149   151     1
  149   152     1
  152   153     1
  152   154     1
  152   155     1
  155   156     1
  155   157     1
  155   158     1
  158   159     1
  158   160     1
  158   161     1
  161   162     1
  161   163     1
  161   164     1
  164   165     1
  164   166     1
  164   167     1

[ pairs ]
; ai	aj	funct	c6	c12 or
; ai	aj	funct	fudgeQQ	q1	q2	c6	c12
    1     5     1
    1     7     1
    1    13     1
    1    19     1
    1    20     1
    1    21     1
    2     6     1
    2    11     1
    2    12     1
    2    18     1
    3     6     1
    3    11     1
    3    12     1
    3    18     1
    4     8     1
    4     9     1
    4    11     1
    4    12     1
    4    18     1
    4    27     1
    5     8     1
    5     9     1
    5    27     1
    6    10     1
    6    28     1
    6    29     1
    6    30     1
    7    31     1
    7    32     1
    7    33     1
    8    28     1
    8    29     1
    8    30     1
    9    28     1
    9    29     1
    9    30     1
   10    14     1
   10    15     1
   10    22     1
   11    13     1
   11    19     1
   11    20     1
   11    21     1
   12    16     1
   12    17     1
   12    19     1
   12    20     1
   12    21     1
   12    74     1
   13    18     1
   13    75     1
   13    76     1
   13    77     1
   14    16     1
   14    17     1
   14    74     1
   15    78     1
   15    79     1
   15    80     1
   16    75     1
   16    76     1
   16    77     1
   17    75     1
   17    76     1
   17    77     1
   18    23     1
   18    24     1
   19    22     1
   20    22     1
   21    25     1
   21    26     1
   21   121     1
   22   122     1
   22   123     1
   22   124     1
   23    25     1
   23    26     1
   23   121     1
   24   125     1
   24   126     1
   24   127     1
   25   122     1
   25   123     1
   25   124     1
   26   122     1
   26   123     1
   26   124     1
   27    34     1
   27    35     1
   27    36     1
   28    31     1
   28    32     1
   28    33     1
   29    31     1
   29    32     1
   29    33     1
   30    37     1
   30    38     1
   30    39     1
   31    34     1
   31    35     1
   31    36     1
   32    34     1
   32    35     1
   32    36     1
   33    40     1
   33    41     1
   33    42     1
   34    37     1
   34    38     1
   34    39     1
   35    37     1
   35    38     1
   35    39     1
   36    43     1
   36    44     1
   36    45     1
   37    40     1
   37    41     1
   37    42     1
   38    40     1
   38    41     1
   38    42     1
   39    46     1
   39    47     1
   40    43     1
   40    44     1
   40    45     1
   41    43     1
   41    44     1
   41    45     1
   42    48     1
   42    49     1
   43    46     1
   43    47     1
   44    46     1
   44    47     1
   45    50     1
   45    51     1
   45    52     1
   46    48     1
   46    49     1
   47    53     1
   47    54     1
   47    55     1
   48    50     1
   48    51     1
   48    52     1
   49    56     1
   49    57     1
   49    58     1
   50    53     1
   50    54     1
   50    55     1
   51    53     1
   51    54     1
   51    55     1
   52    59     1
   52    60     1
   52    61     1
   53    56     1
   53    57     1
   53    58     1
   54    56     1
   54    57     1
   54    58     1
   55    62     1
   55    63     1
   55    64     1
   56    59     1
   56    60     1
   56    61     1
   57    59     1
   57    60     1
   57    61     1
   58    65     1
   58    66     1
   58    67     1
   59    62     1
   59    63     1
   59    64     1
   60    62     1
   60    63     1
   60    64     1
   61    68     1
   61    69     1
   61    70     1
   62    65     1
   62    66     1
   62    67     1
   63    65     1
   63    66     1
   63    67     1
   64    71     1
   64    72     1
   64    73     1
   65    68     1
   65    69     1
   65    70     1
   66    68     1
   66    69     1
   66    70     1
   68    71     1
   68    72     1
   68    73     1
   69    71     1
   69    72     1
   69    73     1
   74    81     1
   74    82     1
   74    83     1
   75    78     1
   75    79     1
   75    80     1
   76    78     1
   76    79     1
   76    80     1
   77    84     1
   77    85     1
   77    86     1
   78    81     1
   78    82     1
   78    83     1
   79    81     1
   79    82     1
   79    83     1
   80    87     1
   80    88     1
   80    89     1
   81    84     1
   81    85     1
   81    86     1
   82    84     1
   82    85     1
   82    86     1
   83    90     1
   83    91     1
   83    92     1
   84    87     1
   84    88     1
   84    89     1
   85    87     1
   85    88     1
   85    89     1
   86    93     1
   86    94     1
   87    90     1
   87    91     1
   87    92     1
   88    90     1
   88    91     1
   88    92     1
   89    95     1
   89    96     1
   90    93     1
   90    94     1
   91    93     1
   91    94     1
   92    97     1
   92    98     1
   92    99     1
   93    95     1
   93    96     1
   94   100     1
   94   101     1
   94   102     1
   95    97     1
   95    98     1
   95    99     1
   96   103     1
   96   104     1
   96   105     1
   97   100     1
   97   101     1
   97   102     1
   98   100     1
   98   101     1
   98   102     1
   99   106     1
   99   107     1
   99   108     1
  100   103     1
  100   104     1
  100   105     1
  101   103     1
  101   104     1
  101   105     1
  102   109     1
  102   110     1
  102   111     1
  103   106     1
  103   107     1
  103   108     1
  104   106     1
  104   107     1
  104   108     1
  105   112     1
  105   113     1
  105   114     1
  106   109     1
  106   110     1
  106   111     1
  107   109     1
  107   110     1
  107   111     1
  108   115     1
  108   116     1
  108   117     1
  109   112     1
  109   113     1
  109   114     1
  110   112     1
  110   113     1
  110   114     1
  111   118     1
  111   119     1
  111   120     1
  112   115     1
  112   116     1
  112   117     1
  113   115     1
  113   116     1
  113   117     1
  115   118     1
  115   119     1
  115   120     1
  116   118     1
  116   119     1
  116   120     1
  121   128     1
  121   129     1
  121   130     1
  122   125     1
  122   126     1
  122   127     1
  123   125     1
  123   126     1
  123   127     1
  124   131     1
  124   132     1
  124   133     1
  125   128     1
  125   129     1
  125   130     1
  126   128     1
  126   129     1
  126   130     1
  127   134     1
  127   135     1
  127   136     1
  128   131     1
  128   132     1
  128   133     1
  129   131     1
  129   132     1
  129   133     1
  130   137     1
  130   138     1
  130   139     1
  131   134     1
  131   135     1
  131   136     1
  132   134     1
  132   135     1
  132   136     1
  133   140     1
  133   141     1
  134   137     1
  134   138     1
  134   139     1
  135   137     1
  135   138     1
  135   139     1
  136   142     1
  136   143     1
  137   140     1
  137   141     1
  138   140     1
  138   141     1
  139   144     1
  139   145     1
  139   146     1
  140   142     1
  140   143     1
  141   147     1
  141   148     1
  141   149     1
  142   144     1
  142   145     1
  142   146     1
  143   150     1
  143   151     1
  143   152     1
  144   147     1
  144   148     1
  144   149     1
  145   147     1
  145   148     1
  145   149     1
  146   153     1
  146   154     1
  146   155     1
  147   150     1
  147   151     1
  147   152     1
  148   150     1
  148   151     1
  148   152     1
  149   156     1
  149   157     1
  149   158     1
  150   153     1
  150   154     1
  150   155     1
  151   153     1
  151   154     1
  151   155     1
  152   159     1
  152   160     1
  152   161     1
  153   156     1
  153   157     1
  153   158     1
  154   156     1
  154   157     1
  154   158     1
  155   162     1
  155   163     1
  155   164     1
  156   159     1
  156   160     1
  156   161     1
  157   159     1
  157   160     1
  157   161     1
  158   165     1
  158   166     1
  158   167     1
  159   162     1
  159   163     1
  159   164     1
  160   162     1
  160   163     1
  160   164     1
  162   165     1
  162   166     1
  162   167     1
  163   165     1
  163   166     1
  163   167     1

[ angles ] 
; ai	aj	ak	funct	th0	cth	S0	Kub
    2     1     3     5
    2     1     4     5
    2     1    10     5
    3     1     4     5
    3     1    10     5
    4     1    10     5
    1     4     6     5
    4     6     5     5
    4     6     7     5
    5     6     7     5
    6     7     8     5
    6     7     9     5
    6     7    27     5
    8     7     9     5
    8     7    27     5
    9     7    27     5
    1    10    11     5
    1    10    12     5
    1    10    18     5
   11    10    12     5
   11    10    18     5
   12    10    18     5
   10    12    13     5
   12    13    14     5
   12    13    15     5
   14    13    15     5
   13    15    16     5
   13    15    17     5
   13    15    74     5
   16    15    17     5
   16    15    74     5
   17    15    74     5
   10    18    19     5
   10    18    20     5
   10    18    21     5
   19    18    20     5
   19    18    21     5
   20    18    21     5
   18    21    22     5
   21    22    23     5
   21    22    24     5
   23    22    24     5
   22    24    25     5
   22    24    26     5
   22    24   121     5
   25    24    26     5
   25    24   121     5
   26    24   121     5
    7    27    28     5
    7    27    29     5
    7    27    30     5
   28    27    29     5
   28    27    30     5
   29    27    30     5
   27    30    31     5
   27    30    32     5
   27    30    33     5
   31    30    32     5
   31    30    33     5
   32    30    33     5
   30    33    34     5
   30    33    35     5
   30    33    36     5
   34    33    35     5
   34    33    36     5
   35    33    36     5
   33    36    37     5
   33    36    38     5
   33    36    39     5
   37    36    38     5
   37    36    39     5
   38    36    39     5
   36    39    40     5
   36    39    41     5
   36    39    42     5
   40    39    41     5
   40    39    42     5
   41    39    42     5
   39    42    43     5
   39    42    44     5
   39    42    45     5
   43    42    44     5
   43    42    45     5
   44    42    45     5
   42    45    46     5
   42    45    47     5
   46    45    47     5
   45    47    48     5
   45    47    49     5
   48    47    49     5
   47    49    50     5
   47    49    51     5
   47    49    52     5
   50    49    51     5
   50    49    52     5
   51    49    52     5
   49    52    53     5
   49    52    54     5
   49    52    55     5
   53    52    54     5
   53    52    55     5
   54    52    55     5
   52    55    56     5
   52    55    57     5
   52    55    58     5
   56    55    57     5
   56    55    58     5
   57    55    58     5
   55    58    59     5
   55    58    60     5
   55    58    61     5
   59    58    60     5
   59    58    61     5
   60    58    61     5
   58    61    62     5
   58    61    63     5
   58    61    64     5
   62    61    63     5
   62    61    64     5
   63    61    64     5
   61    64    65     5
   61    64    66     5
   61    64    67     5
   65    64    66     5
   65    64    67     5
   66    64    67     5
   64    67    68     5
   64    67    69     5
   64    67    70     5
   68    67    69     5
   68    67    70     5
   69    67    70     5
   67    70    71     5
   67    70    72     5
   67    70    73     5
   71    70    72     5
   71    70    73     5
   72    70    73     5
   15    74    75     5
   15    74    76     5
   15    74    77     5
   75    74    76     5
   75    74    77     5
   76    74    77     5
   74    77    78     5
   74    77    79     5
   74    77    80     5
   78    77    79     5
   78    77    80     5
   79    77    80     5
   77    80    81     5
   77    80    82     5
   77    80    83     5
   81    80    82     5
   81    80    83     5
   82    80    83     5
   80    83    84     5
   80    83    85     5
   80    83    86     5
   84    83    85     5
   84    83    86     5
   85    83    86     5
   83    86    87     5
   83    86    88     5
   83    86    89     5
   87    86    88     5
   87    86    89     5
   88    86    89     5
   86    89    90     5
   86    89    91     5
   86    89    92     5
   90    89    91     5
   90    89    92     5
   91    89    92     5
   89    92    93     5
   89    92    94     5
   93    92    94     5
   92    94    95     5
   92    94    96     5
   95    94    96     5
   94    96    97     5
   94    96    98     5
   94    96    99     5
   97    96    98     5
   97    96    99     5
   98    96    99     5
   96    99   100     5
   96    99   101     5
   96    99   102     5
  100    99   101     5
  100    99   102     5
  101    99   102     5
   99   102   103     5
   99   102   104     5
   99   102   105     5
  103   102   104     5
  103   102   105     5
  104   102   105     5
  102   105   106     5
  102   105   107     5
  102   105   108     5
  106   105   107     5
  106   105   108     5
  107   105   108     5
  105   108   109     5
  105   108   110     5
  105   108   111     5
  109   108   110     5
  109   108   111     5
  110   108   111     5
  108   111   112     5
  108   111   113     5
  108   111   114     5
  112   111   113     5
  112   111   114     5
  113   111   114     5
  111   114   115     5
  111   114   116     5
  111   114   117     5
  115   114   116     5
  115   114   117     5
  116   114   117     5
  114   117   118     5
  114   117   119     5
  114   117   120     5
  118   117   119     5
  118   117   120     5
  119   117   120     5
   24   121   122     5
   24   121   123     5
   24   121   124     5
  122   121   123     5
  122   121   124     5
  123   121   124     5
  121   124   125     5
  121   124   126     5
  121   124   127     5
  125   124   126     5
  125   124   127     5
  126   124   127     5
  124   127   128     5
  124   127   129     5
  124   127   130     5
  128   127   129     5
  128   127   130     5
  129   127   130     5
  127   130   131     5
  127   130   132     5
  127   130   133     5
  131   130   132     5
  131   130   133     5
  132   130   133     5
  130   133   134     5
  130   133   135     5
  130   133   136     5
  134   133   135     5
  134   133   136     5
  135   133   136     5
  133   136   137     5
  133   136   138     5
  133   136   139     5
  137   136   138     5
  137   136   139     5
  138   136   139     5
  136   139   140     5
  136   139   141     5
  140   139   141     5
  139   141   142     5
  139   141   143     5
  142   141   143     5
  141   143   144     5
  141   143   145     5
  141   143   146     5
  144   143   145     5
  144   143   146     5
  145   143   146     5
  143   146   147     5
  143   146   148     5
  143   146   149     5
  147   146   148     5
  147   146   149     5
  148   146   149     5
  146   149   150     5
  146   149   151     5
  146   149   152     5
  150   149   151     5
  150   149   152     5
  151   149   152     5
  149   152   153     5
  149   152   154     5
  149   152   155     5
  153   152   154     5
  153   152   155     5
  154   152   155     5
  152   155   156     5
  152   155   157     5
  152   155   158     5
  156   155   157     5
  156   155   158     5
  157   155   158     5
  155   158   159     5
  155   158   160     5
  155   158   161     5
  159   158   160     5
  159   158   161     5
  160   158   161     5
  158   161   162     5
  158   161   163     5
  158   161   164     5
  162   161   163     5
  162   161   164     5
  163   161   164     5
  161   164   165     5
  161   164   166     5
  161   164   167     5
  165   164   166     5
  165   164   167     5
  166   164   167     5

[ dihedrals ]
; ai	aj	ak	al	funct	phi0	cp	mult
    2     1     4     6     9
    3     1     4     6     9
    2     1    10    11     9
    2     1    10    12     9
    2     1    10    18     9
    3     1    10    11     9
    3     1    10    12     9
    3     1    10    18     9
    4     1    10    11     9
    4     1    10    12     9
    4     1    10    18     9
    6     4     1    10     9
    1     4     6     5     9
    1     4     6     7     9
    4     6     7     8     9
    4     6     7     9     9
    4     6     7    27     9
    5     6     7     8     9
    5     6     7     9     9
    5     6     7    27     9
    6     7    27    28     9
    6     7    27    29     9
    6     7    27    30     9
    8     7    27    28     9
    8     7    27    29     9
    8     7    27    30     9
    9     7    27    28     9
    9     7    27    29     9
    9     7    27    30     9
    1    10    12    13     9
   11    10    12    13     9
    1    10    18    19     9
    1    10    18    20     9
    1    10    18    21     9
   11    10    18    19     9
   11    10    18    20     9
   11    10    18    21     9
   12    10    18    19     9
   12    10    18    20     9
   12    10    18    21     9
   13    12    10    18     9
   10    12    13    14     9
   10    12    13    15     9
   12    13    15    16     9
   12    13    15    17     9
   12    13    15    74     9
   14    13    15    16     9
   14    13    15    17     9
   14    13    15    74     9
   13    15    74    75     9
   13    15    74    76     9
   13    15    74    77     9
   16    15    74    75     9
   16    15    74    76     9
   16    15    74    77     9
   17    15    74    75     9
   17    15    74    76     9
   17    15    74    77     9
   10    18    21    22     9
   19    18    21    22     9
   20    18    21    22     9
   18    21    22    23     9
   18    21    22    24     9
   21    22    24    25     9
   21    22    24    26     9
   21    22    24   121     9
   23    22    24    25     9
   23    22    24    26     9
   23    22    24   121     9
   22    24   121   122     9
   22    24   121   123     9
   22    24   121   124     9
   25    24   121   122     9
   25    24   121   123     9
   25    24   121   124     9
   26    24   121   122     9
   26    24   121   123     9
   26    24   121   124     9
    7    27    30    31     9
    7    27    30    32     9
    7    27    30    33     9
   28    27    30    31     9
   28    27    30    32     9
   28    27    30    33     9
   29    27    30    31     9
   29    27    30    32     9
   29    27    30    33     9
   27    30    33    34     9
   27    30    33    35     9
   27    30    33    36     9
   31    30    33    34     9
   31    30    33    35     9
   31    30    33    36     9
   32    30    33    34     9
   32    30    33    35     9
   32    30    33    36     9
   30    33    36    37     9
   30    33    36    38     9
   30    33    36    39     9
   34    33    36    37     9
   34    33    36    38     9
   34    33    36    39     9
   35    33    36    37     9
   35    33    36    38     9
   35    33    36    39     9
   33    36    39    40     9
   33    36    39    41     9
   33    36    39    42     9
   37    36    39    40     9
   37    36    39    41     9
   37    36    39    42     9
   38    36    39    40     9
   38    36    39    41     9
   38    36    39    42     9
   36    39    42    43     9
   36    39    42    44     9
   36    39    42    45     9
   40    39    42    43     9
   40    39    42    44     9
   40    39    42    45     9
   41    39    42    43     9
   41    39    42    44     9
   41    39    42    45     9
   39    42    45    46     9
   39    42    45    47     9
   43    42    45    46     9
   43    42    45    47     9
   44    42    45    46     9
   44    42    45    47     9
   42    45    47    48     9
   42    45    47    49     9
   46    45    47    48     9
   46    45    47    49     9
   45    47    49    50     9
   45    47    49    51     9
   45    47    49    52     9
   48    47    49    50     9
   48    47    49    51     9
   48    47    49    52     9
   47    49    52    53     9
   47    49    52    54     9
   47    49    52    55     9
   50    49    52    53     9
   50    49    52    54     9
   50    49    52    55     9
   51    49    52    53     9
   51    49    52    54     9
   51    49    52    55     9
   49    52    55    56     9
   49    52    55    57     9
   49    52    55    58     9
   53    52    55    56     9
   53    52    55    57     9
   53    52    55    58     9
   54    52    55    56     9
   54    52    55    57     9
   54    52    55    58     9
   52    55    58    59     9
   52    55    58    60     9
   52    55    58    61     9
   56    55    58    59     9
   56    55    58    60     9
   56    55    58    61     9
   57    55    58    59     9
   57    55    58    60     9
   57    55    58    61     9
   55    58    61    62     9
   55    58    61    63     9
   55    58    61    64     9
   59    58    61    62     9
   59    58    61    63     9
   59    58    61    64     9
   60    58    61    62     9
   60    58    61    63     9
   60    58    61    64     9
   58    61    64    65     9
   58    61    64    66     9
   58    61    64    67     9
   62    61    64    65     9
   62    61    64    66     9
   62    61    64    67     9
   63    61    64    65     9
   63    61    64    66     9
   63    61    64    67     9
   61    64    67    68     9
   61    64    67    69     9
   61    64    67    70     9
   65    64    67    68     9
   65    64    67    69     9
   65    64    67    70     9
   66    64    67    68     9
   66    64    67    69     9
   66    64    67    70     9
   64    67    70    71     9
   64    67    70    72     9
   64    67    70    73     9
   68    67    70    71     9
   68    67    70    72     9
   68    67    70    73     9
   69    67    70    71     9
   69    67    70    72     9
   69    67    70    73     9
   15    74    77    78     9
   15    74    77    79     9
   15    74    77    80     9
   75    74    77    78     9
   75    74    77    79     9
   75    74    77    80     9
   76    74    77    78     9
   76    74    77    79     9
   76    74    77    80     9
   74    77    80    81     9
   74    77    80    82     9
   74    77    80    83     9
   78    77    80    81     9
   78    77    80    82     9
   78    77    80    83     9
   79    77    80    81     9
   79    77    80    82     9
   79    77    80    83     9
   77    80    83    84     9
   77    80    83    85     9
   77    80    83    86     9
   81    80    83    84     9
   81    80    83    85     9
   81    80    83    86     9
   82    80    83    84     9
   82    80    83    85     9
   82    80    83    86     9
   80    83    86    87     9
   80    83    86    88     9
   80    83    86    89     9
   84    83    86    87     9
   84    83    86    88     9
   84    83    86    89     9
   85    83    86    87     9
   85    83    86    88     9
   85    83    86    89     9
   83    86    89    90     9
   83    86    89    91     9
   83    86    89    92     9
   87    86    89    90     9
   87    86    89    91     9
   87    86    89    92     9
   88    86    89    90     9
   88    86    89    91     9
   88    86    89    92     9
   86    89    92    93     9
   86    89    92    94     9
   90    89    92    93     9
   90    89    92    94     9
   91    89    92    93     9
   91    89    92    94     9
   89    92    94    95     9
   89    92    94    96     9
   93    92    94    95     9
   93    92    94    96     9
   92    94    96    97     9
   92    94    96    98     9
   92    94    96    99     9
   95    94    96    97     9
   95    94    96    98     9
   95    94    96    99     9
   94    96    99   100     9
   94    96    99   101     9
   94    96    99   102     9
   97    96    99   100     9
   97    96    99   101     9
   97    96    99   102     9
   98    96    99   100     9
   98    96    99   101     9
   98    96    99   102     9
   96    99   102   103     9
   96    99   102   104     9
   96    99   102   105     9
  100    99   102   103     9
  100    99   102   104     9
  100    99   102   105     9
  101    99   102   103     9
  101    99   102   104     9
  101    99   102   105     9
   99   102   105   106     9
   99   102   105   107     9
   99   102   105   108     9
  103   102   105   106     9
  103   102   105   107     9
  103   102   105   108     9
  104   102   105   106     9
  104   102   105   107     9
  104   102   105   108     9
  102   105   108   109     9
  102   105   108   110     9
  102   105   108   111     9
  106   105   108   109     9
  106   105   108   110     9
  106   105   108   111     9
  107   105   108   109     9
  107   105   108   110     9
  107   105   108   111     9
  105   108   111   112     9
  105   108   111   113     9
  105   108   111   114     9
  109   108   111   112     9
  109   108   111   113     9
  109   108   111   114     9
  110   108   111   112     9
  110   108   111   113     9
  110   108   111   114     9
  108   111   114   115     9
  108   111   114   116     9
  108   111   114   117     9
  112   111   114   115     9
  112   111   114   116     9
  112   111   114   117     9
  113   111   114   115     9
  113   111   114   116     9
  113   111   114   117     9
  111   114   117   118     9
  111   114   117   119     9
  111   114   117   120     9
  115   114   117   118     9
  115   114   117   119     9
  115   114   117   120     9
  116   114   117   118     9
  116   114   117   119     9
  116   114   117   120     9
   24   121   124   125     9
   24   121   124   126     9
   24   121   124   127     9
  122   121   124   125     9
  122   121   124   126     9
  122   121   124   127     9
  123   121   124   125     9
  123   121   124   126     9
  123   121   124   127     9
  121   124   127   128     9
  121   124   127   129     9
  121   124   127   130     9
  125   124   127   128     9
  125   124   127   129     9
  125   124   127   130     9
  126   124   127   128     9
  126   124   127   129     9
  126   124   127   130     9
  124   127   130   131     9
  124   127   130   132     9
  124   127   130   133     9
  128   127   130   131     9
  128   127   130   132     9
  128   127   130   133     9
  129   127   130   131     9
  129   127   130   132     9
  129   127   130   133     9
  127   130   133   134     9
  127   130   133   135     9
  127   130   133   136     9
  131   130   133   134     9
  131   130   133   135     9
  131   130   133   136     9
  132   130   133   134     9
  132   130   133   135     9
  132   130   133   136     9
  130   133   136   137     9
  130   133   136   138     9
  130   133   136   139     9
  134   133   136   137     9
  134   133   136   138     9
  134   133   136   139     9
  135   133   136   137     9
  135   133   136   138     9
  135   133   136   139     9
  133   136   139   140     9
  133   136   139   141     9
  137   136   139   140     9
  137   136   139   141     9
  138   136   139   140     9
  138   136   139   141     9
  136   139   141   142     9
  136   139   141   143     9
  140   139   141   142     9
  140   139   141   143     9
  139   141   143   144     9
  139   141   143   145     9
  139   141   143   146     9
  142   141   143   144     9
  142   141   143   145     9
  142   141   143   146     9
  141   143   146   147     9
  141   143   146   148     9
  141   143   146   149     9
  144   143   146   147     9
  144   143   146   148     9
  144   143   146   149     9
  145   143   146   147     9
  145   143   146   148     9
  145   143   146   149     9
  143   146   149   150     9
  143   146   149   151     9
  143   146   149   152     9
  147   146   149   150     9
  147   146   149   151     9
  147   146   149   152     9
  148   146   149   150     9
  148   146   149   151     9
  148   146   149   152     9
  146   149   152   153     9
  146   149   152   154     9
  146   149   152   155     9
  150   149   152   153     9
  150   149   152   154     9
  150   149   152   155     9
  151   149   152   153     9
  151   149   152   154     9
  151   149   152   155     9
  149   152   155   156     9
  149   152   155   157     9
  149   152   155   158     9
  153   152   155   156     9
  153   152   155   157     9
  153   152   155   158     9
  154   152   155   156     9
  154   152   155   157     9
  154   152   155   158     9
  152   155   158   159     9
  152   155   158   160     9
  152   155   158   161     9
  156   155   158   159     9
  156   155   158   160     9
  156   155   158   161     9
  157   155   158   159     9
  157   155   158   160     9
  157   155   158   161     9
  155   158   161   162     9
  155   158   161   163     9
  155   158   161   164     9
  159   158   161   162     9
  159   158   161   163     9
  159   158   161   164     9
  160   158   161   162     9
  160   158   161   163     9
  160   158   161   164     9
  158   161   164   165     9
  158   161   164   166     9
  158   161   164   167     9
  162   161   164   165     9
  162   161   164   166     9
  162   161   164   167     9
  163   161   164   165     9
  163   161   164   166     9
  163   161   164   167     9

[ dihedrals ]
; ai	aj	ak	al	funct	q0	cq
    6     4     7     5     2
   13    12    15    14     2
   22    21    24    23     2

#ifdef POSRES
[ position_restraints ]
   10     1     0.0             0.0            POSRES_FC_LIPID
#endif

#ifdef DIHRES
[ dihedral_restraints ]
    1    18    10    12     1   -120.0      2.5       DIHRES_FC
   42    45    47    49     1      0.0      0.0       DIHRES_FC
   89    92    94    96     1      0.0      0.0       DIHRES_FC
  136   139   141   143     1      0.0      0.0       DIHRES_FC
#endif
