Dodecane box
 4050
    1DEC      C    1   0.803   3.977   4.518 -0.0277 -0.1360  0.3063
    1DEC      C    2   0.956   3.617   4.308 -0.2841  0.0442  0.1521
    1DEC      C    3   1.142   3.242   4.055  0.0636  0.0270  0.0410
    2DEC      C    4   1.938   3.340   1.032 -0.0961 -0.1373 -0.1123
    2DEC      C    5   2.319   3.110   1.207  0.1573 -0.1245  0.0075
    2DEC      C    6   2.578   2.785   1.367 -0.2013  0.2328  0.0190
    3DEC      C    7   0.711   1.876   6.221  0.1282  0.1486 -0.0948
    3DEC      C    8   0.687   1.473   6.149 -0.0345  0.1080  0.1698
    3DEC      C    9   0.627   1.174   5.771  0.2800  0.0090 -0.2500
    4DEC      C   10   0.407   0.436   3.758  0.1158  0.2568  0.1100
    4DEC      C   11   0.705   0.498   4.004  0.0238 -0.0387 -0.3237
    4DEC      C   12   1.160   0.680   4.060 -0.1834  0.3983 -0.0783
    5DEC      C   13   3.868   5.767   4.222  0.0938 -0.4061  0.0240
    5DEC      C   14   4.077   6.164   4.048 -0.0215  0.1375  0.2943
    5DEC      C   15   4.532   6.291   4.058 -0.1306 -0.1329 -0.0787
    6DEC      C   16   4.221   2.304   7.100  0.0836  0.1760  0.0893
    6DEC      C   17   4.345   2.041   7.381  0.0235 -0.2629  0.2012
    6DEC      C   18   4.318   1.787   7.671 -0.2899  0.1612 -0.2371
    7DEC      C   19   8.496   3.372   0.224  0.2903  0.0242  0.1127
    7DEC      C   20   8.480   3.309   0.753 -0.1456  0.0789 -0.1028
    7DEC      C   21   8.291   3.293   1.277 -0.1696 -0.1826  0.1888
    8DEC      C   22   1.618   0.557   4.228 -0.1938  0.2971 -0.1952
    8DEC      C   23   1.989   0.372   4.177  0.2436  0.1916  0.1257
    8DEC      C   24   2.373   0.150   4.285  0.0993 -0.1528  0.1293
    9DEC      C   25   7.375   2.464   7.110  0.0313  0.1250 -0.1768
    9DEC      C   26   7.160   2.794   7.287  0.1291  0.1960 -0.0003
    9DEC      C   27   7.081   3.130   7.562  0.1240 -0.1303 -0.2208
   10DEC      C   28   3.539   2.502   6.060  0.1263  0.0386  0.0094
   10DEC      C   29   3.956   2.365   5.809  0.0930 -0.0062  0.2777
   10DEC      C   30   3.990   2.389   5.392  0.3004  0.4448  0.0664
   11DEC      C   31   1.234   7.109   4.517 -0.3569  0.2852 -0.0365
   11DEC      C   32   1.396   6.721   4.700 -0.0215  0.1656  0.2742
   11DEC      C   33   1.550   6.399   4.388 -0.0581 -0.3182  0.0652
   12DEC      C   34   3.881   1.602   4.012  0.0484  0.0866  0.0749
   12DEC      C   35   4.231   1.447   3.678 -0.3221 -0.2490 -0.2120
   12DEC      C   36   4.435   1.783   3.485 -0.1789 -0.0137 -0.2071
   13DEC      C   37   6.839   5.679   0.035  0.0533 -0.0470 -0.0792
   13DEC      C   38   6.978   6.102   0.312  0.1792  0.2824 -0.0150
   13DEC      C   39   7.003   6.572   0.301 -0.2212 -0.1566  0.0273
   14DEC      C   40   0.667   6.418   0.069 -0.3535  0.0854 -0.2707
   14DEC      C   41   1.029   6.325  -0.156 -0.3027 -0.2267 -0.0715
   14DEC      C   42   1.350   6.229  -0.161 -0.3831 -0.1126 -0.2577
   15DEC      C   43   2.477   2.933   3.872  0.1461  0.1253  0.0737
   15DEC      C   44   2.354   2.661   4.301 -0.3037 -0.2604  0.0534
   15DEC      C   45   2.123   2.656   4.687 -0.0252  0.0125  0.0814
   16DEC      C   46   4.679   4.037   6.145  0.1000  0.0704 -0.1745
   16DEC      C   47   4.326   3.940   6.274 -0.0594 -0.1956 -0.5987
   16DEC      C   48   3.908   3.824   6.345 -0.0620 -0.0733  0.2372
   17DEC      C   49   5.039   3.376   5.951 -0.0239 -0.1900 -0.3616
   17DEC      C   50   5.040   2.945   6.061  0.2263  0.0729 -0.1866
   17DEC      C   51   5.376   2.622   6.155 -0.0499  0.0871  0.1121
   18DEC      C   52   4.873   5.352   2.379  0.1324  0.0542 -0.0920
   18DEC      C   53   4.881   4.905   2.500  0.3164  0.0199 -0.1685
   18DEC      C   54   4.963   4.405   2.666  0.0725 -0.1058  0.0325
   19DEC      C   55   2.742   2.887   5.899  0.4006 -0.3336 -0.1109
   19DEC      C   56   2.531   2.909   6.270  0.1509  0.1626 -0.1976
   19DEC      C   57   2.239   3.293   6.553  0.2532  0.0748  0.0657
   20DEC      C   58   6.840   5.996   3.892  0.0333 -0.0353 -0.1605
   20DEC      C   59   6.550   5.735   3.818  0.2388  0.0366 -0.0842
   20DEC      C   60   6.274   5.505   4.141  0.1149 -0.1168 -0.1557
   21DEC      C   61   6.129   4.571   4.250  0.0761  0.2249 -0.0382
   21DEC      C   62   6.523   4.344   4.062 -0.0403 -0.0276 -0.4693
   21DEC      C   63   6.934   4.327   3.940 -0.1704  0.2675 -0.0848
   22DEC      C   64   3.737   2.293   2.286 -0.0340 -0.2454 -0.0226
   22DEC      C   65   4.095   2.102   2.399  0.0931  0.3073  0.2194
   22DEC      C   66   4.215   1.716   2.581 -0.1220 -0.0226  0.0867
   23DEC      C   67   3.682   7.246   4.553 -0.0503  0.0480  0.0655
   23DEC      C   68   3.328   7.043   4.172 -0.2016 -0.1416  0.1965
   23DEC      C   69   3.273   6.572   4.094 -0.2115 -0.0685 -0.1959
   24DEC      C   70   2.683   2.640   0.390  0.0922  0.0141  0.1768
   24DEC      C   71   2.573   2.425  -0.038  0.1404 -0.1717  0.0132
   24DEC      C   72   2.141   2.232  -0.191  0.2593 -0.0134  0.2682
   25DEC      C   73   7.589   6.493   3.677  0.0513 -0.0677  0.0100
   25DEC      C   74   7.221   6.303   3.540 -0.1197  0.0988  0.2679
   25DEC      C   75   6.783   6.382   3.538  0.2527 -0.1400 -0.0806
   26DEC      C   76   1.070   4.524   4.446 -0.1252  0.0347  0.1015
   26DEC      C   77   1.219   4.203   4.899  0.2931 -0.1459  0.1230
   26DEC      C   78   1.134   4.097   5.307  0.1973  0.1074 -0.0946
   27DEC      C   79   1.370   5.955   1.088 -0.0373  0.2809  0.3120
   27DEC      C   80   1.088   5.791   0.870 -0.0178 -0.2615  0.2295
   27DEC      C   81   0.867   5.546   0.493  0.0137  0.1363 -0.3703
   28DEC      C   82   7.984   1.091   3.297 -0.1063 -0.3926  0.1270
   28DEC      C   83   7.644   1.226   3.059 -0.1745  0.3831  0.0857
   28DEC      C   84   7.622   1.283   2.607  0.3314 -0.0332  0.1750
   29DEC      C   85   0.379   0.891   4.133 -0.2569 -0.2031  0.0095
   29DEC      C   86   0.140   0.805   3.752 -0.1408 -0.1463 -0.0712
   29DEC      C   87  -0.032   0.649   3.388 -0.1625 -0.0451 -0.0044
   30DEC      C   88   1.717   6.365   0.161  0.2799  0.1818 -0.0316
   30DEC      C   89   1.971   6.591   0.389  0.2009  0.1512  0.1992
   30DEC      C   90   2.315   6.782   0.602  0.0374 -0.1869  0.0057
   31DEC      C   91   0.456   0.650   5.902  0.5247  0.1465 -0.0739
   31DEC      C   92   0.262   1.044   6.119  0.2398 -0.0300  0.2971
   31DEC      C   93  -0.113   1.173   6.226  0.0085  0.0333  0.0232
   32DEC      C   94   4.693   4.735   6.057 -0.0538 -0.0620 -0.0316
   32DEC      C   95   4.802   5.027   5.795  0.2727  0.0491 -0.1446
   32DEC      C   96   4.864   5.452   5.841 -0.1644  0.1439 -0.0546
   33DEC      C   97   2.153   3.844   4.947  0.2311 -0.0722  0.5091
   33DEC      C   98   2.381   3.719   4.610 -0.0916  0.2363  0.0828
   33DEC      C   99   2.819   3.692   4.391  0.2369 -0.0857 -0.0136
   34DEC      C  100   3.217   1.580   2.502 -0.0798 -0.1991  0.0477
   34DEC      C  101   3.410   1.147   2.476  0.1896  0.1457  0.0601
   34DEC      C  102   3.405   0.657   2.499  0.0324  0.0744 -0.2838
   35DEC      C  103   3.942   0.768   5.545 -0.2805  0.3041 -0.3340
   35DEC      C  104   3.677   0.509   5.422 -0.0349 -0.1040  0.0490
   35DEC      C  105   3.510   0.100   5.390  0.0919  0.0276 -0.1230
   36DEC      C  106   5.931   2.881   0.176  0.0223  0.2182 -0.1939
   36DEC      C  107   6.234   2.700   0.290  0.0795 -0.0302 -0.0433
   36DEC      C  108   6.403   2.619   0.681 -0.1694  0.1050  0.3003
   37DEC      C  109   0.538   4.959   0.486  0.0664  0.1096  0.1709
   37DEC      C  110   0.900   5.023   0.259 -0.0678 -0.1452 -0.3308
   37DEC      C  111   1.294   4.971  -0.068 -0.1347 -0.0735  0.0202
   38DEC      C  112   8.488   6.101   1.984 -0.0092 -0.0879 -0.0747
   38DEC      C  113   8.413   5.983   2.393  0.2164  0.3440 -0.0746
   38DEC      C  114   8.622   6.183   2.796 -0.1988 -0.3190  0.0071
   39DEC      C  115   5.034   4.276   5.349 -0.1073  0.0353 -0.0311
   39DEC      C  116   5.135   4.766   5.358 -0.1471 -0.0963 -0.0966
   39DEC      C  117   5.396   4.994   5.044  0.1465  0.0806 -0.1327
   40DEC      C  118   3.973   3.977   0.136 -0.0485  0.0774 -0.1584
   40DEC      C  119   3.919   3.940   0.530 -0.0539  0.3339  0.0883
   40DEC      C  120   3.746   3.786   0.859 -0.1507 -0.3113 -0.0922
   41DEC      C  121   7.977   3.857   5.207  0.2215 -0.2871  0.4129
   41DEC      C  122   7.583   3.997   5.116 -0.1605 -0.1780 -0.0937
   41DEC      C  123   7.163   4.134   4.915  0.3010  0.0541  0.1122
   42DEC      C  124   0.628   5.875   0.938 -0.3548  0.0570  0.0018
   42DEC      C  125   0.966   6.107   1.265 -0.0349 -0.2800  0.0461
   42DEC      C  126   1.109   6.100   1.705 -0.3294 -0.0530  0.1062
   43DEC      C  127   2.668   4.771   2.025 -0.0530 -0.0448 -0.1174
   43DEC      C  128   3.036   5.002   1.834  0.2560 -0.1840  0.3655
   43DEC      C  129   3.322   5.182   1.676 -0.0974  0.2844  0.0536
   44DEC      C  130   4.179   4.110   4.127 -0.4781  0.0848  0.3342
   44DEC      C  131   3.992   4.218   3.793 -0.2589 -0.0203 -0.2870
   44DEC      C  132   3.812   4.576   3.408 -0.2298 -0.2667 -0.0962
   45DEC      C  133   0.724   2.869   2.785  0.1088 -0.1799 -0.3486
   45DEC      C  134   0.837   2.447   2.712  0.0202  0.1145 -0.0852
   45DEC      C  135   0.535   2.056   2.787  0.0098 -0.0127 -0.1529
   46DEC      C  136   5.734   3.681   5.140  0.0231  0.0048 -0.1032
   46DEC      C  137   5.430   3.408   5.053 -0.2335  0.0229 -0.0097
   46DEC      C  138   5.248   2.988   5.025 -0.0344  0.3276  0.1831
   47DEC      C  139   1.669   4.477   2.875 -0.2068 -0.0170  0.1644
   47DEC      C  140   1.779   4.579   3.378  0.0940  0.1615  0.1043
   47DEC      C  141   1.782   4.793   3.803 -0.0823 -0.3731  0.2271
   48DEC      C  142   6.073   4.293   5.484  0.0713  0.2731 -0.2923
   48DEC      C  143   6.196   4.735   5.739  0.2438  0.0628  0.2457
   48DEC      C  144   6.154   4.796   6.228  0.2266  0.0677  0.2212
   49DEC      C  145   5.256   0.086   1.745 -0.1780  0.1959 -0.4781
   49DEC      C  146   5.194   0.062   2.213  0.0304  0.0340 -0.0788
   49DEC      C  147   5.310  -0.236   2.542  0.1378 -0.2654  0.1591
   50DEC      C  148   3.447   5.543   4.310 -0.1286  0.1175 -0.2597
   50DEC      C  149   3.194   5.951   4.175 -0.3132 -0.1469  0.2663
   50DEC      C  150   3.091   6.175   3.811 -0.0662  0.3560 -0.1340
   51DEC      C  151   8.576   5.042   6.562  0.1272  0.1891  0.0747
   51DEC      C  152   8.953   4.733   6.428  0.1792  0.1614 -0.1912
   51DEC      C  153   9.013   4.241   6.519 -0.0644 -0.1853  0.1767
   52DEC      C  154   7.373   5.523   1.516 -0.1909  0.0539 -0.0632
   52DEC      C  155   7.201   5.752   1.872 -0.2867  0.1396  0.0715
   52DEC      C  156   6.970   6.180   1.894  0.3137 -0.1038  0.2561
   53DEC      C  157   7.197   4.993   3.254  0.2389  0.4043  0.1074
   53DEC      C  158   7.510   5.175   2.944  0.1016  0.0840 -0.2386
   53DEC      C  159   7.543   5.346   2.594 -0.3264 -0.1251  0.1414
   54DEC      C  160   1.616   6.670   2.282  0.0880  0.1631  0.2010
   54DEC      C  161   1.220   6.765   2.391 -0.1314 -0.3796  0.0572
   54DEC      C  162   0.804   6.561   2.586 -0.0274 -0.2479  0.0246
   55DEC      C  163   5.872   5.883   1.617  0.1306  0.0357  0.2695
   55DEC      C  164   5.577   6.042   1.781 -0.3298  0.0750 -0.3727
   55DEC      C  165   5.324   6.236   2.094  0.2139  0.1826  0.2075
   56DEC      C  166   7.954   5.811   2.604  0.1184 -0.2189  0.0192
   56DEC      C  167   7.558   5.926   2.851  0.0096  0.1212 -0.1097
   56DEC      C  168   7.390   5.639   3.077 -0.1552 -0.2435  0.0161
   57DEC      C  169   4.628   4.015   5.140  0.0865 -0.5641  0.0680
   57DEC      C  170   5.047   4.226   4.826  0.2290 -0.1440  0.1401
   57DEC      C  171   5.453   4.427   4.823  0.0527  0.1148 -0.0332
   58DEC      C  172   6.007   0.330   4.987  0.0023 -0.1765 -0.0097
   58DEC      C  173   5.830  -0.041   4.915 -0.1182 -0.0329 -0.1391
   58DEC      C  174   5.768  -0.421   4.887 -0.2588  0.2042  0.1388
   59DEC      C  175   3.417   4.924   3.461 -0.0254 -0.0919 -0.2172
   59DEC      C  176   3.469   4.690   3.047 -0.0280 -0.0344  0.0194
   59DEC      C  177   3.424   4.735   2.668 -0.1539  0.0442 -0.3233
   60DEC      C  178   5.082   2.974   3.344  0.0611 -0.1477 -0.2757
   60DEC      C  179   4.888   3.490   3.523 -0.2537  0.2848  0.0141
   60DEC      C  180   4.842   3.944   3.841 -0.0458  0.0540  0.1613
   61DEC      C  181   7.683   6.610   7.273  0.0762  0.1215 -0.0290
   61DEC      C  182   7.989   6.648   7.582  0.2050 -0.0177  0.1893
   61DEC      C  183   8.306   6.513   7.800  0.0016  0.1712 -0.2576
   62DEC      C  184   6.234   6.393   0.562  0.1613  0.1621  0.1225
   62DEC      C  185   6.156   6.002   0.537 -0.0395 -0.0138  0.1692
   62DEC      C  186   6.512   5.859   0.458  0.0919 -0.0300  0.0085
   63DEC      C  187   5.087   1.059   5.737 -0.0751  0.1092 -0.0754
   63DEC      C  188   5.535   1.069   5.839 -0.3687 -0.1378 -0.1425
   63DEC      C  189   5.748   1.284   6.211  0.2514 -0.0686  0.1272
   64DEC      C  190   3.067   0.083   3.562 -0.0546 -0.1206 -0.4431
   64DEC      C  191   3.295   0.510   3.464  0.0478 -0.0402 -0.3024
   64DEC      C  192   3.580   0.948   3.329  0.1276  0.2324 -0.0922
   65DEC      C  193   6.173   6.672   4.230  0.3133 -0.3076 -0.0575
   65DEC      C  194   5.779   6.422   3.989 -0.2129  0.2352  0.0222
   65DEC      C  195   5.590   6.098   3.751 -0.1848  0.1025  0.2030
   66DEC      C  196   2.327   1.264   0.850 -0.2271  0.0467  0.1068
   66DEC      C  197   2.307   1.059   1.250 -0.1922 -0.0605 -0.1039
   66DEC      C  198   2.245   0.973   1.710  0.1881  0.1939 -0.0250
   67DEC      C  199   6.957   0.506   7.007  0.1293  0.0579 -0.0410
   67DEC      C  200   6.534   0.567   6.984  0.1109 -0.0626  0.0450
   67DEC      C  201   6.272   0.767   6.733  0.2278  0.3475  0.2544
   68DEC      C  202   5.875   3.474   4.130  0.1755  0.0106  0.0647
   68DEC      C  203   5.794   3.312   3.617  0.4233 -0.3061  0.0514
   68DEC      C  204   5.530   3.267   3.272  0.1294  0.1988  0.0903
   69DEC      C  205   8.562   4.750   2.363  0.2016  0.2887 -0.1205
   69DEC      C  206   8.667   4.983   2.051 -0.0596 -0.1448  0.0097
   69DEC      C  207   8.888   5.179   1.656 -0.1300  0.1188 -0.0754
   70DEC      C  208   2.837   3.607   6.732 -0.0909 -0.1104  0.0824
   70DEC      C  209   2.753   3.079   6.755  0.0043 -0.0014 -0.0225
   70DEC      C  210   2.735   2.632   6.798 -0.0090  0.3532 -0.1462
   71DEC      C  211   0.373   0.141   7.147  0.0745 -0.3773  0.2436
   71DEC      C  212   0.595   0.316   6.865 -0.0310 -0.2296 -0.3138
   71DEC      C  213   0.569   0.585   6.469  0.0939  0.0399  0.3610
   72DEC      C  214   2.100   5.772   6.679 -0.1534  0.2791  0.1329
   72DEC      C  215   2.211   6.181   6.623  0.2645  0.2482 -0.2202
   72DEC      C  216   2.290   6.705   6.484 -0.0604 -0.4837 -0.3080
   73DEC      C  217   1.014   5.523   1.741 -0.4224 -0.1977 -0.3464
   73DEC      C  218   0.648   5.718   1.912  0.1282 -0.1187  0.1097
   73DEC      C  219   0.303   5.940   2.171  0.0540 -0.0942 -0.0228
   74DEC      C  220   1.483   4.201   0.304  0.0142 -0.1962 -0.1153
   74DEC      C  221   1.530   4.592   0.480  0.1814  0.2227 -0.1459
   74DEC      C  222   1.827   4.821   0.280  0.0130 -0.0288  0.1543
   75DEC      C  223   4.703   4.433   4.224  0.1932 -0.1044 -0.1892
   75DEC      C  224   4.415   4.589   3.883 -0.0589 -0.0874  0.2180
   75DEC      C  225   4.476   4.964   3.744 -0.0785  0.1621 -0.0593
   76DEC      C  226   0.958   0.030   7.113  0.0171  0.1675 -0.2141
   76DEC      C  227   1.350  -0.109   7.069 -0.0057  0.0957  0.2047
   76DEC      C  228   1.756   0.100   7.245  0.1984 -0.1053  0.1397
   77DEC      C  229   3.261   5.978   6.032 -0.1329 -0.1073 -0.0367
   77DEC      C  230   3.133   5.681   6.404 -0.2808 -0.2566 -0.0261
   77DEC      C  231   3.116   5.694   6.878 -0.1733 -0.1513  0.3262
   78DEC      C  232   3.563   6.116   5.613  0.1332  0.1224 -0.1020
   78DEC      C  233   3.445   6.471   5.915 -0.1377 -0.3635  0.1644
   78DEC      C  234   3.386   6.684   6.302  0.0506 -0.1895  0.0389
   79DEC      C  235   1.338   3.988   4.438 -0.0383  0.0647 -0.0691
   79DEC      C  236   1.308   3.762   3.991  0.1088  0.1829 -0.0268
   79DEC      C  237   0.922   3.615   3.814  0.1787 -0.0951  0.1341
   80DEC      C  238   0.037   3.129   4.232  0.2504  0.2490  0.3086
   80DEC      C  239  -0.016   3.501   4.006  0.3277 -0.2596  0.1246
   80DEC      C  240  -0.120   3.686   3.478 -0.0950 -0.0704 -0.0999
   81DEC      C  241   6.095   1.280   6.629  0.0617  0.2291 -0.1193
   81DEC      C  242   5.548   1.227   6.663 -0.1417 -0.3328  0.0361
   81DEC      C  243   5.359   0.863   6.739 -0.4627  0.0063  0.0030
   82DEC      C  244   4.773   7.155   2.547  0.3137  0.0496 -0.1050
   82DEC      C  245   4.939   6.884   2.283 -0.1771  0.1109  0.1017
   82DEC      C  246   5.359   6.698   2.129  0.0648 -0.1177 -0.0179
   83DEC      C  247   3.911   3.739   3.889 -0.1425 -0.0246 -0.0231
   83DEC      C  248   4.018   3.815   3.481  0.1416 -0.3487  0.1046
   83DEC      C  249   4.094   3.602   3.191  0.1060 -0.0157  0.0054
   84DEC      C  250   6.409   6.185   1.819 -0.0649  0.2791  0.3011
   84DEC      C  251   6.466   6.039   1.412  0.2123 -0.1236 -0.3004
   84DEC      C  252   6.511   6.157   1.027 -0.0070 -0.0969 -0.1664
   85DEC      C  253   2.875   4.950   4.491 -0.3965  0.0307 -0.2907
   85DEC      C  254   3.200   5.102   4.488 -0.2665  0.0879 -0.2885
   85DEC      C  255   3.552   5.027   4.180  0.1797 -0.1637  0.1224
   86DEC      C  256   7.135   3.353   3.288 -0.1388  0.2246  0.2306
   86DEC      C  257   6.827   3.417   2.976 -0.3253  0.2216  0.0825
   86DEC      C  258   6.490   3.719   2.805  0.0003  0.2784  0.1137
   87DEC      C  259   6.352   4.697   3.101 -0.0695 -0.0506  0.2324
   87DEC      C  260   6.459   4.377   2.840 -0.3253  0.0240 -0.1713
   87DEC      C  261   6.470   4.108   2.504 -0.0039 -0.2813 -0.2367
   88DEC      C  262   3.088   5.147   6.972  0.2085 -0.1200  0.2586
   88DEC      C  263   2.730   5.020   7.200 -0.0521 -0.1225 -0.0508
   88DEC      C  264   2.431   5.245   7.388  0.0938  0.1121 -0.2183
   89DEC      C  265   4.985   3.085   7.133  0.1092  0.0111  0.2824
   89DEC      C  266   5.073   3.209   7.640  0.1466 -0.1264  0.1301
   89DEC      C  267   4.681   3.290   7.947 -0.1446 -0.0913 -0.2583
   90DEC      C  268   8.213   3.375   3.607  0.0885  0.1224 -0.1307
   90DEC      C  269   7.973   3.204   3.346 -0.0247 -0.1012  0.1216
   90DEC      C  270   7.762   2.884   3.245 -0.2718 -0.1764 -0.0364
   91DEC      C  271   6.680   5.035   3.265  0.2222  0.1360  0.1719
   91DEC      C  272   6.356   5.160   2.915  0.2931  0.0096  0.0256
   91DEC      C  273   6.082   5.331   2.586  0.0427  0.0260 -0.0366
   92DEC      C  274   0.568   1.714   1.165  0.1807  0.0935  0.0889
   92DEC      C  275   1.104   1.799   1.172 -0.1795  0.2365  0.3306
   92DEC      C  276   1.248   2.145   1.013  0.0409 -0.0434 -0.2545
   93DEC      C  277   8.322   3.449   1.762  0.0066 -0.0552 -0.0364
   93DEC      C  278   8.045   3.297   1.999 -0.1052 -0.0450  0.0704
   93DEC      C  279   7.934   3.115   2.391  0.1331  0.0151  0.1032
   94DEC      C  280   5.402   2.867   2.967  0.0514 -0.2244  0.2418
   94DEC      C  281   5.048   3.138   2.875 -0.2598  0.0917  0.1472
   94DEC      C  282   5.061   3.518   2.988 -0.0674  0.0841  0.0086
   95DEC      C  283   3.143   4.673   4.829 -0.2080 -0.0315 -0.1883
   95DEC      C  284   3.494   4.480   5.016  0.1139  0.1534 -0.0055
   95DEC      C  285   3.702   4.207   5.217 -0.3196  0.0450 -0.0975
   96DEC      C  286   5.000   4.501   7.253 -0.2042  0.1687  0.1637
   96DEC      C  287   5.269   4.477   7.628  0.0145  0.0737 -0.0521
   96DEC      C  288   5.394   4.167   7.868  0.3216  0.3679  0.0595
   97DEC      C  289   7.542   5.345   3.399 -0.1177  0.0662  0.1601
   97DEC      C  290   7.777   5.647   3.700 -0.0770  0.0736  0.2889
   97DEC      C  291   7.782   6.116   3.880 -0.0099  0.0671  0.0878
   98DEC      C  292   2.403   4.570   2.481  0.0712  0.1073  0.0101
   98DEC      C  293   2.798   4.707   2.480 -0.1316  0.0201 -0.1357
   98DEC      C  294   3.082   5.086   2.512 -0.4899 -0.0141  0.1304
   99DEC      C  295   6.853   4.464   2.411 -0.3834  0.1488 -0.1058
   99DEC      C  296   7.020   4.050   2.463 -0.0357 -0.2125  0.4230
   99DEC      C  297   6.974   3.628   2.552  0.2784 -0.0028 -0.0333
  100DEC      C  298   3.418   6.316   0.085 -0.1527  0.1103  0.2235
  100DEC      C  299   3.197   6.562   0.424  0.0126  0.1488  0.0108
  100DEC      C  300   2.837   6.616   0.749  0.4145 -0.1242  0.0021
  101DEC      C  301   3.309   3.203   3.519  0.1985  0.0305 -0.2714
  101DEC      C  302   3.550   3.299   3.934 -0.0266  0.1065 -0.1707
  101DEC      C  303   3.797   3.003   4.287  0.0868 -0.1810  0.1452
  102DEC      C  304   7.783   6.411   2.218 -0.3277  0.1146  0.1606
  102DEC      C  305   7.984   6.064   2.156 -0.2807 -0.0684  0.2895
  102DEC      C  306   8.198   5.723   2.004  0.0020 -0.0296  0.5599
  103DEC      C  307   1.326   0.509   0.793 -0.1044 -0.0023 -0.0405
  103DEC      C  308   0.974   0.734   1.053 -0.0602 -0.1506 -0.0929
  103DEC      C  309   0.482   0.776   0.989  0.0232 -0.2681 -0.1500
  104DEC      C  310   4.286   0.678   6.033 -0.0606  0.0512  0.0200
  104DEC      C  311   4.009   0.684   6.355  0.0334  0.0690 -0.0069
  104DEC      C  312   3.688   0.725   6.441  0.0100  0.2704 -0.1947
  105DEC      C  313   7.315   4.378   1.430  0.0890 -0.0074 -0.5287
  105DEC      C  314   6.972   4.627   1.698 -0.2006 -0.0762  0.1404
  105DEC      C  315   7.078   4.770   2.092  0.1345 -0.0682  0.1368
  106DEC      C  316   0.230   4.033   1.155 -0.0253  0.0644  0.1228
  106DEC      C  317  -0.016   4.336   1.394 -0.1070  0.4707  0.1574
  106DEC      C  318  -0.106   4.668   1.572 -0.0535  0.0173 -0.3074
  107DEC      C  319   2.714   4.826   1.517  0.0145 -0.0670  0.6002
  107DEC      C  320   2.351   4.805   1.649  0.1015  0.0380  0.2404
  107DEC      C  321   2.174   4.619   2.025  0.1943 -0.2133  0.1813
  108DEC      C  322   8.607   0.674   5.277  0.1066  0.0631  0.0011
  108DEC      C  323   8.201   0.829   5.076 -0.1482  0.0693  0.0612
  108DEC      C  324   7.878   0.494   4.966  0.0214  0.0068  0.0939
  109DEC      C  325   5.404   6.765   3.553  0.0999 -0.0005 -0.0112
  109DEC      C  326   5.322   6.852   4.032  0.0915 -0.2088 -0.0706
  109DEC      C  327   5.691   6.876   4.341 -0.0030 -0.0751 -0.1447
  110DEC      C  328   8.243   2.497   4.150 -0.0807  0.1438  0.2398
  110DEC      C  329   7.882   2.413   4.380  0.3236 -0.2263  0.2972
  110DEC      C  330   7.757   2.098   4.598  0.0597  0.0197 -0.2437
  111DEC      C  331   3.068   2.450   1.795  0.0872  0.2020 -0.3543
  111DEC      C  332   3.166   2.456   2.276 -0.0952 -0.0260 -0.2434
  111DEC      C  333   3.272   2.101   2.495 -0.0075 -0.1258 -0.1593
  112DEC      C  334   5.366   6.625   5.501 -0.2544 -0.0526 -0.0240
  112DEC      C  335   5.735   6.571   5.331  0.0077  0.0164  0.0089
  112DEC      C  336   6.055   6.421   5.658 -0.0703  0.1210  0.1596
  113DEC      C  337   5.737   5.365   7.165 -0.0178  0.0730  0.1674
  113DEC      C  338   6.014   5.717   7.231  0.2265  0.1172  0.0346
  113DEC      C  339   6.397   5.814   7.097  0.4301 -0.2261 -0.2758
  114DEC      C  340   5.950   5.096   5.420  0.0286  0.2483  0.1348
  114DEC      C  341   5.912   4.994   5.014  0.0562 -0.1729  0.1837
  114DEC      C  342   5.872   4.685   4.703 -0.0772 -0.0351 -0.0587
  115DEC      C  343   6.569   1.749   0.568  0.2109 -0.2191  0.1089
  115DEC      C  344   6.322   1.415   0.737 -0.0751 -0.1537  0.0111
  115DEC      C  345   5.957   1.478   0.740  0.3698  0.0316  0.1603
  116DEC      C  346   5.285   6.717   2.997  0.0147  0.0876 -0.0790
  116DEC      C  347   5.300   6.303   3.297  0.0829 -0.0540  0.0734
  116DEC      C  348   5.127   6.267   3.689  0.3803 -0.0151 -0.1242
  117DEC      C  349   0.906   5.365   2.213  0.1571  0.0758 -0.0952
  117DEC      C  350   0.586   5.492   2.568 -0.2623 -0.3514  0.1111
  117DEC      C  351   0.166   5.690   2.868  0.2238  0.0671 -0.1723
  118DEC      C  352   6.728   4.371   0.060 -0.0644 -0.0593 -0.1074
  118DEC      C  353   6.751   4.007   0.283  0.0503  0.1342 -0.4229
  118DEC      C  354   6.624   3.584   0.507 -0.3528 -0.1115  0.6036
  119DEC      C  355   4.051   1.454   6.138  0.2642  0.1041 -0.0262
  119DEC      C  356   3.816   1.064   6.034 -0.0819 -0.0493 -0.1326
  119DEC      C  357   3.555   0.941   5.739 -0.1479  0.0545 -0.1644
  120DEC      C  358   0.877   2.750   6.209  0.3621 -0.2580 -0.1740
  120DEC      C  359   1.235   2.549   6.434  0.2245  0.1043  0.0397
  120DEC      C  360   1.605   2.595   6.574  0.1704 -0.2752 -0.0319
  121DEC      C  361   3.283   1.164   0.733  0.2877  0.0396  0.0386
  121DEC      C  362   3.739   1.225   0.866 -0.1387  0.0861  0.3554
  121DEC      C  363   4.154   0.991   1.040  0.0701 -0.0562  0.3762
  122DEC      C  364   4.485   6.151   0.371  0.0092 -0.1437  0.0221
  122DEC      C  365   4.766   6.551   0.369  0.1694  0.3053  0.0802
  122DEC      C  366   4.809   6.992   0.171 -0.1872  0.4946 -0.0832
  123DEC      C  367   2.830   0.900   0.065  0.0964 -0.2358 -0.0289
  123DEC      C  368   3.020   0.751   0.328 -0.0891 -0.1307 -0.1925
  123DEC      C  369   3.154   0.678   0.718 -0.0943 -0.2243  0.0400
  124DEC      C  370   5.516   1.271   1.640  0.1199 -0.2028  0.1934
  124DEC      C  371   5.651   1.325   1.212  0.0343  0.0988  0.0968
  124DEC      C  372   5.543   1.072   0.897  0.2834 -0.3633  0.0275
  125DEC      C  373   5.363   5.639   1.628  0.0852 -0.0009 -0.2983
  125DEC      C  374   5.351   5.118   1.626 -0.1640 -0.0762  0.2443
  125DEC      C  375   5.429   4.682   1.457 -0.2168  0.0046 -0.0642
  126DEC      C  376   5.931   3.198   7.083  0.1818  0.0654  0.1643
  126DEC      C  377   6.297   3.245   7.415  0.0260  0.1430 -0.0280
  126DEC      C  378   6.580   3.092   7.800  0.1312  0.1963  0.1113
  127DEC      C  379   5.988   1.779   6.370  0.0859 -0.0086 -0.2562
  127DEC      C  380   5.603   1.710   6.292 -0.1241 -0.2653 -0.4834
  127DEC      C  381   5.383   1.617   5.975  0.1164 -0.0753 -0.0505
  128DEC      C  382   5.889   0.200   0.641 -0.1455 -0.2579  0.2138
  128DEC      C  383   5.578   0.098   1.021  0.0830 -0.2400  0.1716
  128DEC      C  384   5.557   0.185   1.362 -0.0361 -0.0061 -0.1301
  129DEC      C  385   1.768   3.782   3.683 -0.3733  0.1853  0.1097
  129DEC      C  386   1.599   4.216   3.720 -0.4572 -0.0952 -0.1511
  129DEC      C  387   1.495   4.319   4.082 -0.1820 -0.0782  0.0542
  130DEC      C  388   4.634   5.891   5.474 -0.1716 -0.1741 -0.3424
  130DEC      C  389   4.717   5.885   5.929  0.1236 -0.1430  0.1296
  130DEC      C  390   4.958   6.048   6.233 -0.1117 -0.0016 -0.1334
  131DEC      C  391   2.540   0.006   0.558  0.0919 -0.0250 -0.0749
  131DEC      C  392   2.820   0.249   0.744  0.3059 -0.1195 -0.2470
  131DEC      C  393   2.690   0.626   0.864  0.0138  0.0880  0.1624
  132DEC      C  394   3.992   3.012   5.275 -0.1215  0.0569  0.3265
  132DEC      C  395   4.249   2.777   5.562 -0.2602 -0.0162  0.0092
  132DEC      C  396   4.726   2.788   5.612  0.1618  0.1553  0.1423
  133DEC      C  397   1.852   1.682   5.017 -0.2205  0.2395  0.0321
  133DEC      C  398   1.907   2.071   5.371 -0.3012 -0.1299  0.2168
  133DEC      C  399   1.903   2.433   5.771  0.0209 -0.1203  0.0984
  134DEC      C  400   5.810   0.735   0.602 -0.0594  0.0153 -0.1345
  134DEC      C  401   6.054   0.621   0.413  0.2091  0.0394 -0.1017
  134DEC      C  402   6.117   0.628  -0.018  0.0763 -0.2003 -0.2717
  135DEC      C  403   0.549   5.614   4.386  0.1077  0.0528  0.1493
  135DEC      C  404   0.737   5.410   4.076 -0.3098  0.0785  0.1151
  135DEC      C  405   0.915   5.184   3.830 -0.1627 -0.1691 -0.2845
  136DEC      C  406   3.974   6.311   6.870 -0.2418  0.0658  0.1763
  136DEC      C  407   4.402   6.293   7.033  0.0515  0.0791 -0.2130
  136DEC      C  408   4.709   6.530   7.111 -0.3182 -0.0444 -0.0779
  137DEC      C  409   7.260   2.408   1.092  0.1376 -0.2802  0.0215
  137DEC      C  410   6.916   2.246   0.721 -0.1751  0.1525 -0.1628
  137DEC      C  411   6.501   2.203   0.448 -0.0477  0.0765  0.0668
  138DEC      C  412   7.300   5.998   4.014  0.0787  0.0704  0.1059
  138DEC      C  413   7.296   6.410   4.057 -0.0592 -0.0065  0.1676
  138DEC      C  414   7.560   6.734   4.085 -0.0605 -0.0897  0.1667
  139DEC      C  415   4.653   5.359   4.637 -0.2811  0.0664 -0.1762
  139DEC      C  416   4.430   5.180   4.271  0.0637  0.2732  0.0426
  139DEC      C  417   4.055   5.223   4.063  0.0766 -0.2994 -0.0580
  140DEC      C  418   7.095   3.157   6.937 -0.2535  0.0904 -0.2321
  140DEC      C  419   7.162   2.871   6.558 -0.2032 -0.1662 -0.2954
  140DEC      C  420   7.138   2.443   6.642 -0.1425  0.0491 -0.2194
  141DEC      C  421   5.349   5.497   1.062 -0.2083 -0.1671 -0.0066
  141DEC      C  422   5.711   5.638   0.741  0.0854 -0.2445 -0.1677
  141DEC      C  423   6.065   5.586   0.907  0.2659  0.1718  0.1059
  142DEC      C  424   6.960   2.880   6.047 -0.4697  0.1680 -0.3209
  142DEC      C  425   7.447   2.688   6.166 -0.0893  0.3276 -0.1364
  142DEC      C  426   7.622   2.558   5.787 -0.0753 -0.1586  0.0038
  143DEC      C  427   8.231   0.302   1.711  0.0013  0.2179  0.1967
  143DEC      C  428   8.067  -0.110   1.665 -0.0368  0.1183  0.0056
  143DEC      C  429   7.924  -0.543   1.826 -0.0468 -0.1644  0.0220
  144DEC      C  430   2.334   5.195   1.312 -0.2619 -0.1990  0.2319
  144DEC      C  431   2.359   4.704   1.176  0.0411  0.2545 -0.0098
  144DEC      C  432   2.212   4.346   0.970  0.0097  0.2037  0.0828
  145DEC      C  433   7.614   6.357   3.100 -0.0681 -0.0849  0.0455
  145DEC      C  434   7.195   6.656   3.181  0.1216 -0.1278  0.0953
  145DEC      C  435   7.138   6.991   2.959  0.0935  0.0000 -0.1343
  146DEC      C  436   4.202   4.876   5.810  0.1727  0.0272 -0.1842
  146DEC      C  437   4.408   4.849   5.433 -0.1152 -0.3212  0.3233
  146DEC      C  438   4.685   4.530   5.092  0.2178 -0.3976  0.0760
  147DEC      C  439   8.193   7.127   5.614 -0.0983 -0.1471 -0.1544
  147DEC      C  440   8.291   7.297   5.205 -0.3051 -0.0344  0.1403
  147DEC      C  441   8.665   7.446   5.117  0.0655 -0.2903 -0.0417
  148DEC      C  442   0.664   1.027   2.293  0.1319  0.0876  0.3018
  148DEC      C  443   0.392   0.642   2.388  0.1396  0.2250  0.1675
  148DEC      C  444   0.325   0.372   1.968  0.0844 -0.4054 -0.1188
  149DEC      C  445   7.703   1.519   5.527  0.1852  0.2396  0.0654
  149DEC      C  446   7.590   1.589   5.886  0.2032  0.1985  0.2131
  149DEC      C  447   7.251   1.611   6.247  0.1572  0.1579  0.0531
  150DEC      C  448   2.032   0.863   4.078 -0.2468  0.0597 -0.1920
  150DEC      C  449   1.743   0.997   4.378 -0.0562  0.0004  0.2980
  150DEC      C  450   1.798   1.143   4.824  0.1490 -0.0901 -0.0640
  151DEC      C  451   3.019   5.956   0.118  0.0683  0.0799  0.0004
  151DEC      C  452   3.125   5.496   0.196  0.0181 -0.2296  0.2856
  151DEC      C  453   3.471   5.355   0.383  0.0864 -0.0206 -0.1531
  152DEC      C  454   4.494   4.504   6.983 -0.1795 -0.0841 -0.3324
  152DEC      C  455   4.110   4.381   7.125 -0.0298  0.0474  0.2705
  152DEC      C  456   3.737   4.442   7.383  0.0932  0.0264 -0.2051
  153DEC      C  457   4.118   5.216   0.902 -0.2730  0.3397  0.0790
  153DEC      C  458   3.970   5.555   1.103  0.2514 -0.0993  0.4291
  153DEC      C  459   3.746   5.943   1.128 -0.2680 -0.1070  0.2908
  154DEC      C  460   3.383   1.809   4.799  0.0326  0.1942 -0.1736
  154DEC      C  461   3.196   1.514   4.512 -0.1838 -0.0192 -0.0761
  154DEC      C  462   3.019   1.386   4.184  0.0857 -0.1093  0.2895
  155DEC      C  463   4.107   2.192   6.650  0.0968  0.0336 -0.0208
  155DEC      C  464   4.291   1.790   6.884 -0.2067  0.1662  0.4709
  155DEC      C  465   4.486   1.408   6.698  0.0700  0.2597 -0.3363
  156DEC      C  466   5.754   5.777   2.188  0.0236 -0.0358 -0.0383
  156DEC      C  467   6.127   5.965   2.502 -0.3058 -0.2230  0.1640
  156DEC      C  468   6.035   6.156   2.875 -0.2200 -0.1673 -0.1586
  157DEC      C  469   0.534   2.414   4.046 -0.0651  0.2183 -0.2176
  157DEC      C  470   0.627   2.189   3.680 -0.0477 -0.1365  0.0329
  157DEC      C  471   0.796   1.869   3.532  0.5456 -0.0785  0.2210
  158DEC      C  472   0.507   0.325   2.805 -0.3363  0.2130 -0.1329
  158DEC      C  473   0.458   0.275   3.273  0.1561  0.1319 -0.1377
  158DEC      C  474   0.456  -0.065   3.505  0.0500 -0.2912 -0.0912
  159DEC      C  475   0.102   7.216   0.238 -0.3752  0.0847  0.0170
  159DEC      C  476   0.295   7.608   0.509 -0.2112  0.1609  0.1728
  159DEC      C  477   0.441   8.083   0.495 -0.2595  0.4338 -0.0596
  160DEC      C  478   5.574   5.594   3.839  0.2666  0.2166 -0.0648
  160DEC      C  479   5.771   5.458   4.140  0.2714 -0.3087 -0.1116
  160DEC      C  480   6.046   5.096   3.974 -0.0609  0.0127 -0.2464
  161DEC      C  481   7.351   5.957   6.563 -0.1284  0.1900  0.1928
  161DEC      C  482   7.085   5.915   6.243 -0.4354  0.0737  0.2918
  161DEC      C  483   7.041   6.205   5.877  0.2821  0.0793 -0.1434
  162DEC      C  484   8.227   3.397   6.054 -0.0814 -0.0596  0.0908
  162DEC      C  485   7.913   3.394   6.412 -0.2888  0.2087 -0.1298
  162DEC      C  486   8.039   3.248   6.777  0.0106  0.0184 -0.0932
  163DEC      C  487   2.973   6.068   5.063  0.0451  0.1160  0.1856
  163DEC      C  488   3.325   5.986   5.067 -0.3767  0.0679 -0.1359
  163DEC      C  489   3.609   5.892   4.759 -0.1698 -0.1299 -0.0061
  164DEC      C  490   7.767   3.692   3.024 -0.0608 -0.0845 -0.0055
  164DEC      C  491   7.650   3.580   3.433  0.1446 -0.0434 -0.0180
  164DEC      C  492   7.301   3.526   3.753  0.3602  0.1038  0.0336
  165DEC      C  493   0.598   6.510   6.188  0.0419  0.0165  0.1111
  165DEC      C  494   0.491   6.960   6.192 -0.2037  0.0682 -0.0108
  165DEC      C  495   0.317   7.384   6.094  0.1712 -0.0896  0.2211
  166DEC      C  496   4.617   6.268   3.588 -0.0207  0.2216  0.0314
  166DEC      C  497   4.408   5.922   3.718 -0.1494  0.1483 -0.1672
  166DEC      C  498   3.967   5.755   3.745 -0.1286 -0.1704 -0.5267
  167DEC      C  499   0.440   1.005   4.795 -0.1296 -0.2261 -0.0840
  167DEC      C  500   0.052   0.806   4.547 -0.1893  0.2002 -0.0289
  167DEC      C  501  -0.279   0.681   4.318  0.1444 -0.0039 -0.0725
  168DEC      C  502   7.844   5.151   6.265  0.2925  0.5006 -0.3246
  168DEC      C  503   7.717   4.690   6.492  0.3089 -0.0651 -0.0237
  168DEC      C  504   7.499   4.243   6.599  0.1303  0.1310 -0.1845
  169DEC      C  505   2.626   5.078   3.998  0.2561  0.4003  0.0938
  169DEC      C  506   2.438   5.424   3.677  0.3294  0.0547 -0.1829
  169DEC      C  507   2.560   5.633   3.435 -0.0073 -0.1703 -0.0185
  170DEC      C  508   0.586   1.487   0.213  0.3432 -0.1739 -0.0064
  170DEC      C  509   0.427   1.808   0.483 -0.3227 -0.1715 -0.0388
  170DEC      C  510   0.390   2.051   0.792 -0.4511 -0.1213 -0.2987
  171DEC      C  511   3.306   3.518   6.826  0.1866  0.1377  0.0464
  171DEC      C  512   3.224   3.216   7.069 -0.1810 -0.0723 -0.2571
  171DEC      C  513   2.894   2.951   7.271  0.1840  0.0595 -0.0526
  172DEC      C  514   6.277   6.437   2.563 -0.0789  0.2264 -0.0482
  172DEC      C  515   6.762   6.468   2.764  0.0687 -0.0375  0.1500
  172DEC      C  516   7.216   6.408   2.742 -0.0131 -0.1866  0.0049
  173DEC      C  517   3.718   6.007   1.618 -0.1414  0.1855 -0.0572
  173DEC      C  518   4.145   5.965   1.405  0.0048  0.1913 -0.1413
  173DEC      C  519   4.613   6.101   1.477  0.3365 -0.1391 -0.2479
  174DEC      C  520   1.027   6.072   3.511 -0.0719  0.0018 -0.1816
  174DEC      C  521   0.656   6.030   3.193  0.2720 -0.0233 -0.0533
  174DEC      C  522   0.460   6.375   2.963 -0.0313 -0.0139 -0.2176
  175DEC      C  523   5.176   1.153   6.239 -0.0213 -0.0755  0.0273
  175DEC      C  524   5.232   0.729   6.067 -0.3046  0.0305 -0.3981
  175DEC      C  525   5.129   0.254   6.113  0.0224  0.0134 -0.0447
  176DEC      C  526   3.964   1.895   1.932 -0.3088  0.1548  0.0738
  176DEC      C  527   4.226   1.920   1.539 -0.2806 -0.1528 -0.1358
  176DEC      C  528   4.517   1.657   1.375 -0.0071  0.1262 -0.2462
  177DEC      C  529   7.944   0.237   6.932 -0.0598  0.3093 -0.1048
  177DEC      C  530   8.289   0.478   7.003  0.2494 -0.0772  0.1266
  177DEC      C  531   8.501   0.947   7.005  0.1335 -0.3593  0.0627
  178DEC      C  532   7.020   2.435   5.817 -0.0360 -0.2696  0.0814
  178DEC      C  533   7.226   2.755   5.599  0.3382  0.2811 -0.1544
  178DEC      C  534   7.112   3.136   5.535 -0.1786  0.1422  0.1350
  179DEC      C  535   3.066   2.383   5.355 -0.3204  0.2083 -0.1849
  179DEC      C  536   2.681   2.415   5.634 -0.0500 -0.1404  0.0207
  179DEC      C  537   2.348   2.215   5.596  0.0398 -0.1758 -0.0064
  180DEC      C  538   5.346   0.338   3.401 -0.1512 -0.1283  0.2136
  180DEC      C  539   5.406   0.811   3.337 -0.0953 -0.0079 -0.3520
  180DEC      C  540   5.232   1.114   3.095 -0.0545 -0.2304 -0.1130
  181DEC      C  541   1.569   3.769   6.096 -0.0199 -0.1129  0.2206
  181DEC      C  542   1.358   3.801   6.487 -0.0523  0.0296  0.2413
  181DEC      C  543   1.048   4.077   6.668  0.3099 -0.1300 -0.0948
  182DEC      C  544   1.507   5.011   6.665  0.0718 -0.2366 -0.0217
  182DEC      C  545   1.829   4.982   7.079 -0.1238  0.0103  0.3821
  182DEC      C  546   2.210   4.844   7.173  0.3453 -0.0582 -0.2321
  183DEC      C  547   2.689   5.943   6.490 -0.0016  0.0252 -0.1003
  183DEC      C  548   2.327   5.778   6.235  0.2747 -0.2860  0.0630
  183DEC      C  549   1.822   5.819   6.272 -0.2342  0.0162 -0.0109
  184DEC      C  550   2.736   1.829   6.271  0.1155 -0.1219 -0.1575
  184DEC      C  551   3.132   1.599   6.134  0.1571  0.0957  0.0261
  184DEC      C  552   3.415   1.425   5.880 -0.0317 -0.2584  0.0263
  185DEC      C  553   7.047   2.306   2.054  0.0055 -0.1281 -0.1275
  185DEC      C  554   7.411   2.453   1.943 -0.0661 -0.1190 -0.0011
  185DEC      C  555   7.796   2.436   1.716 -0.0835 -0.2052  0.0341
  186DEC      C  556   3.618   5.554   6.286 -0.1817  0.1564 -0.1744
  186DEC      C  557   3.617   5.646   6.665  0.1778 -0.0609 -0.0345
  186DEC      C  558   3.582   5.962   6.961 -0.0108 -0.3537  0.0073
  187DEC      C  559   6.848   4.151   3.455 -0.0053  0.0999  0.0727
  187DEC      C  560   6.714   4.535   3.452  0.1821 -0.1124  0.1594
  187DEC      C  561   6.445   4.756   3.646  0.2231 -0.2459  0.0379
  188DEC      C  562   6.138   4.040   4.169  0.0044  0.2681  0.2643
  188DEC      C  563   6.304   3.607   4.327 -0.0782  0.1323 -0.0121
  188DEC      C  564   6.616   3.426   4.598 -0.0200  0.0603  0.0269
  189DEC      C  565   7.783   0.131   5.368 -0.1521  0.2344 -0.0576
  189DEC      C  566   7.682   0.600   5.410 -0.0086 -0.0513  0.0412
  189DEC      C  567   7.665   1.002   5.157  0.0409 -0.0793 -0.4347
  190DEC      C  568   1.027   0.520   2.633 -0.2094  0.0363  0.0910
  190DEC      C  569   0.893   0.535   2.195  0.1361  0.0850 -0.1853
  190DEC      C  570   0.697   0.721   1.922 -0.1122  0.1532 -0.3490
  191DEC      C  571   7.648   7.007   3.666 -0.0703 -0.0198 -0.0478
  191DEC      C  572   7.634   6.878   3.329  0.0795 -0.2576 -0.1726
  191DEC      C  573   8.013   6.696   2.974 -0.1749  0.0720  0.0791
  192DEC      C  574   1.253   2.350   0.189  0.2031  0.2202 -0.0674
  192DEC      C  575   0.959   2.303  -0.064  0.2270 -0.3425 -0.1442
  192DEC      C  576   0.441   2.478  -0.246 -0.1242  0.2683  0.0782
  193DEC      C  577   3.647   2.196   2.778 -0.0541  0.1148 -0.1822
  193DEC      C  578   3.219   2.535   2.798  0.1145  0.0621  0.0341
  193DEC      C  579   2.819   2.626   2.909  0.2488 -0.0088 -0.3133
  194DEC      C  580   6.124   2.944   5.878 -0.1194  0.0100 -0.0401
  194DEC      C  581   6.434   2.680   6.114  0.0155  0.2593 -0.0102
  194DEC      C  582   6.673   2.587   6.447  0.0928  0.0223  0.1966
  195DEC      C  583   2.673   3.665   2.898 -0.0536 -0.1486  0.4114
  195DEC      C  584   2.250   3.610   2.766 -0.1987  0.1048  0.1694
  195DEC      C  585   1.823   3.660   2.856  0.3748 -0.1953  0.0761
  196DEC      C  586   3.743   6.554   2.953  0.0021 -0.0409 -0.0138
  196DEC      C  587   3.470   6.687   2.632  0.2599  0.2312  0.0338
  196DEC      C  588   3.122   6.599   2.371 -0.1456 -0.1599  0.2064
  197DEC      C  589   1.029   5.005   1.834 -0.1270 -0.2441 -0.0298
  197DEC      C  590   0.772   5.153   1.453  0.1010  0.3249  0.1998
  197DEC      C  591   0.632   5.574   1.381 -0.2794 -0.0721 -0.1532
  198DEC      C  592   0.156   1.794   0.094 -0.1396 -0.0682 -0.2011
  198DEC      C  593  -0.204   2.169   0.234 -0.4083  0.4145 -0.1153
  198DEC      C  594  -0.487   2.555   0.071 -0.1667 -0.0921 -0.2245
  199DEC      C  595   3.921   4.616   4.081 -0.0215 -0.0994 -0.0850
  199DEC      C  596   3.928   4.916   3.695 -0.0866 -0.0240 -0.0978
  199DEC      C  597   3.852   5.082   3.323 -0.0832  0.2795 -0.0168
  200DEC      C  598   1.529   0.215   6.366  0.1430 -0.1207  0.0516
  200DEC      C  599   1.795   0.384   6.018 -0.0249  0.0103  0.0347
  200DEC      C  600   1.565   0.516   5.684 -0.0009  0.0112 -0.1851
  201DEC      C  601   6.109   6.846   2.913 -0.0032  0.4722 -0.0580
  201DEC      C  602   6.261   7.286   2.557 -0.1871  0.2615  0.3291
  201DEC      C  603   6.531   7.682   2.660 -0.0335 -0.0268 -0.2027
  202DEC      C  604   4.549   5.823   6.587 -0.0430  0.0132  0.0832
  202DEC      C  605   4.671   6.319   6.614 -0.1352  0.1207  0.3089
  202DEC      C  606   4.728   6.810   6.713 -0.1227  0.0931  0.1245
  203DEC      C  607   8.638   5.075   0.183 -0.0553 -0.2977 -0.1767
  203DEC      C  608   8.876   5.351   0.422 -0.1617 -0.1216  0.1130
  203DEC      C  609   8.986   5.729   0.518 -0.2519  0.2983 -0.1173
  204DEC      C  610   2.334   0.706   6.412 -0.3998  0.2169  0.1635
  204DEC      C  611   2.193   0.322   6.456  0.2927 -0.0301 -0.1987
  204DEC      C  612   1.947  -0.091   6.357  0.0403  0.0525  0.2202
  205DEC      C  613   2.600   4.554   6.966 -0.2935 -0.3597  0.0929
  205DEC      C  614   2.551   4.061   6.898 -0.0563  0.2120 -0.0241
  205DEC      C  615   2.396   3.885   6.548 -0.0748  0.2325 -0.1585
  206DEC      C  616   5.159   4.336   4.047 -0.1632 -0.0344  0.2163
  206DEC      C  617   5.334   4.317   3.636 -0.0233 -0.1951  0.0001
  206DEC      C  618   5.638   4.255   3.341 -0.0617  0.1077 -0.0679
  207DEC      C  619   2.197   7.044   3.433  0.3298  0.0238  0.1911
  207DEC      C  620   1.718   7.062   3.576 -0.1570  0.1817  0.3578
  207DEC      C  621   1.477   7.094   3.918  0.1130  0.0263 -0.0179
  208DEC      C  622   7.247   2.124   4.196  0.3043  0.1144 -0.1022
  208DEC      C  623   7.271   2.210   3.788 -0.1298 -0.0577 -0.0264
  208DEC      C  624   7.059   2.200   3.451  0.1609 -0.2420  0.0681
  209DEC      C  625   3.164   6.554   4.907 -0.2058  0.1472  0.1688
  209DEC      C  626   3.065   6.251   4.581  0.0270 -0.0916 -0.2268
  209DEC      C  627   2.776   6.273   4.191  0.0315  0.2868 -0.1144
  210DEC      C  628   5.701   4.813   6.096 -0.0028 -0.0479  0.1515
  210DEC      C  629   5.648   4.550   5.768  0.2081 -0.1556 -0.0138
  210DEC      C  630   5.687   4.631   5.295  0.0941 -0.2264  0.0363
  211DEC      C  631   4.126   4.377   0.637  0.0368  0.1202 -0.2734
  211DEC      C  632   4.037   4.756   0.335 -0.1268  0.2155 -0.2261
  211DEC      C  633   4.059   4.951  -0.046  0.3041 -0.0109  0.0130
  212DEC      C  634   8.257   5.376   5.239 -0.1764  0.2170 -0.2063
  212DEC      C  635   8.308   4.992   5.309 -0.0113 -0.0359  0.2547
  212DEC      C  636   8.311   4.644   5.011 -0.0910  0.2595 -0.1861
  213DEC      C  637   7.304   4.901   6.898  0.1795 -0.1960 -0.1826
  213DEC      C  638   7.188   4.427   6.972 -0.1073 -0.1056 -0.0988
  213DEC      C  639   7.205   4.185   7.230 -0.0781 -0.0905  0.0571
  214DEC      C  640   7.961   1.575   2.979 -0.0214 -0.3241 -0.0078
  214DEC      C  641   7.535   1.716   2.955 -0.0118  0.2603 -0.1326
  214DEC      C  642   7.170   1.671   3.258 -0.3648 -0.0566 -0.1019
  215DEC      C  643   0.929   0.891   1.531 -0.1387  0.1410 -0.0196
  215DEC      C  644   1.184   1.239   1.690  0.1561 -0.0473 -0.0421
  215DEC      C  645   1.336   1.639   1.696 -0.0192  0.0315 -0.3000
  216DEC      C  646   6.576   3.342   2.414 -0.1658 -0.0310 -0.1936
  216DEC      C  647   6.289   3.493   2.110  0.1603  0.0213  0.0225
  216DEC      C  648   6.427   3.808   1.744  0.1083 -0.1882 -0.4404
  217DEC      C  649   5.956   2.530   7.116 -0.3343 -0.0641  0.2510
  217DEC      C  650   6.275   2.823   7.120 -0.0228  0.1059  0.1728
  217DEC      C  651   6.444   3.238   6.898  0.1733  0.1647  0.0361
  218DEC      C  652   2.584   0.282   5.267  0.0777  0.0559  0.1919
  218DEC      C  653   2.454   0.263   5.642  0.0187 -0.2655 -0.1300
  218DEC      C  654   2.308   0.209   5.956  0.0549 -0.2736 -0.2069
  219DEC      C  655   4.171   5.760   2.358  0.1238  0.0929  0.1854
  219DEC      C  656   4.202   5.849   1.936 -0.0044  0.0900  0.2015
  219DEC      C  657   4.416   5.642   1.626 -0.2791 -0.1738  0.2458
  220DEC      C  658   2.773   1.307   2.466 -0.1867 -0.0683 -0.1699
  220DEC      C  659   2.452   1.341   2.776  0.1232 -0.1752  0.1368
  220DEC      C  660   2.046   1.339   2.798 -0.0878 -0.0624 -0.0104
  221DEC      C  661   4.208   1.312   0.612  0.0958 -0.0755 -0.2228
  221DEC      C  662   4.337   1.169   0.256  0.0662 -0.0826  0.2472
  221DEC      C  663   4.458   1.093  -0.190  0.1439 -0.1183  0.1953
  222DEC      C  664   0.089   2.673   4.054  0.0785 -0.0058 -0.0760
  222DEC      C  665   0.431   2.780   3.755 -0.2077 -0.0278  0.2897
  222DEC      C  666   0.374   2.606   3.331  0.0389 -0.0211 -0.1892
  223DEC      C  667   6.062   2.512   4.175 -0.1175 -0.0203 -0.2692
  223DEC      C  668   6.469   2.793   4.196  0.1228  0.0975 -0.4075
  223DEC      C  669   6.603   3.205   4.115 -0.0333  0.4527  0.0138
  224DEC      C  670   5.691   2.123   5.595 -0.1864  0.0579 -0.1981
  224DEC      C  671   5.885   1.778   5.834 -0.0480 -0.1182  0.0573
  224DEC      C  672   6.313   1.700   6.014  0.0080  0.0218 -0.2627
  225DEC      C  673   8.142   0.228   6.197 -0.1572  0.2644  0.2122
  225DEC      C  674   8.346   0.397   6.467  0.2964 -0.2305  0.0226
  225DEC      C  675   8.168   0.780   6.576 -0.0980  0.0484 -0.3018
  226DEC      C  676   7.971   6.263   3.453 -0.0367  0.0513  0.2188
  226DEC      C  677   8.195   6.676   3.431 -0.0243 -0.0424 -0.3671
  226DEC      C  678   8.584   7.005   3.374  0.0565 -0.2580 -0.0641
  227DEC      C  679   0.531   6.375   1.993 -0.0457 -0.2925 -0.1243
  227DEC      C  680   1.082   6.511   1.988  0.1893  0.0134 -0.0283
  227DEC      C  681   1.397   6.713   1.854 -0.0315 -0.2102 -0.2619
  228DEC      C  682   0.952   6.092   2.217 -0.1458  0.1575 -0.0023
  228DEC      C  683   1.196   6.301   2.406 -0.1227  0.1119  0.1427
  228DEC      C  684   1.521   6.534   2.747 -0.3164 -0.1667  0.3446
  229DEC      C  685   2.727   0.492   2.483  0.1836 -0.2447 -0.1524
  229DEC      C  686   3.109   0.372   2.157 -0.1808  0.1032 -0.2465
  229DEC      C  687   3.287   0.020   1.874 -0.1274 -0.1468 -0.1925
  230DEC      C  688   6.632   5.520   3.325  0.0549  0.2621  0.0945
  230DEC      C  689   6.514   5.926   3.363  0.0499  0.1257 -0.1460
  230DEC      C  690   6.386   6.461   3.182 -0.0020  0.0633 -0.0003
  231DEC      C  691   1.499   0.021   0.409 -0.0106 -0.0453 -0.0173
  231DEC      C  692   1.184   0.300   0.360  0.1069 -0.2086 -0.4684
  231DEC      C  693   1.051   0.754   0.409  0.1071 -0.0344 -0.4422
  232DEC      C  694   6.677   2.690   1.094  0.2290 -0.0229  0.0645
  232DEC      C  695   6.756   2.877   1.457  0.0664 -0.2455  0.0755
  232DEC      C  696   7.093   2.948   1.807  0.0063  0.1292 -0.1450
  233DEC      C  697   3.219   0.736   6.081 -0.2236  0.3451  0.0742
  233DEC      C  698   3.028   1.176   5.888  0.1636  0.2861 -0.3049
  233DEC      C  699   2.720   1.398   5.988  0.0138  0.1906 -0.2842
  234DEC      C  700   8.611   1.773   3.502 -0.0776 -0.0092 -0.1845
  234DEC      C  701   8.544   1.874   3.129 -0.3192  0.1145  0.0147
  234DEC      C  702   8.638   2.071   2.716  0.2206  0.0974  0.1192
  235DEC      C  703   8.144   3.816   3.846  0.2326  0.1718 -0.1144
  235DEC      C  704   8.195   4.218   4.059  0.1364  0.0844  0.0920
  235DEC      C  705   8.325   4.535   4.006  0.2078 -0.2358  0.1588
  236DEC      C  706   3.168   4.474   0.180 -0.0262 -0.0216  0.0860
  236DEC      C  707   3.411   4.090  -0.038 -0.0321 -0.1330  0.3534
  236DEC      C  708   3.585   3.930  -0.436 -0.1621  0.2886  0.2243
  237DEC      C  709   2.556   0.812   6.837 -0.0903  0.1322  0.2569
  237DEC      C  710   2.691   0.454   7.021  0.0491 -0.2709 -0.1385
  237DEC      C  711   2.762   0.264   7.447  0.1419 -0.0912 -0.1892
  238DEC      C  712   0.272   2.034   6.921  0.0000 -0.2443  0.3136
  238DEC      C  713  -0.013   1.765   6.764  0.0349 -0.2652  0.0029
  238DEC      C  714   0.013   1.340   6.770  0.1064 -0.2626  0.1541
  239DEC      C  715   7.152   4.852   1.185  0.0223 -0.0762 -0.0621
  239DEC      C  716   6.860   5.150   1.418 -0.1085 -0.0315  0.1572
  239DEC      C  717   6.839   5.324   1.815 -0.1734  0.0412  0.1341
  240DEC      C  718   4.765   6.524   1.748 -0.1461 -0.4281  0.2612
  240DEC      C  719   5.229   6.439   1.704 -0.2380 -0.1296  0.2808
  240DEC      C  720   5.588   6.413   1.473 -0.1535 -0.2285  0.4108
  241DEC      C  721   4.889   2.698   2.770  0.0516 -0.3327  0.0737
  241DEC      C  722   4.495   2.784   2.970 -0.0313 -0.2420 -0.1199
  241DEC      C  723   4.250   3.146   2.969  0.1243  0.0158  0.1291
  242DEC      C  724   5.007   1.071   7.213  0.0289  0.0444 -0.1572
  242DEC      C  725   5.200   0.625   7.137 -0.2519  0.1469  0.2265
  242DEC      C  726   5.375   0.188   7.086 -0.2242 -0.1848  0.0122
  243DEC      C  727   4.047   3.272   5.759 -0.1613 -0.3046  0.0636
  243DEC      C  728   4.117   2.952   6.003  0.0034  0.1507  0.1851
  243DEC      C  729   4.004   2.500   6.248  0.0511  0.2645 -0.0876
  244DEC      C  730   2.224   2.408   2.573  0.1748  0.2966  0.1238
  244DEC      C  731   1.757   2.628   2.673  0.1969  0.0336  0.0258
  244DEC      C  732   1.833   2.844   3.132 -0.1101  0.1144 -0.1630
  245DEC      C  733   0.606   0.104   2.326  0.1909  0.0298 -0.0187
  245DEC      C  734   0.978   0.069   2.159  0.0253  0.0530 -0.3368
  245DEC      C  735   1.127  -0.126   1.840  0.0445 -0.1299  0.3481
  246DEC      C  736   3.006   6.982   6.434  0.0730  0.1178 -0.0000
  246DEC      C  737   2.691   6.755   6.747  0.1331 -0.2456 -0.3562
  246DEC      C  738   2.413   6.819   7.128  0.0363  0.2229  0.3081
  247DEC      C  739   3.705   1.645   1.559  0.3796  0.1608 -0.0635
  247DEC      C  740   4.107   1.463   1.636 -0.4313 -0.1605  0.3390
  247DEC      C  741   4.438   1.626   1.846 -0.2897 -0.2599  0.2035
  248DEC      C  742   6.172   1.455   2.862  0.0035  0.3904 -0.3537
  248DEC      C  743   6.182   1.464   3.253  0.1835  0.0895 -0.2065
  248DEC      C  744   6.302   1.855   3.348 -0.0357  0.2690 -0.2811
  249DEC      C  745   6.104   6.487   1.560  0.1433 -0.1675 -0.0183
  249DEC      C  746   6.037   6.164   1.218 -0.0960  0.0252  0.1737
  249DEC      C  747   5.690   5.876   1.169 -0.1046 -0.1589  0.0331
  250DEC      C  748   1.921   6.906   2.655 -0.1794  0.3105 -0.1607
  250DEC      C  749   2.251   7.135   2.907 -0.1648 -0.1195  0.2407
  250DEC      C  750   2.475   7.307   3.190 -0.4180 -0.1073  0.1769
  251DEC      C  751   3.579   2.491   4.106  0.1355  0.3010 -0.0239
  251DEC      C  752   3.718   2.618   4.567  0.0983  0.0144  0.0828
  251DEC      C  753   3.736   2.607   5.036 -0.1324  0.2699 -0.2906
  252DEC      C  754   4.643   1.623   5.049  0.0386  0.0462  0.2453
  252DEC      C  755   4.394   1.717   4.602  0.2212 -0.0883 -0.0801
  252DEC      C  756   4.402   2.150   4.355  0.1939  0.1657  0.3247
  253DEC      C  757   7.980   2.065   0.521 -0.0138 -0.0197  0.1622
  253DEC      C  758   7.978   2.207   1.006  0.3493  0.5639  0.1334
  253DEC      C  759   7.725   2.342   1.260 -0.0816  0.0178  0.0932
  254DEC      C  760   0.917   1.113   0.034  0.2197  0.2779  0.4111
  254DEC      C  761   1.031   1.449   0.386  0.1110  0.0335  0.0847
  254DEC      C  762   0.859   1.673   0.761  0.0155  0.1807  0.1193
  255DEC      C  763   6.948   3.347   0.819  0.0050  0.2688  0.2714
  255DEC      C  764   7.265   3.645   0.785 -0.1276 -0.1397  0.0146
  255DEC      C  765   7.280   4.096   0.918  0.1204 -0.0307  0.0991
  256DEC      C  766   5.275   6.862   5.049  0.1114  0.1084 -0.3901
  256DEC      C  767   5.386   7.106   5.338 -0.0880  0.0741  0.3089
  256DEC      C  768   5.899   7.063   5.470  0.1561 -0.0638 -0.3039
  257DEC      C  769   4.938   4.805   0.574  0.0612  0.0423  0.0943
  257DEC      C  770   5.459   4.826   0.675  0.2412 -0.0266  0.0237
  257DEC      C  771   5.841   5.140   0.722 -0.0448  0.2197 -0.1618
  258DEC      C  772   0.423   3.635   3.652 -0.0394  0.0437 -0.1330
  258DEC      C  773   0.539   3.331   3.830 -0.2275  0.0217  0.0841
  258DEC      C  774   0.542   3.204   4.281 -0.0839  0.1724 -0.1537
  259DEC      C  775   5.487   3.145   4.641  0.0393 -0.1337  0.0656
  259DEC      C  776   5.818   3.394   4.612 -0.4069  0.0325  0.2226
  259DEC      C  777   5.801   3.777   4.553 -0.0160 -0.0364  0.2521
  260DEC      C  778   2.850   3.241   3.673  0.0352 -0.0454  0.0289
  260DEC      C  779   2.828   2.736   3.520  0.0236  0.0461 -0.0223
  260DEC      C  780   2.689   2.353   3.458  0.1080  0.1881 -0.1603
  261DEC      C  781   1.017   1.967   6.600  0.0665 -0.1216  0.0354
  261DEC      C  782   0.683   2.154   6.669  0.0417  0.2044 -0.1767
  261DEC      C  783   0.555   2.608   6.553 -0.1344 -0.2047  0.1983
  262DEC      C  784   2.378   7.091   5.362 -0.0169  0.0378 -0.0873
  262DEC      C  785   2.701   7.029   5.200 -0.1874 -0.3180 -0.0499
  262DEC      C  786   2.860   6.943   4.820  0.0660 -0.1827  0.1867
  263DEC      C  787   8.169   5.567   4.647 -0.2335  0.0916 -0.1447
  263DEC      C  788   8.544   5.682   4.926 -0.0134 -0.1068 -0.0524
  263DEC      C  789   8.690   5.668   5.229 -0.1648 -0.0123  0.1635
  264DEC      C  790   8.324   1.912   2.347 -0.1683  0.3633  0.1466
  264DEC      C  791   8.462   1.614   2.654 -0.0709  0.0200  0.3326
  264DEC      C  792   8.902   1.488   2.794 -0.1817 -0.2558  0.0860
  265DEC      C  793   6.178   6.035   5.327  0.0924 -0.0031 -0.2209
  265DEC      C  794   6.423   6.411   5.340 -0.0020  0.0627  0.0528
  265DEC      C  795   6.217   6.816   5.191 -0.1628 -0.1141 -0.0950
  266DEC      C  796   3.013   6.560   1.258  0.2359  0.2494  0.0756
  266DEC      C  797   2.764   6.210   1.066 -0.3620 -0.1503  0.0442
  266DEC      C  798   2.469   6.008   0.845 -0.2022 -0.0473  0.2732
  267DEC      C  799   7.466   3.560   4.831 -0.0380  0.0084  0.0078
  267DEC      C  800   7.436   3.243   4.984 -0.2624  0.0479 -0.2020
  267DEC      C  801   7.653   2.917   5.256 -0.1899  0.0026  0.1539
  268DEC      C  802   8.378   2.038   6.408 -0.2066  0.0066  0.1957
  268DEC      C  803   8.154   1.959   6.100 -0.3358 -0.2400  0.0992
  268DEC      C  804   7.832   2.028   5.834 -0.0016  0.3871 -0.2148
  269DEC      C  805   0.504   0.027   5.623  0.0691 -0.1888 -0.3219
  269DEC      C  806   0.073  -0.144   5.499  0.0635 -0.3551 -0.3418
  269DEC      C  807  -0.183  -0.547   5.501  0.1390 -0.0734  0.0375
  270DEC      C  808   7.155   1.403   2.732  0.1067 -0.1393  0.4358
  270DEC      C  809   7.116   1.184   2.368 -0.0133 -0.0673  0.0851
  270DEC      C  810   7.207   1.163   1.985  0.1124 -0.0017  0.0821
  271DEC      C  811   8.571   6.758   4.348  0.0915 -0.0294  0.1258
  271DEC      C  812   8.644   6.396   4.544  0.0030 -0.2839 -0.2692
  271DEC      C  813   8.807   6.125   4.922 -0.0683  0.1226  0.0822
  272DEC      C  814   5.351   4.936   6.938 -0.2134 -0.0389  0.2695
  272DEC      C  815   5.308   4.882   7.318 -0.3134 -0.0678 -0.0313
  272DEC      C  816   5.582   5.121   7.596 -0.1146  0.2154 -0.0864
  273DEC      C  817   3.250   4.152   0.982 -0.2769 -0.2164  0.1103
  273DEC      C  818   3.209   3.808   0.864  0.2582  0.3012 -0.1878
  273DEC      C  819   3.057   3.513   0.595 -0.0863  0.1880 -0.0733
  274DEC      C  820   8.330   1.012   5.616 -0.1173  0.2497 -0.3166
  274DEC      C  821   8.144   1.306   5.354 -0.2354 -0.2334 -0.0204
  274DEC      C  822   7.969   1.305   4.934  0.1292  0.2606 -0.1632
  275DEC      C  823   6.567   1.228   3.762 -0.1314  0.0858  0.0170
  275DEC      C  824   6.408   0.979   3.422 -0.0433 -0.1947  0.1259
  275DEC      C  825   6.581   0.824   2.974  0.2077 -0.0624  0.1424
  276DEC      C  826   2.828   0.189   1.812  0.2083 -0.0141  0.2187
  276DEC      C  827   2.577   0.120   2.202  0.1425  0.1404  0.0302
  276DEC      C  828   2.360  -0.238   2.333 -0.0859  0.0684  0.3281
  277DEC      C  829   8.302   2.981   1.687 -0.3821  0.1580 -0.2730
  277DEC      C  830   8.195   2.679   1.452 -0.0054 -0.0595 -0.1342
  277DEC      C  831   8.153   2.807   1.016  0.0129  0.0872  0.1667
  278DEC      C  832   5.370   5.131   4.012 -0.2562 -0.1889  0.0218
  278DEC      C  833   5.564   4.637   3.962 -0.2201  0.2312  0.1914
  278DEC      C  834   5.744   4.265   3.878 -0.0748 -0.1230  0.0845
  279DEC      C  835   6.986   6.154   4.342  0.0094 -0.1178 -0.2666
  279DEC      C  836   7.177   6.494   4.552  0.2528 -0.1831  0.2748
  279DEC      C  837   7.210   6.889   4.864  0.4230 -0.0446  0.1924
  280DEC      C  838   4.259   2.681   4.440 -0.0372  0.0369  0.0220
  280DEC      C  839   3.989   2.270   4.664 -0.1720  0.0603  0.1662
  280DEC      C  840   3.869   1.860   4.671  0.1495  0.0060  0.0847
  281DEC      C  841   5.794   1.301   5.049 -0.2680  0.3753 -0.1879
  281DEC      C  842   5.823   1.027   5.388  0.5598  0.2622  0.2845
  281DEC      C  843   5.932   0.623   5.448 -0.0210  0.1590  0.0962
  282DEC      C  844   5.664   5.691   3.336  0.0249  0.0634  0.1561
  282DEC      C  845   5.315   5.813   3.406  0.0804  0.2104  0.0973
  282DEC      C  846   4.797   5.830   3.422 -0.1279  0.0882 -0.4027
  283DEC      C  847   5.870   7.139   6.436 -0.1422 -0.0940 -0.0479
  283DEC      C  848   5.877   7.495   6.202  0.1450 -0.2638 -0.0926
  283DEC      C  849   6.049   7.496   5.812  0.0071  0.0048  0.0206
  284DEC      C  850   6.413   3.304   1.532 -0.0948  0.0144 -0.0548
  284DEC      C  851   6.786   3.408   1.817  0.2535  0.0668 -0.1215
  284DEC      C  852   7.062   3.283   2.207  0.0314 -0.1161  0.3459
  285DEC      C  853   1.383   1.815   5.015 -0.0618  0.3769 -0.0489
  285DEC      C  854   1.041   1.969   5.187 -0.1341  0.0396  0.4049
  285DEC      C  855   0.984   2.042   5.623  0.1306  0.3061 -0.1903
  286DEC      C  856   8.279   3.775   2.168 -0.1897  0.0115  0.0023
  286DEC      C  857   7.897   3.694   2.222 -0.0599 -0.1330 -0.0791
  286DEC      C  858   7.619   3.474   2.573  0.1808 -0.5486  0.0314
  287DEC      C  859   0.985   0.811   4.876  0.0597  0.0719 -0.4228
  287DEC      C  860   0.780   0.381   4.943 -0.0774  0.0814 -0.2958
  287DEC      C  861   0.797   0.014   5.231  0.1790 -0.1539  0.3799
  288DEC      C  862   3.450   1.663   2.003  0.1097  0.0068 -0.0324
  288DEC      C  863   3.818   1.494   2.170 -0.0309 -0.0589 -0.0672
  288DEC      C  864   4.182   1.344   2.154  0.3846 -0.1095 -0.2312
  289DEC      C  865   6.750   5.963   5.472  0.2302  0.2101 -0.0977
  289DEC      C  866   6.577   6.340   5.845  0.3391  0.2372 -0.1419
  289DEC      C  867   6.216   6.555   6.080  0.0645  0.2918 -0.2197
  290DEC      C  868   4.322   6.708   4.077  0.1968 -0.0797  0.0768
  290DEC      C  869   4.606   6.714   4.450 -0.1321 -0.2225 -0.1815
  290DEC      C  870   4.814   6.804   4.898  0.0937 -0.0292 -0.1721
  291DEC      C  871   0.240   3.936   4.776  0.0852  0.1596 -0.1370
  291DEC      C  872   0.237   3.772   5.211  0.0868 -0.1221  0.1239
  291DEC      C  873   0.260   3.648   5.707 -0.0771  0.0665  0.3733
  292DEC      C  874   6.134   7.080   0.917  0.0420 -0.2072 -0.0216
  292DEC      C  875   6.064   7.377   1.324  0.0679 -0.2419 -0.1010
  292DEC      C  876   5.756   7.269   1.752  0.1354  0.0612  0.1138
  293DEC      C  877   4.267   7.198   2.099  0.0317  0.1409  0.0429
  293DEC      C  878   4.403   7.614   2.284 -0.2306  0.2472  0.0198
  293DEC      C  879   4.738   7.822   2.266 -0.1369  0.0046 -0.0206
  294DEC      C  880   8.292   5.873   7.023  0.2184 -0.0470  0.4032
  294DEC      C  881   8.581   5.669   7.087  0.2297  0.1420 -0.0605
  294DEC      C  882   8.913   5.335   7.111  0.0790 -0.1160 -0.0378
  295DEC      C  883   0.573   6.501   0.736  0.3659  0.0095 -0.1004
  295DEC      C  884   0.789   6.779   0.492 -0.0125  0.2924 -0.1035
  295DEC      C  885   0.958   7.142   0.372  0.0552 -0.0286 -0.1357
  296DEC      C  886   6.802   0.479   0.676  0.0894 -0.3156 -0.0487
  296DEC      C  887   6.915   0.934   0.622  0.2123 -0.0867 -0.3245
  296DEC      C  888   6.890   1.372   0.588 -0.1238  0.1383 -0.0163
  297DEC      C  889   5.630   0.709   4.332 -0.1928 -0.1139  0.0184
  297DEC      C  890   5.530   0.463   4.566  0.3282  0.4795  0.0558
  297DEC      C  891   5.446   0.241   4.931 -0.1780  0.0908 -0.0865
  298DEC      C  892   1.707   3.300   6.251  0.1205  0.2354  0.0310
  298DEC      C  893   1.431   3.006   6.317  0.1614  0.1129 -0.0341
  298DEC      C  894   1.322   2.755   5.996  0.2159  0.0168  0.1352
  299DEC      C  895   4.961   4.605   1.188 -0.1764 -0.1646 -0.3044
  299DEC      C  896   4.541   4.508   1.475 -0.1298 -0.0682  0.2005
  299DEC      C  897   4.019   4.479   1.672 -0.0939  0.0364 -0.1652
  300DEC      C  898   5.202   0.695   0.472 -0.0730 -0.0276  0.0001
  300DEC      C  899   5.254   0.264   0.560 -0.3666  0.0095  0.2515
  300DEC      C  900   5.231  -0.090   0.330 -0.1085  0.1729 -0.0145
  301DEC      C  901   7.847   5.627   0.255 -0.0128  0.0995 -0.0666
  301DEC      C  902   8.027   5.303   0.526 -0.1055 -0.0566 -0.1608
  301DEC      C  903   8.372   5.382   0.917 -0.1254  0.0477 -0.1151
  302DEC      C  904   7.658   5.958   6.925 -0.3613  0.0250 -0.1107
  302DEC      C  905   7.894   6.071   7.225  0.0704 -0.2849 -0.3205
  302DEC      C  906   7.979   6.164   7.682 -0.2132 -0.0089 -0.0506
  303DEC      C  907   6.481   4.827   4.795 -0.1237  0.2135 -0.1951
  303DEC      C  908   6.724   4.481   4.515  0.0034 -0.1640  0.0124
  303DEC      C  909   7.061   4.282   4.386 -0.1174  0.3085  0.0120
  304DEC      C  910   5.374   3.564   4.395 -0.1048 -0.1841  0.0555
  304DEC      C  911   5.112   3.648   4.650  0.1097  0.0657 -0.3038
  304DEC      C  912   4.609   3.668   4.760  0.2137  0.2057  0.1706
  305DEC      C  913   1.004   5.137   5.266  0.1932 -0.2739  0.1119
  305DEC      C  914   0.755   5.300   4.965 -0.0938  0.2206 -0.0155
  305DEC      C  915   0.459   5.617   4.876  0.2252 -0.0463 -0.0129
  306DEC      C  916   6.671   1.620   1.033  0.0926  0.2747 -0.2132
  306DEC      C  917   6.149   1.558   1.227 -0.2822 -0.2803 -0.2120
  306DEC      C  918   5.743   1.884   1.096 -0.1425  0.1631  0.0492
  307DEC      C  919   3.707   0.942   6.870 -0.0813  0.1260  0.0836
  307DEC      C  920   4.074   0.740   6.968 -0.0553  0.2793  0.5250
  307DEC      C  921   4.562   0.559   6.990 -0.2642  0.1208 -0.0368
  308DEC      C  922   8.223   2.038   1.842 -0.0421  0.1720 -0.1192
  308DEC      C  923   8.343   2.205   1.379  0.2015  0.2458 -0.1394
  308DEC      C  924   8.720   2.444   1.110 -0.0171  0.2771 -0.3077
  309DEC      C  925   7.972   1.413   1.694  0.0968  0.0604  0.1543
  309DEC      C  926   8.157   1.270   1.982 -0.0501 -0.1365 -0.3412
  309DEC      C  927   8.404   1.253   2.278 -0.1481  0.4800  0.1533
  310DEC      C  928   6.713   5.641   5.969  0.0670 -0.3046  0.0270
  310DEC      C  929   6.461   5.710   6.285  0.1172 -0.0181 -0.1837
  310DEC      C  930   6.187   5.882   6.594  0.1176 -0.2147  0.1755
  311DEC      C  931   3.912   4.267   4.556  0.1636 -0.0702 -0.1976
  311DEC      C  932   3.687   4.539   4.520  0.1941 -0.1158  0.1472
  311DEC      C  933   3.570   4.901   4.764 -0.0052 -0.0480 -0.1409
  312DEC      C  934   5.412   7.130   4.681 -0.1666 -0.0032 -0.0073
  312DEC      C  935   5.364   7.339   4.283  0.1134  0.1325  0.0228
  312DEC      C  936   5.687   7.424   4.210  0.1249 -0.1520  0.1218
  313DEC      C  937   4.031   3.313   6.263 -0.0381  0.1036 -0.0696
  313DEC      C  938   4.275   3.463   6.527 -0.1857 -0.0058 -0.0551
  313DEC      C  939   4.712   3.677   6.513  0.0498  0.0236  0.0111
  314DEC      C  940   8.597   5.839   6.162  0.0763  0.2041 -0.1125
  314DEC      C  941   8.378   6.244   6.159 -0.1860 -0.0218  0.0931
  314DEC      C  942   8.455   6.592   6.185  0.3135  0.0166 -0.0535
  315DEC      C  943   7.578   2.009   5.341  0.0173  0.1720 -0.1717
  315DEC      C  944   7.383   2.036   5.783  0.2081 -0.0038 -0.1851
  315DEC      C  945   7.393   2.143   6.186  0.2180 -0.0623 -0.2073
  316DEC      C  946   5.348   6.284   4.171 -0.5018 -0.1305 -0.3692
  316DEC      C  947   4.961   6.509   4.187  0.0184 -0.2627  0.1055
  316DEC      C  948   4.787   6.793   3.837  0.0975  0.1434 -0.0678
  317DEC      C  949   0.999   4.000   1.977  0.0421  0.3353  0.2565
  317DEC      C  950   0.708   3.634   1.822 -0.3061 -0.0842 -0.4440
  317DEC      C  951   0.474   3.627   1.475 -0.1352  0.0458  0.1282
  318DEC      C  952   8.273   5.908   1.453 -0.1562  0.0775  0.2673
  318DEC      C  953   8.662   6.074   1.476  0.0916  0.0180 -0.1072
  318DEC      C  954   9.091   6.032   1.514 -0.1287  0.2588  0.1111
  319DEC      C  955   4.806   4.107   2.196  0.0272 -0.2486 -0.0165
  319DEC      C  956   4.997   4.124   1.717 -0.2381  0.4545  0.1204
  319DEC      C  957   5.322   4.183   1.427  0.1123  0.1030  0.1318
  320DEC      C  958   6.544   2.281   5.017  0.0877 -0.0308  0.0580
  320DEC      C  959   6.449   2.660   5.113  0.0808  0.3033 -0.0531
  320DEC      C  960   6.174   2.903   5.329  0.0262  0.0274  0.0502
  321DEC      C  961   4.637   3.625   1.635  0.0895 -0.1186  0.1235
  321DEC      C  962   4.550   3.998   1.340 -0.0742 -0.2295 -0.0002
  321DEC      C  963   4.550   4.349   0.980 -0.0592  0.0897 -0.0015
  322DEC      C  964   4.034   2.777   0.780 -0.4778  0.3128 -0.0314
  322DEC      C  965   3.831   3.038   0.496  0.2080 -0.1761  0.1194
  322DEC      C  966   3.756   2.986   0.055 -0.0895  0.1813 -0.1741
  323DEC      C  967   0.539   4.876   5.136 -0.0680 -0.0743  0.3601
  323DEC      C  968   0.215   4.718   5.009  0.0605 -0.0819 -0.0853
  323DEC      C  969   0.166   4.354   5.060 -0.1440  0.1662 -0.0803
  324DEC      C  970   8.346   3.610   6.474 -0.0626 -0.0354 -0.2138
  324DEC      C  971   8.500   3.346   6.860 -0.1291  0.3103 -0.1050
  324DEC      C  972   8.463   2.916   7.242  0.1977  0.0286 -0.2919
  325DEC      C  973   3.575   6.948   1.329  0.0057  0.0940 -0.0228
  325DEC      C  974   3.175   7.117   1.289  0.2045  0.1275  0.3231
  325DEC      C  975   2.907   7.425   1.337  0.0136 -0.1528 -0.1999
  326DEC      C  976   1.818   2.968   5.197  0.0301 -0.0306  0.2767
  326DEC      C  977   2.265   2.913   5.082 -0.2863 -0.1394 -0.0068
  326DEC      C  978   2.614   2.950   4.801 -0.1081 -0.2957  0.2034
  327DEC      C  979   5.044   6.050   5.013 -0.0695  0.5765 -0.1701
  327DEC      C  980   4.945   6.364   5.292  0.1396 -0.1269  0.1236
  327DEC      C  981   4.569   6.581   5.331  0.4598 -0.2674  0.2286
  328DEC      C  982   2.682   3.551   1.253  0.0741 -0.1309  0.0607
  328DEC      C  983   2.599   3.806   1.532  0.0599  0.1254  0.0170
  328DEC      C  984   2.463   3.774   1.918  0.0524 -0.1939  0.1044
  329DEC      C  985   4.272   0.125   0.970  0.0384  0.1818 -0.2863
  329DEC      C  986   4.069   0.520   0.891 -0.0612  0.3138  0.0075
  329DEC      C  987   3.628   0.789   0.963 -0.1058  0.1870  0.0510
  330DEC      C  988   1.531   0.278   3.143  0.0453  0.6326 -0.0139
  330DEC      C  989   1.430   0.468   2.852 -0.0095 -0.2994  0.0849
  330DEC      C  990   1.532   0.523   2.367 -0.0805  0.1169 -0.0226
  331DEC      C  991   3.674   0.369   6.832 -0.1224  0.1632  0.0297
  331DEC      C  992   3.832   0.202   6.453 -0.1194  0.0672  0.2443
  331DEC      C  993   4.180   0.228   6.186  0.2529 -0.1409 -0.2349
  332DEC      C  994   6.852   5.187   5.200 -0.2591  0.2822  0.1179
  332DEC      C  995   6.490   5.016   5.248  0.0353  0.1395  0.0588
  332DEC      C  996   6.185   4.600   5.166  0.1641 -0.2679  0.1826
  333DEC      C  997   2.195   3.268   4.701 -0.1754  0.0408  0.0960
  333DEC      C  998   1.793   3.130   4.585 -0.0333  0.0855 -0.1570
  333DEC      C  999   1.420   3.234   4.805  0.4300 -0.2113 -0.0047
  334DEC      C 1000   2.091   5.455   6.021  0.0210 -0.0025 -0.0118
  334DEC      C 1001   2.335   5.269   6.370  0.0295 -0.1350  0.1068
  334DEC      C 1002   2.559   5.035   6.688 -0.0838  0.5109 -0.2872
  335DEC      C 1003   6.109   0.427   2.286  0.3265 -0.0690 -0.0730
  335DEC      C 1004   6.415   0.366   2.056 -0.0157  0.1922 -0.1463
  335DEC      C 1005   6.454   0.136   1.666 -0.1427 -0.1742 -0.1530
  336DEC      C 1006   1.588   3.013   4.143  0.2373  0.1124  0.0914
  336DEC      C 1007   1.260   2.781   3.970  0.1714  0.3693 -0.0456
  336DEC      C 1008   0.868   2.764   4.041 -0.2205  0.1733 -0.0842
  337DEC      C 1009   0.127   5.107   5.587  0.1250  0.3327 -0.0864
  337DEC      C 1010   0.143   5.204   5.114 -0.0887  0.2178  0.0949
  337DEC      C 1011   0.142   5.322   4.667  0.0525  0.0410 -0.0121
  338DEC      C 1012   4.311   3.451   2.130  0.3361 -0.0533 -0.0332
  338DEC      C 1013   4.770   3.387   2.199 -0.1581 -0.0785 -0.2900
  338DEC      C 1014   5.048   3.691   2.158 -0.1635 -0.0274 -0.0018
  339DEC      C 1015   1.534   0.893   3.853 -0.1261  0.0206 -0.0041
  339DEC      C 1016   1.464   1.364   3.712  0.1780  0.1821 -0.0424
  339DEC      C 1017   1.344   1.695   3.415 -0.1556  0.1091 -0.2352
  340DEC      C 1018   6.339   6.745   1.983  0.2141  0.1336 -0.0977
  340DEC      C 1019   5.819   6.799   1.974 -0.2370  0.0098  0.2077
  340DEC      C 1020   5.460   6.882   1.606  0.1415  0.0935  0.3050
  341DEC      C 1021   2.909   1.596   2.978  0.0340 -0.1353 -0.3815
  341DEC      C 1022   3.029   1.232   2.899 -0.2123  0.1175 -0.0095
  341DEC      C 1023   3.215   0.885   2.868 -0.0858  0.1916  0.0544
  342DEC      C 1024   1.484   5.506   6.044  0.2434 -0.1251 -0.2250
  342DEC      C 1025   1.229   5.494   5.599  0.0843 -0.3013 -0.2457
  342DEC      C 1026   0.971   5.680   5.261  0.0790 -0.0039 -0.0387
  343DEC      C 1027   4.950   3.163   1.212  0.3371 -0.0184  0.1215
  343DEC      C 1028   4.445   3.179   1.209 -0.0511  0.0078 -0.1314
  343DEC      C 1029   4.294   3.550   1.256  0.1350 -0.0260 -0.0608
  344DEC      C 1030   1.975   5.479   0.212  0.4021 -0.0506 -0.2076
  344DEC      C 1031   1.926   5.254   0.548  0.1058  0.0074 -0.0845
  344DEC      C 1032   1.986   5.037   0.917  0.0973  0.3067 -0.2732
  345DEC      C 1033   1.139   6.550   5.787  0.0429  0.5260  0.1973
  345DEC      C 1034   1.103   6.349   6.129 -0.1951  0.0426 -0.1221
  345DEC      C 1035   0.844   6.069   6.443 -0.0494  0.0314  0.0088
  346DEC      C 1036   7.705   4.433   3.436  0.1214 -0.1034  0.0086
  346DEC      C 1037   8.018   4.667   3.589  0.0777 -0.3853  0.1344
  346DEC      C 1038   8.372   4.805   3.446 -0.0713 -0.4248  0.0113
  347DEC      C 1039   6.647   1.285   2.637 -0.1944 -0.1643 -0.0531
  347DEC      C 1040   6.628   1.666   2.835  0.1318 -0.0218 -0.1642
  347DEC      C 1041   6.307   1.945   2.827  0.0827  0.3409  0.1017
  348DEC      C 1042   4.610   0.692   1.172  0.2768  0.0027  0.1915
  348DEC      C 1043   4.550   0.960   0.782  0.0863  0.1519  0.1685
  348DEC      C 1044   4.750   0.984   0.379  0.2680  0.0680 -0.0656
  349DEC      C 1045   1.041   1.984   2.800  0.1344 -0.4009  0.0932
  349DEC      C 1046   1.367   1.722   2.834  0.3411 -0.3453  0.0818
  349DEC      C 1047   1.548   1.375   2.643 -0.1040  0.2355 -0.0167
  350DEC      C 1048   8.086   6.504   3.903  0.1587  0.1904  0.2952
  350DEC      C 1049   8.067   6.969   3.997  0.2731  0.3062 -0.1153
  350DEC      C 1050   8.061   6.908   4.497 -0.1102 -0.2122  0.0008
  351DEC      C 1051   6.696   5.747   1.682 -0.1244  0.4070  0.1511
  351DEC      C 1052   6.731   5.679   2.156 -0.0183  0.0865  0.2805
  351DEC      C 1053   6.594   5.586   2.607  0.2017 -0.3225 -0.0885
  352DEC      C 1054   6.791   0.407   1.188 -0.0910 -0.2954  0.0361
  352DEC      C 1055   7.148   0.515   1.155 -0.0524  0.0686 -0.0493
  352DEC      C 1056   7.522   0.687   1.142 -0.0834 -0.3966 -0.0615
  353DEC      C 1057   1.380   1.689   6.712  0.1748 -0.0751  0.1013
  353DEC      C 1058   1.479   1.433   7.093 -0.0258 -0.2195 -0.1349
  353DEC      C 1059   1.595   1.647   7.518  0.1822 -0.4032 -0.0793
  354DEC      C 1060   0.197   6.624   3.351 -0.1857  0.1594 -0.3204
  354DEC      C 1061  -0.055   6.458   3.687  0.0183  0.2827 -0.0634
  354DEC      C 1062  -0.121   6.266   4.066 -0.1221  0.2117  0.1934
  355DEC      C 1063   8.227   3.928   0.175  0.1184 -0.1989 -0.5364
  355DEC      C 1064   8.239   3.780   0.563  0.1006  0.3166  0.1025
  355DEC      C 1065   8.238   3.817   1.009  0.4557  0.1414  0.0599
  356DEC      C 1066   1.219   1.937   3.867 -0.3399 -0.1445 -0.1021
  356DEC      C 1067   0.838   1.981   4.072  0.3036 -0.3562  0.0512
  356DEC      C 1068   0.637   1.816   4.349 -0.0123  0.2120  0.1416
  357DEC      C 1069   4.059   4.207   5.873  0.1157  0.1584  0.0679
  357DEC      C 1070   4.246   4.432   6.204 -0.0502  0.0984 -0.0770
  357DEC      C 1071   4.382   4.366   6.536  0.4072  0.3396 -0.0541
  358DEC      C 1072   1.782   0.516   6.632  0.0727 -0.1531 -0.0556
  358DEC      C 1073   2.053   0.843   6.795 -0.1052 -0.2539 -0.2924
  358DEC      C 1074   1.934   1.120   7.019  0.2967 -0.2083 -0.0654
  359DEC      C 1075   1.706   0.622   7.134  0.2327 -0.0091 -0.0272
  359DEC      C 1076   1.377   0.411   7.139 -0.0374  0.0114 -0.1400
  359DEC      C 1077   1.004   0.586   7.199  0.1837  0.1561  0.3435
  360DEC      C 1078   0.308   2.492   4.884  0.1623  0.3509 -0.0478
  360DEC      C 1079   0.570   2.240   4.643 -0.0469  0.2246  0.3267
  360DEC      C 1080   1.066   1.931   4.585  0.0627 -0.1454 -0.1462
  361DEC      C 1081   0.323   2.152   6.257 -0.0393  0.2208 -0.3066
  361DEC      C 1082   0.498   2.446   6.052  0.1608 -0.0807  0.1210
  361DEC      C 1083   0.766   2.514   5.737  0.2074  0.1967  0.0482
  362DEC      C 1084   4.411   5.159   1.285 -0.1168  0.0136  0.0790
  362DEC      C 1085   4.056   5.324   1.527 -0.1379 -0.1017  0.0453
  362DEC      C 1086   4.255   5.361   2.002 -0.1132 -0.1794 -0.3947
  363DEC      C 1087   4.874   3.658   1.163  0.0995 -0.0717  0.1189
  363DEC      C 1088   5.071   4.092   1.016  0.2032 -0.0018 -0.0770
  363DEC      C 1089   5.387   4.461   0.993 -0.1040 -0.3119  0.0437
  364DEC      C 1090   6.538   6.056   2.809  0.0465 -0.1392  0.0138
  364DEC      C 1091   6.312   5.725   2.971 -0.0254 -0.4351  0.0067
  364DEC      C 1092   6.025   5.470   3.069  0.1835 -0.2664  0.1066
  365DEC      C 1093   1.558   6.387   1.507  0.0690  0.1886 -0.2287
  365DEC      C 1094   1.201   6.511   1.389  0.1403 -0.2352 -0.0940
  365DEC      C 1095   0.827   6.614   1.151 -0.1468 -0.0187 -0.1522
  366DEC      C 1096   7.372   3.771   6.390  0.2464  0.1543  0.0683
  366DEC      C 1097   6.962   3.546   6.451 -0.0008  0.0891  0.1596
  366DEC      C 1098   6.707   3.134   6.422 -0.5323  0.1429 -0.2321
  367DEC      C 1099   1.054   5.793   6.922 -0.0063  0.3856  0.1723
  367DEC      C 1100   1.081   5.876   7.384 -0.2384 -0.0228  0.2001
  367DEC      C 1101   0.869   6.075   7.741 -0.0991 -0.0249  0.0141
  368DEC      C 1102   3.888   7.013   1.813  0.0334  0.3484  0.1196
  368DEC      C 1103   3.986   6.769   2.044  0.1686 -0.1169  0.0145
  368DEC      C 1104   3.937   6.694   2.499  0.1436  0.1015 -0.3349
  369DEC      C 1105   5.924   4.027   6.809 -0.2177  0.1083 -0.0213
  369DEC      C 1106   5.682   3.701   7.072  0.2476  0.1083  0.1768
  369DEC      C 1107   5.873   3.522   7.449  0.1934  0.2222  0.0158
  370DEC      C 1108   4.067   4.062   1.373  0.1446 -0.1063  0.0343
  370DEC      C 1109   4.176   4.026   0.991  0.1732  0.0277  0.2182
  370DEC      C 1110   4.628   3.962   0.725  0.0803 -0.0712  0.0632
  371DEC      C 1111   3.544   2.835   3.028 -0.3417  0.0435 -0.0397
  371DEC      C 1112   3.781   2.905   3.277 -0.1542 -0.0577 -0.0920
  371DEC      C 1113   4.168   2.713   3.421 -0.2875  0.1677 -0.3174
  372DEC      C 1114   1.549   0.814   3.262  0.2393 -0.1222  0.3091
  372DEC      C 1115   1.141   0.891   3.519  0.0426  0.0370  0.0796
  372DEC      C 1116   0.723   0.922   3.660  0.0622 -0.0129 -0.0654
  373DEC      C 1117   8.621   1.534   5.390  0.2266 -0.0745 -0.0183
  373DEC      C 1118   8.620   1.954   5.366  0.3481  0.1376  0.0693
  373DEC      C 1119   8.501   2.379   5.489  0.2188 -0.1624  0.0134
  374DEC      C 1120   6.445   5.214   6.187 -0.4271  0.0591  0.1545
  374DEC      C 1121   6.296   5.307   6.612  0.0053  0.0391 -0.0655
  374DEC      C 1122   5.990   5.457   6.756 -0.1566  0.1671  0.1073
  375DEC      C 1123   8.389   1.695   0.476 -0.3453  0.1071 -0.1766
  375DEC      C 1124   8.257   1.243   0.638  0.1734 -0.1864  0.0648
  375DEC      C 1125   8.059   0.995   0.951 -0.1059 -0.1219 -0.1115
  376DEC      C 1126   6.507   4.116   5.027 -0.1813  0.1161 -0.4825
  376DEC      C 1127   6.802   3.718   5.079 -0.1247 -0.1222 -0.0129
  376DEC      C 1128   6.939   3.325   5.028 -0.1210  0.0513 -0.1709
  377DEC      C 1129   4.356   6.606   4.856 -0.0375 -0.2429  0.0325
  377DEC      C 1130   4.084   6.648   5.220  0.0263 -0.2415 -0.1006
  377DEC      C 1131   3.899   6.531   5.595  0.0533 -0.1381  0.4106
  378DEC      C 1132   7.298   5.349   1.056 -0.1123 -0.2905  0.3083
  378DEC      C 1133   6.903   5.202   0.892 -0.0235 -0.0958  0.1695
  378DEC      C 1134   7.078   4.961   0.571 -0.0642  0.1837  0.1809
  379DEC      C 1135   2.014   2.552   5.320 -0.0817  0.1817  0.1633
  379DEC      C 1136   2.368   2.364   5.159  0.0481  0.2099 -0.1603
  379DEC      C 1137   2.746   2.078   5.175 -0.0665  0.0872 -0.0996
  380DEC      C 1138   1.666   4.661   1.096 -0.1949 -0.1834  0.0904
  380DEC      C 1139   1.503   4.933   0.898  0.3036 -0.0349  0.1493
  380DEC      C 1140   1.437   5.100   0.460  0.0153 -0.0265 -0.2110
  381DEC      C 1141   4.126   0.751   4.652  0.0115 -0.2175  0.1920
  381DEC      C 1142   4.250   0.748   5.109 -0.0120 -0.1828 -0.1871
  381DEC      C 1143   4.432   0.568   5.376 -0.2043 -0.1398  0.2386
  382DEC      C 1144   2.698   6.812   2.665  0.0337 -0.1731  0.0619
  382DEC      C 1145   2.932   6.574   2.889 -0.6263  0.0528 -0.1401
  382DEC      C 1146   3.281   6.321   3.068  0.1163 -0.1361 -0.1963
  383DEC      C 1147   4.143   5.727   6.422  0.5560 -0.0656 -0.1550
  383DEC      C 1148   4.164   5.356   6.604 -0.1921  0.0113  0.2639
  383DEC      C 1149   4.439   5.095   6.929 -0.1427 -0.1498 -0.1080
  384DEC      C 1150   2.318   6.277   6.078  0.2634 -0.3212  0.1297
  384DEC      C 1151   1.950   6.333   6.116  0.1399 -0.2404 -0.2790
  384DEC      C 1152   1.544   6.171   6.098  0.0651  0.0351 -0.1058
  385DEC      C 1153   2.340   7.015   5.896  0.1356  0.2622 -0.0216
  385DEC      C 1154   2.710   7.149   5.759 -0.2243  0.0955 -0.2252
  385DEC      C 1155   3.039   7.270   5.508  0.0972  0.0657  0.2063
  386DEC      C 1156   3.735   2.851   6.352  0.0297 -0.1717  0.1796
  386DEC      C 1157   3.611   2.488   6.522 -0.2899 -0.1876 -0.0136
  386DEC      C 1158   3.619   2.128   6.724 -0.3892 -0.0419 -0.0062
  387DEC      C 1159   6.219   0.134   5.371 -0.2525 -0.0260  0.0588
  387DEC      C 1160   6.529  -0.095   5.205  0.2367  0.0716  0.0231
  387DEC      C 1161   6.683  -0.530   5.038  0.0220 -0.2104 -0.0660
  388DEC      C 1162   0.202   0.889   1.372 -0.3153  0.0526 -0.0753
  388DEC      C 1163   0.482   1.207   1.284  0.4110 -0.1415 -0.1012
  388DEC      C 1164   0.796   1.444   1.462  0.0750  0.1398 -0.1997
  389DEC      C 1165   4.561   0.798   3.121  0.0381 -0.2074 -0.2345
  389DEC      C 1166   4.631   0.517   2.705  0.0325  0.1116  0.0892
  389DEC      C 1167   5.072   0.305   2.626 -0.1575  0.0035 -0.2074
  390DEC      C 1168   1.850   5.890   3.159 -0.0270 -0.0068  0.1106
  390DEC      C 1169   1.946   5.592   3.558 -0.0398 -0.1023 -0.0696
  390DEC      C 1170   1.986   5.146   3.495  0.0901 -0.5551 -0.0822
  391DEC      C 1171   7.976   1.832   1.457 -0.4224  0.2054  0.1683
  391DEC      C 1172   8.429   1.648   1.602 -0.0285 -0.0966  0.0943
  391DEC      C 1173   8.590   1.682   1.973 -0.1636 -0.2258 -0.0891
  392DEC      C 1174   4.569   5.471   3.905  0.0410  0.1597  0.0650
  392DEC      C 1175   4.870   5.495   4.212  0.2427 -0.2187 -0.2517
  392DEC      C 1176   5.265   5.615   4.270 -0.0488  0.1035  0.4027
  393DEC      C 1177   7.050   5.743   3.468  0.2485  0.0985 -0.1869
  393DEC      C 1178   7.090   5.328   3.648 -0.0053  0.2180 -0.1661
  393DEC      C 1179   6.955   4.862   3.720  0.0809  0.2058 -0.2749
  394DEC      C 1180   4.899   1.404   1.078 -0.4059  0.0211 -0.1143
  394DEC      C 1181   4.600   1.184   1.299 -0.1164 -0.0860  0.1962
  394DEC      C 1182   4.302   1.049   1.596  0.5674 -0.0055 -0.3014
  395DEC      C 1183   5.141   4.011   3.252  0.0591  0.1181 -0.1422
  395DEC      C 1184   5.125   4.466   3.180  0.0359  0.0651 -0.2050
  395DEC      C 1185   5.150   4.858   2.917  0.1991 -0.0531  0.1908
  396DEC      C 1186   2.137   5.463   2.468  0.1357  0.1626 -0.2375
  396DEC      C 1187   1.872   5.770   2.177  0.2379 -0.0384  0.0579
  396DEC      C 1188   1.369   5.732   2.088  0.2677  0.1003 -0.2131
  397DEC      C 1189   7.896   1.969   2.601 -0.2771  0.1988  0.0719
  397DEC      C 1190   7.622   2.172   2.864  0.0276 -0.0092 -0.0116
  397DEC      C 1191   7.317   2.435   3.047  0.2640  0.0489 -0.1136
  398DEC      C 1192   1.224   3.964   3.537 -0.0668  0.2837 -0.0577
  398DEC      C 1193   0.866   3.692   3.256  0.0899 -0.0431  0.0925
  398DEC      C 1194   0.961   3.256   3.005 -0.0415  0.2670 -0.1778
  399DEC      C 1195   0.527   6.722   7.001 -0.2453 -0.1649 -0.0535
  399DEC      C 1196   0.175   6.949   6.997 -0.1300  0.1659  0.0488
  399DEC      C 1197  -0.138   7.286   7.008 -0.0313  0.1613 -0.1041
  400DEC      C 1198   2.106   1.682   1.094 -0.1809  0.4979 -0.3849
  400DEC      C 1199   1.734   1.427   1.382  0.0687 -0.0031 -0.1739
  400DEC      C 1200   1.663   1.251   1.806 -0.1105  0.1499 -0.2076
  401DEC      C 1201   4.252   0.031   2.638 -0.0263  0.1546 -0.4128
  401DEC      C 1202   4.213  -0.310   2.938 -0.0874 -0.2243  0.0895
  401DEC      C 1203   3.971  -0.329   3.249  0.2317  0.0886 -0.2345
  402DEC      C 1204   8.482   5.998   0.381 -0.2815 -0.0252  0.0661
  402DEC      C 1205   8.786   6.354   0.563  0.0563  0.3139 -0.1192
  402DEC      C 1206   8.801   6.790   0.667 -0.1842  0.0739 -0.1219
  403DEC      C 1207   5.126   3.573   7.140  0.0217 -0.1232 -0.1045
  403DEC      C 1208   5.031   3.894   6.941  0.1256 -0.0393  0.1575
  403DEC      C 1209   4.840   4.173   6.770  0.0541 -0.0758  0.0319
  404DEC      C 1210   7.865   0.610   3.492 -0.1289 -0.1502  0.2075
  404DEC      C 1211   7.619   0.135   3.384  0.0955 -0.1442  0.2462
  404DEC      C 1212   7.200  -0.084   3.403 -0.1604  0.0647 -0.0487
  405DEC      C 1213   7.005   5.829   0.755  0.6335  0.2529  0.1811
  405DEC      C 1214   7.423   5.813   1.019 -0.0380 -0.0653 -0.0123
  405DEC      C 1215   7.751   5.998   1.226  0.2404 -0.1494  0.2394
  406DEC      C 1216   3.231   2.239   3.760  0.0052  0.0602  0.1158
  406DEC      C 1217   2.857   2.495   3.967  0.0990 -0.2268  0.1842
  406DEC      C 1218   2.467   2.303   3.958  0.0551  0.0468  0.0149
  407DEC      C 1219   1.942   1.576   7.211 -0.0959 -0.3887  0.0936
  407DEC      C 1220   2.031   1.920   7.463 -0.0001 -0.0071  0.0368
  407DEC      C 1221   2.361   2.188   7.697  0.3526 -0.3284  0.1577
  408DEC      C 1222   4.106   1.334   4.802  0.2527  0.1045 -0.0913
  408DEC      C 1223   3.922   1.477   5.135 -0.1538 -0.0362  0.1152
  408DEC      C 1224   3.979   1.359   5.593 -0.0718  0.0759 -0.1089
  409DEC      C 1225   2.918   6.979   1.704  0.0674  0.0764  0.1878
  409DEC      C 1226   3.015   7.119   2.218  0.1290 -0.3220 -0.4512
  409DEC      C 1227   2.767   7.297   2.656  0.0390  0.2805 -0.1063
  410DEC      C 1228   4.456   5.678   1.057 -0.3648 -0.0904  0.2070
  410DEC      C 1229   4.850   5.609   1.324  0.1382 -0.1466  0.1039
  410DEC      C 1230   4.855   5.183   1.544 -0.0119  0.1133 -0.3401
  411DEC      C 1231   0.208   4.656   1.087  0.0377  0.0650 -0.0689
  411DEC      C 1232   0.431   4.755   1.488  0.2763  0.2171  0.1141
  411DEC      C 1233   0.519   4.850   1.913  0.2918 -0.1624  0.0858
  412DEC      C 1234   7.578   3.091   5.720  0.1754 -0.0472  0.0061
  412DEC      C 1235   7.876   2.984   6.075 -0.0699 -0.0916 -0.1070
  412DEC      C 1236   7.730   2.851   6.552 -0.1014 -0.1392  0.2952
  413DEC      C 1237   7.791   3.680   1.705 -0.0688 -0.0020 -0.5392
  413DEC      C 1238   7.564   3.973   1.747  0.0921 -0.0338  0.0905
  413DEC      C 1239   7.678   4.345   1.717 -0.0448  0.1311  0.1739
  414DEC      C 1240   0.610   4.759   3.806  0.1627 -0.0803 -0.0115
  414DEC      C 1241   0.686   4.839   4.254  0.0223  0.1169  0.1095
  414DEC      C 1242   0.514   4.928   4.644  0.0771  0.0244  0.0190
  415DEC      C 1243   1.291   2.320   4.200 -0.1058  0.2015 -0.0281
  415DEC      C 1244   0.946   2.417   4.393 -0.2442 -0.0479 -0.0981
  415DEC      C 1245   0.555   2.707   4.445  0.0509 -0.1783 -0.0120
  416DEC      C 1246   6.254   3.873   0.710 -0.1205  0.0556 -0.0072
  416DEC      C 1247   6.215   3.459   0.751  0.2757 -0.1156  0.0516
  416DEC      C 1248   6.371   3.105   1.087 -0.0141 -0.1560  0.1120
  417DEC      C 1249   0.762   4.126   3.586 -0.2384  0.0256 -0.0941
  417DEC      C 1250   0.325   4.098   3.505 -0.1363 -0.2903 -0.0210
  417DEC      C 1251   0.023   4.055   3.806  0.1501 -0.0112  0.0369
  418DEC      C 1252   7.743   1.837   1.887  0.1048 -0.0397 -0.1462
  418DEC      C 1253   7.268   1.894   2.003  0.3537 -0.0080  0.2540
  418DEC      C 1254   6.938   1.768   2.347  0.1696 -0.2663 -0.1966
  419DEC      C 1255   3.093   4.444   2.176 -0.3556  0.0282 -0.0700
  419DEC      C 1256   3.003   4.482   1.703  0.1819  0.0147 -0.0828
  419DEC      C 1257   3.026   4.194   1.447 -0.0871  0.1528  0.0094
  420DEC      C 1258   4.628   2.391   6.006 -0.2996 -0.0686  0.2255
  420DEC      C 1259   4.398   2.146   6.234  0.0719  0.0252  0.3057
  420DEC      C 1260   4.306   1.803   6.328 -0.1853 -0.0665 -0.0292
  421DEC      C 1261   5.047   5.482   3.705  0.0702  0.2383 -0.1142
  421DEC      C 1262   4.731   5.254   3.388  0.2855  0.0677  0.0198
  421DEC      C 1263   4.735   5.182   2.956 -0.1564 -0.2912  0.0825
  422DEC      C 1264   7.860   2.357   6.342 -0.0357 -0.3453  0.1373
  422DEC      C 1265   8.294   2.566   6.493 -0.2325  0.2387  0.0472
  422DEC      C 1266   8.690   2.439   6.522  0.0711  0.0308  0.3410
  423DEC      C 1267   4.896   0.184   4.129  0.1558  0.1525 -0.0656
  423DEC      C 1268   4.535   0.389   4.398 -0.0321 -0.1305  0.2557
  423DEC      C 1269   4.102   0.230   4.463 -0.1796  0.0974  0.0004
  424DEC      C 1270   0.780   4.498   6.659  0.2304 -0.2026  0.3238
  424DEC      C 1271   0.794   4.348   6.227  0.1342 -0.1033  0.0138
  424DEC      C 1272   0.953   4.002   6.098 -0.1811  0.1901 -0.2060
  425DEC      C 1273   3.323   0.320   0.211  0.0045  0.2900 -0.0160
  425DEC      C 1274   3.710   0.392   0.069 -0.1517 -0.3130  0.0338
  425DEC      C 1275   4.023   0.278  -0.092  0.1323 -0.2115  0.3156
  426DEC      C 1276   5.222   2.469   2.038 -0.2245 -0.2995 -0.0769
  426DEC      C 1277   4.905   2.185   2.170 -0.0657 -0.2210 -0.0924
  426DEC      C 1278   4.781   1.830   2.129  0.1437  0.0964 -0.1239
  427DEC      C 1279   4.108   5.900   0.136 -0.2307 -0.3163 -0.1334
  427DEC      C 1280   4.429   5.834   0.029  0.0129 -0.1842  0.2478
  427DEC      C 1281   4.820   6.080  -0.097 -0.1785 -0.0196  0.0790
  428DEC      C 1282   7.576   4.076   4.584  0.1812 -0.1337 -0.1226
  428DEC      C 1283   7.555   4.370   4.428  0.2331  0.0522 -0.0224
  428DEC      C 1284   7.817   4.605   4.158 -0.0017  0.1554 -0.0888
  429DEC      C 1285   3.315   6.184   1.879  0.1089 -0.2164  0.0690
  429DEC      C 1286   2.919   6.370   1.982  0.3115 -0.2828  0.1584
  429DEC      C 1287   2.589   6.629   2.116  0.1102  0.0942 -0.0208
  430DEC      C 1288   8.170   5.519   4.130 -0.1667 -0.2192  0.0984
  430DEC      C 1289   8.490   5.258   4.217 -0.2900 -0.1239 -0.2743
  430DEC      C 1290   8.952   5.183   4.207 -0.1293  0.0547  0.2253
  431DEC      C 1291   2.995   4.192   4.469  0.1664 -0.3372  0.2913
  431DEC      C 1292   3.391   4.132   4.624  0.0370 -0.3215  0.0430
  431DEC      C 1293   3.642   3.796   4.859  0.1491  0.1057  0.2787
  432DEC      C 1294   1.074   0.004   2.967 -0.0604  0.1884  0.1806
  432DEC      C 1295   1.283   0.051   2.569  0.1053  0.0019 -0.0430
  432DEC      C 1296   1.490  -0.106   2.284  0.0867  0.0246 -0.1106
  433DEC      C 1297   6.397   3.608   6.246 -0.0159  0.2355 -0.0680
  433DEC      C 1298   6.465   4.024   6.431  0.0152  0.0128 -0.1033
  433DEC      C 1299   6.243   4.342   6.484  0.0584 -0.1759  0.2276
  434DEC      C 1300   3.160   7.104   0.304 -0.2150  0.0493  0.0552
  434DEC      C 1301   3.533   7.211  -0.107  0.1287  0.0712 -0.1201
  434DEC      C 1302   3.730   7.135  -0.489 -0.1023  0.2716 -0.1191
  435DEC      C 1303   4.015   3.760   4.477  0.1442  0.1914  0.0931
  435DEC      C 1304   3.587   3.415   4.519  0.0024  0.1182 -0.2716
  435DEC      C 1305   3.604   3.294   4.918  0.0039  0.1720 -0.0421
  436DEC      C 1306   2.647   4.163   1.057 -0.0496  0.0643  0.3239
  436DEC      C 1307   2.908   4.516   1.130 -0.1951 -0.2060  0.0152
  436DEC      C 1308   3.251   4.770   1.247  0.1610 -0.3354  0.1812
  437DEC      C 1309   3.519   3.172   6.015  0.1160 -0.1767 -0.0816
  437DEC      C 1310   3.701   2.792   5.691  0.2055 -0.1926 -0.0064
  437DEC      C 1311   3.523   2.364   5.459 -0.2363  0.3338  0.0859
  438DEC      C 1312   4.172   7.113   6.508 -0.2343 -0.0133  0.1619
  438DEC      C 1313   4.376   6.711   6.435  0.0032  0.0238 -0.0614
  438DEC      C 1314   4.187   6.222   6.404  0.3021  0.1835 -0.4879
  439DEC      C 1315   3.771   5.128   6.865 -0.0029 -0.0324  0.1668
  439DEC      C 1316   3.554   5.134   7.210 -0.0710  0.4093  0.1113
  439DEC      C 1317   3.486   4.841   7.578 -0.3920 -0.0928  0.0284
  440DEC      C 1318   8.026   5.334   2.440  0.1330 -0.0646 -0.0608
  440DEC      C 1319   8.110   4.938   2.249  0.1073  0.0229 -0.1509
  440DEC      C 1320   8.072   4.637   1.909 -0.0574 -0.1789  0.3032
  441DEC      C 1321   2.384   1.029   3.615 -0.0767 -0.1067  0.1993
  441DEC      C 1322   2.777   1.079   3.806  0.0085 -0.0281  0.0818
  441DEC      C 1323   3.180   1.277   3.603 -0.2831 -0.0740  0.1574
  442DEC      C 1324   7.819   2.935   4.244  0.0022 -0.0579  0.1191
  442DEC      C 1325   7.852   2.809   3.763 -0.1681 -0.1556  0.0894
  442DEC      C 1326   7.479   3.082   3.574  0.2031 -0.0233 -0.1957
  443DEC      C 1327   2.391   1.328   4.025 -0.2154 -0.0038  0.2762
  443DEC      C 1328   2.381   1.734   4.073 -0.1170 -0.2898  0.0796
  443DEC      C 1329   2.373   1.994   4.360  0.0428 -0.5105  0.0879
  444DEC      C 1330   3.146   1.593   0.055  0.2981  0.0170  0.3823
  444DEC      C 1331   3.247   1.237   0.226 -0.0853  0.1876  0.0349
  444DEC      C 1332   3.490   0.874   0.393  0.0525 -0.1743  0.1133
  445DEC      C 1333   1.791   5.419   4.934 -0.1899 -0.1085 -0.1835
  445DEC      C 1334   1.472   5.162   5.156 -0.1654 -0.1651  0.1382
  445DEC      C 1335   1.381   4.810   5.450  0.1943  0.0637 -0.0354
  446DEC      C 1336   5.472   6.469   1.000 -0.2386 -0.0111 -0.3424
  446DEC      C 1337   5.913   6.617   0.964 -0.0935  0.3685  0.1949
  446DEC      C 1338   6.283   6.575   1.019  0.1173  0.2758 -0.0653
  447DEC      C 1339   8.214   0.487   5.640 -0.3812 -0.2679  0.0960
  447DEC      C 1340   8.651   0.395   5.665  0.1753 -0.0273 -0.1278
  447DEC      C 1341   9.047   0.419   5.319  0.3203  0.2359 -0.0795
  448DEC      C 1342   7.134   1.902   5.237 -0.3397 -0.2630 -0.0403
  448DEC      C 1343   6.717   2.116   5.480  0.0237 -0.1554 -0.0364
  448DEC      C 1344   6.271   2.015   5.474  0.0855  0.1543  0.1601
  449DEC      C 1345   3.668   1.783   2.513  0.1948 -0.2431 -0.1063
  449DEC      C 1346   3.774   1.428   2.785 -0.0021  0.1126 -0.3838
  449DEC      C 1347   3.743   0.944   2.863 -0.1429 -0.2597 -0.1849
  450DEC      C 1348   0.264   3.379   0.542  0.3226  0.1763 -0.1661
  450DEC      C 1349   0.450   2.985   0.597  0.6347  0.2414 -0.0977
  450DEC      C 1350   0.706   2.717   0.665 -0.0096  0.1191  0.1163
  451DEC      C 1351   2.272   4.005   3.045  0.3606  0.1077  0.0614
  451DEC      C 1352   2.105   4.338   2.906  0.1484  0.2564  0.0965
  451DEC      C 1353   2.157   4.793   2.912  0.3185 -0.1498 -0.1259
  452DEC      C 1354   1.474   7.168   5.930 -0.0596 -0.1544 -0.0517
  452DEC      C 1355   1.404   6.895   5.570 -0.0095 -0.2763  0.4270
  452DEC      C 1356   1.554   6.503   5.579 -0.0417  0.0191 -0.1344
  453DEC      C 1357   7.054   1.568   4.781  0.1706  0.2139  0.4246
  453DEC      C 1358   7.431   1.241   4.813  0.3825 -0.1907  0.0426
  453DEC      C 1359   7.737   0.930   4.688 -0.2442  0.1597 -0.0496
  454DEC      C 1360   5.674   1.748   7.252  0.0100  0.2284 -0.0272
  454DEC      C 1361   5.579   1.635   7.653  0.2865 -0.1104 -0.3232
  454DEC      C 1362   5.364   1.553   8.081 -0.1949  0.1470  0.0900
  455DEC      C 1363   2.159   5.519   0.860 -0.0710  0.1385 -0.0025
  455DEC      C 1364   2.429   5.163   0.807 -0.0142  0.0722  0.0049
  455DEC      C 1365   2.762   4.956   0.952  0.4323  0.0994  0.0508
  456DEC      C 1366   5.648   3.008   5.462  0.1595 -0.2234  0.2433
  456DEC      C 1367   5.666   2.672   5.288  0.2172 -0.0316  0.2354
  456DEC      C 1368   5.845   2.355   5.238  0.0705  0.0736 -0.2867
  457DEC      C 1369   5.618   4.825   1.994 -0.0123 -0.1922  0.4457
  457DEC      C 1370   5.888   4.815   1.699  0.1235 -0.1934  0.4824
  457DEC      C 1371   6.201   4.619   1.796  0.2241  0.3199 -0.3902
  458DEC      C 1372   0.432   4.716   2.556 -0.1056  0.0625 -0.1315
  458DEC      C 1373   0.505   5.058   2.369  0.2307  0.1069 -0.0749
  458DEC      C 1374   0.362   5.369   2.155 -0.2323 -0.1518 -0.2154
  459DEC      C 1375   2.628   1.564   1.392 -0.0453  0.2523  0.1072
  459DEC      C 1376   2.681   1.628   1.043  0.0886 -0.2427  0.0980
  459DEC      C 1377   2.513   1.762   0.744 -0.0800 -0.0367  0.0314
  460DEC      C 1378   1.250   1.537   4.307  0.0271  0.1800 -0.1026
  460DEC      C 1379   0.869   1.348   4.610 -0.0732 -0.2344  0.0558
  460DEC      C 1380   0.731   1.673   4.978 -0.0342 -0.0196  0.2284
  461DEC      C 1381   6.567   2.988   1.952 -0.0176 -0.0511 -0.1233
  461DEC      C 1382   6.439   2.867   2.415  0.1218 -0.0731  0.1815
  461DEC      C 1383   6.439   2.515   2.717 -0.1201 -0.0274 -0.0978
  462DEC      C 1384   1.741   3.673   0.207 -0.0504  0.0004  0.3231
  462DEC      C 1385   2.110   3.738   0.482 -0.1023 -0.2096  0.2662
  462DEC      C 1386   2.415   4.091   0.587  0.2837 -0.2651  0.4537
  463DEC      C 1387   7.338   0.101   1.230 -0.0202 -0.0911  0.2145
  463DEC      C 1388   7.090  -0.181   1.510 -0.2789  0.0779 -0.1162
  463DEC      C 1389   6.800  -0.442   1.699 -0.4773 -0.2022  0.1216
  464DEC      C 1390   3.106   3.258   4.671  0.0178  0.1098 -0.1183
  464DEC      C 1391   3.160   3.607   4.722  0.1557 -0.0771  0.0356
  464DEC      C 1392   2.745   3.869   4.926  0.1957 -0.1523 -0.0195
  465DEC      C 1393   0.465   3.107   3.414  0.2826  0.0432  0.0645
  465DEC      C 1394   0.038   3.155   3.599 -0.3616  0.0647 -0.1307
  465DEC      C 1395  -0.308   2.961   3.878 -0.0197  0.2511  0.2378
  466DEC      C 1396   5.356   0.669   1.564 -0.1464  0.3358  0.0090
  466DEC      C 1397   5.699   0.758   1.299 -0.0026  0.3386 -0.1032
  466DEC      C 1398   5.823   0.514   1.066  0.1689 -0.0783 -0.2245
  467DEC      C 1399   0.476   3.841   6.171 -0.0285  0.0711  0.0193
  467DEC      C 1400   0.710   3.614   6.513  0.1396  0.0871  0.0381
  467DEC      C 1401   0.824   3.175   6.591  0.1459 -0.0814 -0.0831
  468DEC      C 1402   3.111   2.108   5.816  0.2920  0.0922 -0.1722
  468DEC      C 1403   3.500   1.913   6.103  0.0353 -0.1598 -0.2116
  468DEC      C 1404   3.877   2.028   6.174 -0.3387  0.2602 -0.2344
  469DEC      C 1405   5.711   4.601   0.321  0.1421 -0.1666  0.1110
  469DEC      C 1406   5.850   4.833  -0.084  0.0357  0.0036 -0.4215
  469DEC      C 1407   5.824   4.967  -0.453  0.2696 -0.0287 -0.1469
  470DEC      C 1408   5.047   3.639   0.573  0.1178 -0.1738 -0.0423
  470DEC      C 1409   5.457   3.652   0.469 -0.0453 -0.2836  0.0826
  470DEC      C 1410   5.818   3.860   0.513  0.0109  0.2993  0.1321
  471DEC      C 1411   0.719   6.023   4.945 -0.1314 -0.0717  0.0241
  471DEC      C 1412   0.636   6.124   4.539  0.1628  0.0055 -0.1230
  471DEC      C 1413   0.375   6.183   4.188  0.0929  0.1647 -0.2633
  472DEC      C 1414   4.206   7.238   3.538 -0.1886  0.1245  0.2852
  472DEC      C 1415   4.613   6.980   3.378  0.0072  0.0384  0.1422
  472DEC      C 1416   4.899   6.635   3.374 -0.2570 -0.2210  0.0663
  473DEC      C 1417   5.477   6.825   0.662 -0.2095  0.2373  0.3461
  473DEC      C 1418   5.625   6.605   0.244  0.2726  0.0462  0.2015
  473DEC      C 1419   5.547   6.429  -0.167  0.0722 -0.1183 -0.0704
  474DEC      C 1420   6.274   6.925   6.861 -0.2317 -0.0755 -0.2137
  474DEC      C 1421   5.978   6.819   7.216 -0.2943 -0.1999 -0.2008
  474DEC      C 1422   5.768   7.101   7.515  0.1292 -0.1830 -0.1505
  475DEC      C 1423   4.904   3.403   5.076  0.2187  0.1419 -0.1768
  475DEC      C 1424   4.674   3.010   5.112  0.1721 -0.0812 -0.0037
  475DEC      C 1425   4.307   2.699   5.088 -0.1594  0.0899  0.2044
  476DEC      C 1426   8.398   4.002   4.900  0.3759  0.0855 -0.0131
  476DEC      C 1427   8.422   4.109   5.301 -0.2406 -0.3148 -0.2678
  476DEC      C 1428   8.696   4.078   5.599 -0.1042  0.3199 -0.2256
  477DEC      C 1429   8.333   5.557   0.216  0.3323 -0.3188 -0.0484
  477DEC      C 1430   8.158   5.407  -0.170  0.2196 -0.1835  0.0073
  477DEC      C 1431   8.326   4.974  -0.282 -0.3003  0.2762  0.4526
  478DEC      C 1432   2.238   1.232   0.136 -0.2200  0.2561 -0.3433
  478DEC      C 1433   1.792   1.122   0.209 -0.1307 -0.2001  0.0207
  478DEC      C 1434   1.424   1.031   0.239  0.3640 -0.0773  0.1734
  479DEC      C 1435   7.636   6.514   5.083 -0.1065 -0.1430  0.1493
  479DEC      C 1436   7.305   6.218   4.895 -0.3639 -0.1169 -0.2416
  479DEC      C 1437   6.866   6.225   5.058 -0.3556  0.2668  0.2029
  480DEC      C 1438   8.338   6.501   2.170  0.2005  0.2630  0.1271
  480DEC      C 1439   8.117   6.388   2.577 -0.3916  0.2018 -0.2983
  480DEC      C 1440   7.791   6.330   2.658 -0.0234 -0.0468 -0.1251
  481DEC      C 1441   0.785   7.078   3.950 -0.0320  0.0812 -0.3777
  481DEC      C 1442   0.326   7.260   4.028  0.0580  0.0224  0.0175
  481DEC      C 1443   0.105   7.696   4.122  0.3049  0.3531 -0.0777
  482DEC      C 1444   2.058   0.807   5.724  0.0266 -0.2168  0.2368
  482DEC      C 1445   1.750   1.020   5.728 -0.1080 -0.0843 -0.0987
  482DEC      C 1446   1.513   1.327   5.889 -0.1560 -0.0377 -0.0097
  483DEC      C 1447   0.503   5.397   5.372  0.1002  0.0218  0.0554
  483DEC      C 1448   0.281   5.592   5.753  0.0760  0.0962  0.1719
  483DEC      C 1449  -0.130   5.658   5.706 -0.1176  0.3211 -0.0453
  484DEC      C 1450   7.027   7.206   0.896  0.2927  0.3787  0.0961
  484DEC      C 1451   7.137   6.865   0.672 -0.2299  0.2530 -0.0416
  484DEC      C 1452   7.497   6.533   0.492 -0.1704 -0.0247  0.0150
  485DEC      C 1453   4.808   5.257   6.564  0.4059 -0.1545 -0.1527
  485DEC      C 1454   5.001   5.094   6.234 -0.5475  0.0928 -0.0175
  485DEC      C 1455   5.270   4.765   6.484 -0.0225 -0.2275 -0.1156
  486DEC      C 1456   5.401   0.029   6.655  0.1443  0.0798  0.0842
  486DEC      C 1457   5.004  -0.108   6.462  0.0235  0.3290  0.3891
  486DEC      C 1458   4.627  -0.006   6.683 -0.1783  0.1203 -0.0248
  487DEC      C 1459   3.397   5.695   1.900  0.5132 -0.4481 -0.3380
  487DEC      C 1460   3.669   5.434   1.938  0.1200 -0.1198 -0.0614
  487DEC      C 1461   3.873   5.328   2.328  0.1418  0.0106  0.1258
  488DEC      C 1462   2.117   0.927   0.566 -0.0868 -0.1818  0.1109
  488DEC      C 1463   2.149   0.526   0.728 -0.2182 -0.0474  0.0199
  488DEC      C 1464   2.357   0.227   0.984 -0.0805  0.0840 -0.2351
  489DEC      C 1465   6.853   6.640   2.198  0.1746 -0.1339 -0.1842
  489DEC      C 1466   7.059   6.840   2.508 -0.1289 -0.1184 -0.0477
  489DEC      C 1467   7.347   7.209   2.528 -0.1106  0.0848 -0.1788
  490DEC      C 1468   7.967   3.987   3.390 -0.2203  0.0333  0.1347
  490DEC      C 1469   8.312   4.200   3.390  0.1238 -0.1437 -0.0275
  490DEC      C 1470   8.732   4.499   3.464 -0.1030  0.0277  0.2898
  491DEC      C 1471   4.837   1.921   2.607 -0.2435 -0.0079 -0.1257
  491DEC      C 1472   4.994   1.571   2.840 -0.3524 -0.0950 -0.0774
  491DEC      C 1473   4.762   1.289   3.269  0.0986  0.1073 -0.1608
  492DEC      C 1474   7.345   0.678   0.100 -0.0585 -0.1773  0.3281
  492DEC      C 1475   6.961   0.552   0.204  0.0461  0.2644  0.3624
  492DEC      C 1476   6.656   0.305   0.214  0.2486  0.0995 -0.0493
  493DEC      C 1477   7.747   6.966   0.722  0.0572 -0.2780  0.1374
  493DEC      C 1478   7.481   7.291   0.729 -0.3139  0.1295  0.2808
  493DEC      C 1479   7.269   7.651   0.570  0.1002 -0.2282 -0.0165
  494DEC      C 1480   5.129   6.031   4.529 -0.0845 -0.0534  0.0927
  494DEC      C 1481   4.830   6.325   4.680 -0.1703  0.1279 -0.1035
  494DEC      C 1482   4.545   6.203   5.014 -0.0633 -0.2128 -0.0922
  495DEC      C 1483   2.850   0.448   6.506  0.0199 -0.0114 -0.1391
  495DEC      C 1484   2.812   0.993   6.349 -0.0436  0.0565 -0.0076
  495DEC      C 1485   2.460   1.210   6.383 -0.0574  0.1106 -0.2359
  496DEC      C 1486   7.375   2.465   5.254 -0.1180  0.0254 -0.1252
  496DEC      C 1487   7.728   2.452   4.976 -0.0565 -0.0311 -0.0599
  496DEC      C 1488   8.141   2.785   4.763  0.0996  0.1156 -0.1221
  497DEC      C 1489   3.812   4.172   3.159 -0.0231  0.3007 -0.0423
  497DEC      C 1490   3.995   4.473   2.944 -0.1477  0.0496 -0.3053
  497DEC      C 1491   3.894   4.895   2.882  0.1669 -0.0961  0.0288
  498DEC      C 1492   7.371   3.242   4.181  0.0187  0.1466 -0.0713
  498DEC      C 1493   7.370   3.647   4.285  0.1765  0.1448 -0.1304
  498DEC      C 1494   7.283   3.983   4.103 -0.1524 -0.0539  0.0070
  499DEC      C 1495   5.076   1.956   5.041 -0.0346 -0.0995  0.0785
  499DEC      C 1496   5.465   2.029   5.033 -0.0877 -0.0435 -0.0844
  499DEC      C 1497   5.784   1.798   5.022  0.0518  0.0527  0.0249
  500DEC      C 1498   1.232   3.678   1.619 -0.1345  0.1454  0.3448
  500DEC      C 1499   1.095   3.387   1.328 -0.0411 -0.0688 -0.0656
  500DEC      C 1500   1.323   3.162   0.952 -0.3172 -0.0086 -0.1050
  501DEC      C 1501   1.119   7.276   0.934  0.1738 -0.1031  0.2859
  501DEC      C 1502   1.179   6.833   0.851  0.0011  0.0396 -0.4200
  501DEC      C 1503   1.091   6.401   0.754 -0.0053  0.0864 -0.2189
  502DEC      C 1504   3.507   6.042   3.441 -0.0408 -0.1127 -0.1026
  502DEC      C 1505   3.382   6.434   3.498 -0.2628  0.0826 -0.0546
  502DEC      C 1506   3.377   6.880   3.687 -0.3072  0.1177  0.0652
  503DEC      C 1507   1.941   5.298   3.010  0.3260  0.1110 -0.0498
  503DEC      C 1508   1.733   5.004   2.798 -0.0672  0.1557  0.1746
  503DEC      C 1509   1.913   4.731   2.441  0.0031  0.0645 -0.1123
  504DEC      C 1510   4.143   7.049   5.521 -0.1272 -0.1753  0.0368
  504DEC      C 1511   4.567   6.994   5.771 -0.2154 -0.0685  0.0407
  504DEC      C 1512   4.581   7.087   6.220  0.3608 -0.1600  0.0854
  505DEC      C 1513   1.596   0.086   1.528  0.1329 -0.0333  0.0428
  505DEC      C 1514   1.742   0.483   1.632  0.0332  0.1854 -0.1163
  505DEC      C 1515   1.850   0.702   1.902 -0.2376 -0.1006  0.2133
  506DEC      C 1516   5.534   3.540   5.611  0.0636 -0.0206  0.1596
  506DEC      C 1517   5.470   3.569   6.168 -0.1675  0.1056  0.2277
  506DEC      C 1518   5.528   3.692   6.613  0.0240  0.3352  0.3626
  507DEC      C 1519   6.143   6.470   4.842 -0.2879  0.1415  0.0046
  507DEC      C 1520   6.033   6.082   4.691  0.2322  0.0494 -0.1057
  507DEC      C 1521   6.112   5.658   4.612 -0.3121  0.1876  0.0762
  508DEC      C 1522   2.306   6.029   4.454 -0.0033 -0.1364 -0.7363
  508DEC      C 1523   2.744   5.887   4.548  0.0325  0.1718  0.1425
  508DEC      C 1524   3.147   5.696   4.640  0.0560 -0.0531 -0.0680
  509DEC      C 1525   2.134   3.237   4.235 -0.1331  0.2078 -0.2298
  509DEC      C 1526   2.007   2.840   3.998  0.0402 -0.0276  0.3336
  509DEC      C 1527   1.706   2.513   4.012 -0.0411 -0.1936 -0.0461
  510DEC      C 1528   0.163   2.052   1.616  0.2372 -0.2166  0.0213
  510DEC      C 1529   0.503   2.080   1.446  0.3525  0.3791  0.0156
  510DEC      C 1530   0.876   1.881   1.588 -0.1761  0.0537  0.0842
  511DEC      C 1531   1.882   3.251   3.791  0.1263 -0.3136  0.2229
  511DEC      C 1532   1.692   3.513   4.142  0.3631 -0.1689 -0.0507
  511DEC      C 1533   1.404   3.502   4.449 -0.2345  0.2553  0.2001
  512DEC      C 1534   4.823   0.910   5.350 -0.1019 -0.0325  0.0538
  512DEC      C 1535   4.908   1.101   4.931  0.2132 -0.0743 -0.3053
  512DEC      C 1536   5.305   1.471   4.956  0.2058 -0.2040 -0.0049
  513DEC      C 1537   0.266   5.397   3.679  0.3088 -0.3828  0.2314
  513DEC      C 1538  -0.126   5.460   3.736  0.1078 -0.3449 -0.3872
  513DEC      C 1539  -0.426   5.918   3.746 -0.0619 -0.1586 -0.1414
  514DEC      C 1540   3.938   0.908   3.676  0.0324  0.0692  0.0788
  514DEC      C 1541   3.773   1.379   3.527  0.1235  0.0697 -0.0814
  514DEC      C 1542   3.425   1.779   3.603  0.0751  0.3293  0.0173
  515DEC      C 1543   6.574   2.908   4.686 -0.0666 -0.0317 -0.0628
  515DEC      C 1544   6.446   3.167   4.956  0.0988  0.0682 -0.0457
  515DEC      C 1545   6.609   3.291   5.375  0.0542 -0.0041 -0.2724
  516DEC      C 1546   5.644   0.905   2.869 -0.2508 -0.0654 -0.0849
  516DEC      C 1547   5.457   0.760   2.526  0.1192  0.2014 -0.0240
  516DEC      C 1548   5.111   0.889   2.359 -0.2639  0.0901 -0.0934
  517DEC      C 1549   4.855   3.983   4.392 -0.1274 -0.0941  0.1465
  517DEC      C 1550   4.463   4.072   4.528 -0.3740 -0.1225 -0.0225
  517DEC      C 1551   4.307   4.343   4.839  0.0790  0.1077 -0.0547
  518DEC      C 1552   5.447   4.390   6.242  0.0830  0.0306 -0.1535
  518DEC      C 1553   5.767   4.458   6.567 -0.1802  0.0384 -0.2167
  518DEC      C 1554   6.131   4.431   6.979  0.0887  0.0320  0.0643
  519DEC      C 1555   5.632   6.697   6.344 -0.0771 -0.0486  0.1059
  519DEC      C 1556   6.117   6.612   6.546 -0.0190 -0.3039 -0.1287
  519DEC      C 1557   6.096   6.316   6.866  0.1251  0.2723  0.2773
  520DEC      C 1558   8.148   1.451   1.155 -0.0204  0.2703  0.2470
  520DEC      C 1559   8.210   1.723   0.933 -0.4885  0.0023 -0.1193
  520DEC      C 1560   8.469   2.117   0.821 -0.1352  0.0809  0.4665
  521DEC      C 1561   5.055   5.984   1.704 -0.3347 -0.0143 -0.0860
  521DEC      C 1562   5.257   6.025   1.358  0.0573  0.1681 -0.1457
  521DEC      C 1563   5.287   5.934   0.933 -0.2204  0.1427  0.0130
  522DEC      C 1564   6.888   4.419   1.099 -0.2463  0.2435 -0.0503
  522DEC      C 1565   6.766   4.691   0.879  0.0472 -0.0403 -0.0983
  522DEC      C 1566   6.608   4.728   0.484 -0.3744 -0.0197 -0.1506
  523DEC      C 1567   6.533   4.399   6.088 -0.0841 -0.3811  0.0514
  523DEC      C 1568   6.964   4.335   6.151  0.0492  0.1029 -0.0654
  523DEC      C 1569   7.177   4.646   6.476 -0.1003 -0.0380  0.0232
  524DEC      C 1570   2.333   4.873   0.439 -0.1827  0.1400  0.2125
  524DEC      C 1571   2.759   4.920   0.443 -0.1109  0.0777 -0.1668
  524DEC      C 1572   2.792   5.255   0.469 -0.0162  0.1860  0.2289
  525DEC      C 1573   3.698   1.032   5.247  0.2132  0.1769 -0.2751
  525DEC      C 1574   3.312   0.806   5.060 -0.0674  0.0007  0.1024
  525DEC      C 1575   3.116   0.332   5.129 -0.0155  0.3103 -0.4893
  526DEC      C 1576   7.870   2.297   3.924  0.4123  0.0116  0.0935
  526DEC      C 1577   8.159   1.936   3.749 -0.1736  0.0439  0.2724
  526DEC      C 1578   8.125   1.554   3.441 -0.1569 -0.0313 -0.1029
  527DEC      C 1579   0.201   3.011   2.477  0.2815  0.1259 -0.0591
  527DEC      C 1580  -0.159   3.144   2.644  0.1014 -0.2552  0.0592
  527DEC      C 1581  -0.517   3.526   2.671  0.0631  0.0143  0.0341
  528DEC      C 1582   1.022   6.822   6.224 -0.0654  0.0180 -0.2047
  528DEC      C 1583   1.440   6.716   6.224  0.1891  0.1249  0.0103
  528DEC      C 1584   1.845   6.783   5.986 -0.0428  0.1831  0.0739
  529DEC      C 1585   8.461   4.507   6.265  0.0172  0.1347 -0.0083
  529DEC      C 1586   8.520   4.124   6.508  0.1846  0.3997 -0.4294
  529DEC      C 1587   8.803   3.777   6.585  0.1557  0.0975 -0.0333
  530DEC      C 1588   6.064   3.525   6.701 -0.2535 -0.1568  0.0256
  530DEC      C 1589   6.247   3.653   7.086  0.0112 -0.1778 -0.0968
  530DEC      C 1590   6.335   3.769   7.471  0.0319  0.1864  0.0981
  531DEC      C 1591   2.804   2.793   5.296 -0.0651 -0.0165  0.1334
  531DEC      C 1592   2.857   2.489   4.929 -0.1811 -0.0988  0.0129
  531DEC      C 1593   2.578   2.342   4.712 -0.0881 -0.2199 -0.1678
  532DEC      C 1594   8.548   6.691   4.996  0.1965  0.0594  0.0482
  532DEC      C 1595   8.479   6.984   4.784  0.1944  0.3516 -0.0886
  532DEC      C 1596   8.681   7.321   4.528 -0.0659  0.1308  0.2746
  533DEC      C 1597   8.047   1.878   4.945  0.2015  0.2914 -0.1966
  533DEC      C 1598   8.429   1.654   4.940 -0.0528 -0.0135 -0.1628
  533DEC      C 1599   8.873   1.551   4.879  0.0182  0.0470  0.0998
  534DEC      C 1600   6.518   1.310   4.280  0.2623  0.0199  0.1997
  534DEC      C 1601   6.696   1.535   4.187  0.0770  0.0817  0.1954
  534DEC      C 1602   7.093   1.658   4.296 -0.1542 -0.1188  0.0126
  535DEC      C 1603   1.356   4.303   6.173  0.0757  0.1227  0.2484
  535DEC      C 1604   1.862   4.168   6.225  0.0584  0.2969 -0.1622
  535DEC      C 1605   2.341   4.205   6.057  0.0812 -0.3925  0.1815
  536DEC      C 1606   5.884   6.922   1.380 -0.0290 -0.0717  0.0052
  536DEC      C 1607   6.291   6.946   1.449 -0.0036  0.0556 -0.0374
  536DEC      C 1608   6.653   7.193   1.271  0.3239  0.0493 -0.2098
  537DEC      C 1609   4.999   7.154   6.992  0.2623  0.2240  0.2472
  537DEC      C 1610   4.865   7.512   7.164  0.0712 -0.1432  0.0146
  537DEC      C 1611   4.806   7.783   7.482  0.2171  0.3747 -0.1038
  538DEC      C 1612   3.593   6.875   5.214 -0.0490  0.2354  0.1409
  538DEC      C 1613   3.827   7.171   5.072 -0.1529  0.0032  0.0249
  538DEC      C 1614   4.047   7.488   5.128 -0.1723  0.1794  0.3032
  539DEC      C 1615   3.011   5.415   2.114  0.0183 -0.2061 -0.0446
  539DEC      C 1616   2.649   5.360   2.367  0.0251  0.2902 -0.1319
  539DEC      C 1617   2.437   5.052   2.540  0.1874 -0.1854 -0.0480
  540DEC      C 1618   2.099   6.452   3.392 -0.2740 -0.0022 -0.3377
  540DEC      C 1619   1.858   6.812   3.132  0.0305  0.0731 -0.1166
  540DEC      C 1620   1.530   7.007   2.892 -0.0484  0.0942  0.0380
  541DEC      C 1621   6.964   7.102   6.295  0.2892  0.0200 -0.1511
  541DEC      C 1622   6.734   7.169   5.905  0.0752 -0.2604  0.2176
  541DEC      C 1623   6.551   7.601   5.855  0.2432  0.1075 -0.0643
  542DEC      C 1624   1.952   4.834   5.343  0.2026  0.1925  0.0100
  542DEC      C 1625   2.110   4.458   5.582 -0.0493  0.0071  0.0187
  542DEC      C 1626   1.991   3.942   5.789 -0.2038 -0.0590  0.2181
  543DEC      C 1627   3.352   1.629   0.596  0.0186 -0.0859  0.0394
  543DEC      C 1628   3.583   1.797   0.198 -0.0044  0.1644 -0.0282
  543DEC      C 1629   3.907   1.949  -0.135  0.0615 -0.1732 -0.1056
  544DEC      C 1630   5.385   3.512   3.870  0.1810  0.0394 -0.0117
  544DEC      C 1631   5.562   3.816   3.573 -0.0658 -0.0661  0.3206
  544DEC      C 1632   5.803   3.769   3.251 -0.0624  0.0936  0.0121
  545DEC      C 1633   7.411   5.513   0.586  0.4917 -0.0112 -0.0622
  545DEC      C 1634   7.518   5.009   0.728 -0.1748  0.0800  0.1028
  545DEC      C 1635   7.901   4.731   0.670  0.0678  0.2744 -0.0187
  546DEC      C 1636   3.487   2.772   2.036  0.2711 -0.0447 -0.1553
  546DEC      C 1637   3.691   2.929   1.721  0.0076 -0.1402  0.0828
  546DEC      C 1638   3.807   2.932   1.205 -0.0777  0.2218  0.0907
  547DEC      C 1639   3.808   6.155   0.512 -0.1280 -0.2544  0.1983
  547DEC      C 1640   3.718   6.315   0.838 -0.0061 -0.0724  0.0830
  547DEC      C 1641   3.878   6.697   1.046 -0.0245 -0.3207  0.2279
  548DEC      C 1642   6.886   5.369   4.072 -0.0703  0.0327  0.2043
  548DEC      C 1643   6.531   5.245   3.822  0.1440  0.0261  0.0164
  548DEC      C 1644   6.207   5.175   3.430  0.1168 -0.0443  0.1329
  549DEC      C 1645   4.322   6.736   0.166 -0.1478  0.0616  0.0517
  549DEC      C 1646   4.095   6.466   0.277 -0.1799  0.4080  0.3266
  549DEC      C 1647   3.715   6.705   0.468 -0.0028  0.3820 -0.1703
  550DEC      C 1648   8.193   1.748   5.620  0.0864 -0.1504 -0.0540
  550DEC      C 1649   8.302   1.489   5.872  0.0356  0.2104  0.2510
  550DEC      C 1650   8.318   1.566   6.367  0.0876  0.1172  0.0100
  551DEC      C 1651   2.231   0.902   3.121 -0.0715 -0.1177  0.0448
  551DEC      C 1652   2.416   0.565   3.286 -0.1063 -0.0047 -0.1107
  551DEC      C 1653   2.760   0.565   3.521  0.0789 -0.0354  0.0554
  552DEC      C 1654   6.909   3.965   2.936  0.1698 -0.0881 -0.2575
  552DEC      C 1655   7.199   4.278   2.891 -0.0466 -0.0112 -0.3298
  552DEC      C 1656   7.473   4.643   2.979  0.2451  0.0745 -0.1852
  553DEC      C 1657   0.656   0.129   4.373 -0.0708  0.0102 -0.0912
  553DEC      C 1658   0.413  -0.346   4.454  0.0263 -0.3420  0.2149
  553DEC      C 1659   0.379  -0.608   4.742  0.2264 -0.0622  0.1314
  554DEC      C 1660   8.628   4.048   0.342 -0.1540 -0.1800 -0.3225
  554DEC      C 1661   8.830   4.295   0.172 -0.1296  0.0959 -0.0268
  554DEC      C 1662   9.068   4.364  -0.254 -0.4622  0.0824  0.0064
  555DEC      C 1663   0.728   0.296   0.244 -0.0583  0.1687  0.0821
  555DEC      C 1664   0.783   0.303   0.700 -0.0637  0.1253  0.3034
  555DEC      C 1665   0.589   0.278   1.084 -0.1253  0.1296  0.0781
  556DEC      C 1666   7.769   1.592   0.382  0.0236 -0.1034  0.0734
  556DEC      C 1667   7.740   1.334   0.731  0.1816 -0.1764 -0.2429
  556DEC      C 1668   7.694   1.292   1.163 -0.3088 -0.2924 -0.0630
  557DEC      C 1669   3.394   2.785   5.294 -0.0910 -0.2526  0.2168
  557DEC      C 1670   3.256   2.820   4.818  0.0236  0.3541  0.0245
  557DEC      C 1671   3.302   2.853   4.363  0.1345 -0.4186 -0.0745
  558DEC      C 1672   0.074   3.992   4.314 -0.2253 -0.0428 -0.2142
  558DEC      C 1673  -0.287   3.769   4.435  0.0255 -0.1537  0.0527
  558DEC      C 1674  -0.638   3.759   4.711  0.0456  0.0820 -0.1504
  559DEC      C 1675   6.482   0.877   4.437 -0.1488  0.2617  0.0473
  559DEC      C 1676   6.168   1.032   4.075 -0.2725  0.4757 -0.1933
  559DEC      C 1677   6.102   1.217   3.755  0.0875 -0.3124 -0.2661
  560DEC      C 1678   8.087   4.700   4.570 -0.0191 -0.0487 -0.3750
  560DEC      C 1679   8.072   5.108   4.417  0.1866  0.0464  0.0709
  560DEC      C 1680   7.709   5.254   4.341 -0.0434  0.3447 -0.0621
  561DEC      C 1681   4.972   1.476   1.582  0.0545 -0.0486 -0.1541
  561DEC      C 1682   4.893   1.901   1.596 -0.0724 -0.1314 -0.0678
  561DEC      C 1683   4.592   2.204   1.347 -0.2698  0.2942 -0.1820
  562DEC      C 1684   3.595   0.104   3.894 -0.1625  0.1892 -0.0715
  562DEC      C 1685   3.181   0.232   4.043  0.1409 -0.0311 -0.2812
  562DEC      C 1686   2.795   0.270   3.963  0.0594  0.0915 -0.2642
  563DEC      C 1687   0.133   3.735   2.479 -0.0676  0.1078  0.3931
  563DEC      C 1688   0.017   3.600   2.801 -0.1326 -0.2014 -0.0195
  563DEC      C 1689  -0.256   3.378   3.100  0.1046  0.1687  0.0307
  564DEC      C 1690   1.480   3.222   2.794  0.0182  0.0686  0.0129
  564DEC      C 1691   1.181   3.465   2.637  0.0850 -0.1035  0.1363
  564DEC      C 1692   0.973   3.726   2.741  0.1560 -0.1338 -0.0145
  565DEC      C 1693   3.649   6.369   2.117 -0.1387  0.2912  0.3643
  565DEC      C 1694   4.004   6.260   1.954  0.0853 -0.0114 -0.0824
  565DEC      C 1695   4.276   6.389   1.789 -0.0904 -0.2341 -0.3797
  566DEC      C 1696   3.883   2.393   1.785  0.0108 -0.0309 -0.2546
  566DEC      C 1697   4.227   2.409   1.755 -0.0466 -0.2796  0.0284
  566DEC      C 1698   4.475   2.168   1.996  0.0974  0.2476  0.1244
  567DEC      C 1699   3.432   3.280   0.305  0.5304 -0.1569  0.0886
  567DEC      C 1700   3.464   3.736   0.437  0.0445  0.0027  0.0608
  567DEC      C 1701   3.548   4.199   0.532  0.0319 -0.1677  0.1072
  568DEC      C 1702   8.300   3.257   4.495  0.4738 -0.2645 -0.0458
  568DEC      C 1703   8.143   3.368   4.110  0.2269 -0.3922  0.1971
  568DEC      C 1704   7.786   3.475   3.955  0.1402  0.1125  0.3774
  569DEC      C 1705   3.930   6.436   1.415  0.0027 -0.1065 -0.0508
  569DEC      C 1706   4.376   6.530   1.322  0.0642  0.1092 -0.1102
  569DEC      C 1707   4.725   6.875   1.259  0.0045 -0.2053  0.1941
  570DEC      C 1708   0.116   2.883   1.507  0.2685 -0.2773 -0.1048
  570DEC      C 1709   0.116   3.293   1.510 -0.0697 -0.1832 -0.1829
  570DEC      C 1710  -0.002   3.639   1.358 -0.1885 -0.0707 -0.1343
  571DEC      C 1711   7.670   5.495   7.089 -0.0396  0.1645 -0.0185
  571DEC      C 1712   7.650   5.528   6.633  0.1301 -0.2506  0.2551
  571DEC      C 1713   7.659   5.719   6.272 -0.3430 -0.0490 -0.1131
  572DEC      C 1714   3.066   5.932   5.589 -0.0872  0.0853 -0.0003
  572DEC      C 1715   3.131   6.390   5.487  0.3450  0.0090 -0.0658
  572DEC      C 1716   3.085   6.821   5.386 -0.0495 -0.1422  0.0077
  573DEC      C 1717   7.166   6.160   1.276 -0.3041 -0.1173  0.3532
  573DEC      C 1718   7.416   6.142   1.566  0.2322 -0.1136 -0.1043
  573DEC      C 1719   7.598   6.108   1.842 -0.0525 -0.0568 -0.0963
  574DEC      C 1720   6.964   2.817   5.193  0.2450  0.0418  0.1564
  574DEC      C 1721   7.283   2.809   4.867 -0.1406  0.3705 -0.1246
  574DEC      C 1722   7.599   2.906   4.687 -0.0943 -0.1313 -0.0805
  575DEC      C 1723   1.686   2.794   7.077  0.3247  0.0478  0.0835
  575DEC      C 1724   1.995   2.861   7.096 -0.0167  0.3780  0.0746
  575DEC      C 1725   2.348   3.035   7.099 -0.0978 -0.1350  0.1543
  576DEC      C 1726   8.244   4.544   6.708 -0.1085  0.2789 -0.2120
  576DEC      C 1727   8.018   4.251   6.500  0.0048 -0.1121  0.0933
  576DEC      C 1728   7.864   3.786   6.638  0.2207 -0.1310  0.0324
  577DEC      C 1729   1.186   5.037   4.165  0.1713 -0.2582 -0.1058
  577DEC      C 1730   1.218   4.693   3.917  0.2570  0.0611  0.3787
  577DEC      C 1731   1.244   4.475   3.562  0.2467 -0.2245  0.0892
  578DEC      C 1732   6.772   6.962   6.756 -0.0358 -0.0201  0.3332
  578DEC      C 1733   7.081   6.594   6.715 -0.1665 -0.0346  0.1212
  578DEC      C 1734   7.273   6.448   6.412  0.2220 -0.1959 -0.2929
  579DEC      C 1735   3.726   2.556   0.376 -0.3280 -0.0763 -0.2979
  579DEC      C 1736   3.711   2.410   0.765  0.1627  0.1435 -0.2311
  579DEC      C 1737   3.566   2.087   0.697  0.2116  0.3314  0.1534
  580DEC      C 1738   7.814   0.621   0.679  0.2585  0.1650  0.3459
  580DEC      C 1739   7.853   0.353   1.023  0.0222  0.2811  0.1201
  580DEC      C 1740   7.742   0.327   1.431  0.2622  0.0239 -0.0453
  581DEC      C 1741   4.786   5.134   5.123 -0.0181  0.0874 -0.0243
  581DEC      C 1742   4.719   5.560   5.131 -0.2461  0.1810  0.1091
  581DEC      C 1743   4.339   5.674   5.104 -0.0533 -0.0119  0.0144
  582DEC      C 1744   0.994   3.085   0.499  0.2483 -0.1515  0.2027
  582DEC      C 1745   1.227   3.404   0.342  0.0302  0.3773  0.2779
  582DEC      C 1746   1.505   3.451   0.594 -0.2001 -0.1088  0.2828
  583DEC      C 1747   4.603   2.524   2.363  0.2251  0.2089  0.0660
  583DEC      C 1748   4.482   2.330   2.785  0.1755  0.3257 -0.0875
  583DEC      C 1749   4.374   2.340   3.195  0.0520  0.1885  0.0413
  584DEC      C 1750   2.778   4.910   5.111  0.0269 -0.0600  0.0301
  584DEC      C 1751   2.923   4.513   5.271 -0.2106  0.2041 -0.0777
  584DEC      C 1752   3.115   4.105   5.574 -0.0415 -0.1352  0.2005
  585DEC      C 1753   6.356   4.576   2.291  0.0265 -0.0684  0.0470
  585DEC      C 1754   6.126   4.714   2.629 -0.0313 -0.2178  0.0257
  585DEC      C 1755   5.612   4.806   2.613  0.0268  0.0098 -0.1747
  586DEC      C 1756   8.030   4.367   5.300  0.0916  0.2333 -0.1196
  586DEC      C 1757   7.895   4.336   4.854 -0.0168 -0.1126  0.0013
  586DEC      C 1758   8.067   4.219   4.524 -0.2134  0.3354  0.0086
  587DEC      C 1759   2.456   1.176   2.126 -0.1275 -0.1316  0.2861
  587DEC      C 1760   2.510   0.740   2.110  0.5858  0.0988 -0.0052
  587DEC      C 1761   2.384   0.488   1.909  0.2101 -0.0327 -0.1633
  588DEC      C 1762   4.181   3.315   3.964 -0.3215 -0.0507 -0.0543
  588DEC      C 1763   4.601   3.312   3.867 -0.0193  0.1668  0.3633
  588DEC      C 1764   4.925   3.033   3.829 -0.0627 -0.1346 -0.0209
  589DEC      C 1765   8.164   0.216   2.198 -0.2112  0.1304  0.1086
  589DEC      C 1766   8.533   0.469   2.156  0.0976 -0.0847 -0.3201
  589DEC      C 1767   8.741   0.821   2.022 -0.2028 -0.3613 -0.0395
  590DEC      C 1768   4.875   6.610   5.753  0.2895  0.1638  0.0404
  590DEC      C 1769   4.939   6.898   5.423 -0.1955  0.1541 -0.1220
  590DEC      C 1770   4.997   7.235   5.000 -0.1480  0.0016  0.2728
  591DEC      C 1771   4.921   0.389   5.216  0.0997  0.2167  0.1360
  591DEC      C 1772   5.092   0.087   5.530 -0.1119  0.0004  0.2530
  591DEC      C 1773   5.032  -0.181   5.873  0.1592  0.0802  0.0902
  592DEC      C 1774   5.709   6.259   6.516  0.1585  0.1163 -0.1641
  592DEC      C 1775   5.709   5.945   6.894  0.1968 -0.0574 -0.2087
  592DEC      C 1776   5.340   5.842   7.161  0.0556 -0.0547  0.0141
  593DEC      C 1777   5.165   6.649   0.083 -0.1190 -0.1307 -0.0720
  593DEC      C 1778   5.451   6.941  -0.075 -0.2725 -0.0503 -0.2150
  593DEC      C 1779   5.824   7.243  -0.376  0.1105 -0.0870  0.1195
  594DEC      C 1780   4.891   1.995   4.236  0.2014  0.0166 -0.2594
  594DEC      C 1781   5.306   2.201   4.087 -0.2052  0.1591  0.1899
  594DEC      C 1782   5.670   2.518   3.882  0.5494 -0.4061  0.0878
  595DEC      C 1783   8.109   0.097   3.611  0.2075  0.2417  0.0701
  595DEC      C 1784   8.025  -0.120   3.201 -0.1529  0.0102 -0.1140
  595DEC      C 1785   7.683  -0.090   2.887  0.3938  0.0032  0.2892
  596DEC      C 1786   8.445   0.388   4.774  0.2211  0.0922 -0.2144
  596DEC      C 1787   8.134   0.064   4.673 -0.0014 -0.0145 -0.1284
  596DEC      C 1788   7.788  -0.219   4.907  0.0201 -0.1150  0.2666
  597DEC      C 1789   4.854   0.601   3.641 -0.0319 -0.2938  0.1786
  597DEC      C 1790   4.852   0.745   4.064  0.2123 -0.0835  0.0504
  597DEC      C 1791   5.120   0.772   4.430  0.3537 -0.1754 -0.1754
  598DEC      C 1792   6.097   0.147   4.523 -0.2876  0.0645 -0.0501
  598DEC      C 1793   6.101   0.629   4.606  0.1510 -0.1184 -0.3563
  598DEC      C 1794   5.936   1.099   4.597 -0.0240 -0.1741  0.3435
  599DEC      C 1795   0.194   6.044   3.246  0.0830 -0.0355 -0.0850
  599DEC      C 1796  -0.190   6.228   3.311  0.3868  0.0801  0.1154
  599DEC      C 1797  -0.522   6.162   3.002 -0.1372 -0.0172  0.2213
  600DEC      C 1798   0.449   0.016   4.854  0.1321 -0.1469 -0.0099
  600DEC      C 1799   0.366  -0.299   5.167  0.0687 -0.0576  0.1115
  600DEC      C 1800   0.280  -0.756   5.360 -0.0466 -0.0955 -0.2097
  601DEC      C 1801   1.245   2.800   4.524  0.1960  0.1354 -0.0599
  601DEC      C 1802   1.539   2.629   4.501  0.2649 -0.1962  0.1384
  601DEC      C 1803   1.915   2.293   4.352  0.2145  0.1431 -0.0001
  602DEC      C 1804   3.450   2.576   1.498  0.1269  0.1186 -0.0593
  602DEC      C 1805   3.138   2.851   1.266 -0.1991  0.0411 -0.1323
  602DEC      C 1806   2.951   3.149   1.513 -0.0565 -0.4339  0.1030
  603DEC      C 1807   4.132   0.312   5.658 -0.3112 -0.0554 -0.1866
  603DEC      C 1808   4.530   0.084   5.429  0.0092  0.2662  0.0770
  603DEC      C 1809   4.462  -0.208   5.175  0.1741 -0.1400 -0.1424
  604DEC      C 1810   2.845   0.263   6.013 -0.2688 -0.1317 -0.0549
  604DEC      C 1811   2.645   0.608   5.992  0.0555 -0.2409 -0.2917
  604DEC      C 1812   2.468   0.972   5.881 -0.2114  0.1355 -0.2699
  605DEC      C 1813   2.180   4.386   0.181  0.1848 -0.0422  0.2216
  605DEC      C 1814   2.318   4.031   0.054 -0.3609  0.1000  0.0444
  605DEC      C 1815   2.630   3.674   0.320  0.2094  0.1316  0.1954
  606DEC      C 1816   0.170   5.070   0.803 -0.0163 -0.0408 -0.0364
  606DEC      C 1817   0.224   5.531   0.962 -0.2530  0.0563  0.4866
  606DEC      C 1818   0.150   5.920   0.939  0.0645 -0.0390 -0.2042
  607DEC      C 1819   1.171   3.420   6.257 -0.2747  0.1502  0.1210
  607DEC      C 1820   1.279   3.247   6.674 -0.0221 -0.3326  0.0071
  607DEC      C 1821   1.772   3.085   6.680  0.1148 -0.0144  0.0117
  608DEC      C 1822   6.868   0.830   1.804 -0.1478 -0.0065 -0.3789
  608DEC      C 1823   6.546   0.687   1.607 -0.0592  0.1609  0.1349
  608DEC      C 1824   6.256   0.630   1.312  0.1324  0.2681 -0.3048
  609DEC      C 1825   2.813   1.077   3.305  0.1093  0.1558 -0.0702
  609DEC      C 1826   2.740   1.449   3.507  0.1398 -0.2670 -0.2627
  609DEC      C 1827   2.357   1.808   3.562 -0.1994 -0.1358  0.2642
  610DEC      C 1828   1.723   4.143   2.413 -0.0461 -0.0166 -0.0087
  610DEC      C 1829   1.160   4.051   2.461  0.1395 -0.0367  0.0709
  610DEC      C 1830   0.856   4.343   2.604 -0.2033 -0.1077 -0.2827
  611DEC      C 1831   7.677   6.445   1.083  0.1087  0.1716 -0.0450
  611DEC      C 1832   7.568   6.564   1.472 -0.0161 -0.1728 -0.0249
  611DEC      C 1833   7.254   6.595   1.743 -0.2189 -0.0374  0.0158
  612DEC      C 1834   1.555   4.510   5.745  0.1419 -0.1966 -0.3808
  612DEC      C 1835   1.543   4.391   5.302  0.2735 -0.0924  0.6332
  612DEC      C 1836   1.692   4.262   4.827  0.0845  0.1102  0.0929
  613DEC      C 1837   3.410   3.554   6.372  0.1189 -0.0201  0.0936
  613DEC      C 1838   3.063   3.426   6.356 -0.2999 -0.0361 -0.1413
  613DEC      C 1839   2.643   3.491   6.316 -0.1015  0.1600  0.2858
  614DEC      C 1840   1.195   4.145   1.455  0.1040 -0.1041 -0.0322
  614DEC      C 1841   1.607   4.164   1.777 -0.1094  0.1830  0.4862
  614DEC      C 1842   2.078   4.206   1.727  0.1524  0.4491 -0.0566
  615DEC      C 1843   7.206   6.305   0.784 -0.1810 -0.1646  0.1286
  615DEC      C 1844   7.456   6.011   0.480 -0.1803 -0.1806  0.3141
  615DEC      C 1845   7.383   5.795   0.086 -0.1945  0.3275 -0.3403
  616DEC      C 1846   5.724   2.117   6.907  0.1400 -0.1286 -0.1235
  616DEC      C 1847   5.980   2.363   6.620  0.2592  0.3111 -0.1120
  616DEC      C 1848   6.250   2.691   6.647 -0.1279 -0.1583  0.0228
  617DEC      C 1849   5.305   0.600   5.544 -0.1802  0.2957  0.2238
  617DEC      C 1850   4.894   0.546   5.714 -0.0106  0.0880 -0.1343
  617DEC      C 1851   4.641   0.261   5.865  0.1708 -0.1927  0.0187
  618DEC      C 1852   4.872   1.103   2.743  0.0661  0.0787  0.0261
  618DEC      C 1853   4.999   0.734   2.858  0.0057 -0.0616  0.0862
  618DEC      C 1854   5.363   0.503   2.959 -0.0311  0.0283  0.0387
  619DEC      C 1855   1.222   1.368   4.910  0.1168 -0.1346  0.1909
  619DEC      C 1856   0.956   1.288   5.243 -0.0863 -0.0680  0.2618
  619DEC      C 1857   0.723   0.999   5.346  0.0011  0.2125  0.3420
  620DEC      C 1858   0.920   2.689   6.808  0.1595 -0.2876  0.2069
  620DEC      C 1859   1.289   2.363   6.861  0.0296  0.0614  0.1301
  620DEC      C 1860   1.691   2.155   6.895  0.0663  0.0213 -0.0315
  621DEC      C 1861   2.046   5.975   2.639  0.2214 -0.0057 -0.0075
  621DEC      C 1862   1.866   6.223   2.299  0.0863 -0.0650 -0.2697
  621DEC      C 1863   1.553   6.237   2.051 -0.3295  0.0754 -0.0711
  622DEC      C 1864   6.837   2.621   3.026 -0.2235 -0.0820 -0.0748
  622DEC      C 1865   7.010   2.969   2.796  0.0417 -0.1428 -0.1439
  622DEC      C 1866   7.252   3.156   2.648  0.0123  0.0696 -0.1220
  623DEC      C 1867   4.375   3.815   0.350 -0.1073  0.0428 -0.0437
  623DEC      C 1868   4.209   3.555   0.727  0.3336 -0.0376  0.1013
  623DEC      C 1869   4.062   3.227   0.862  0.1572 -0.3106 -0.3763
  624DEC      C 1870   7.795   3.383   4.456  0.2093  0.0713  0.1494
  624DEC      C 1871   7.786   3.857   4.203  0.1028 -0.0789 -0.5241
  624DEC      C 1872   7.739   4.122   3.918  0.1676  0.2330 -0.2410
  625DEC      C 1873   2.954   1.877   3.460  0.0381  0.1049 -0.1238
  625DEC      C 1874   3.018   1.765   3.869  0.1190 -0.0318  0.0992
  625DEC      C 1875   2.851   1.916   4.154 -0.1852 -0.1854 -0.0684
  626DEC      C 1876   6.869   2.511   4.042  0.0289  0.2029 -0.0637
  626DEC      C 1877   7.051   2.936   3.954  0.1039  0.0934 -0.1570
  626DEC      C 1878   6.876   3.255   3.685 -0.0007 -0.1880 -0.2263
  627DEC      C 1879   3.260   1.779   6.582 -0.0017  0.1923  0.0982
  627DEC      C 1880   2.979   1.788   6.843  0.1514  0.0844  0.0541
  627DEC      C 1881   2.840   2.005   7.169 -0.2102  0.2836 -0.1088
  628DEC      C 1882   2.302   6.168   1.338 -0.2328  0.3839 -0.1675
  628DEC      C 1883   2.056   6.541   1.424  0.2050 -0.1777 -0.0201
  628DEC      C 1884   1.794   6.906   1.534 -0.1415 -0.0610 -0.2790
  629DEC      C 1885   0.572   4.749   0.051  0.2041 -0.0682 -0.2284
  629DEC      C 1886   0.845   4.902  -0.317  0.1962  0.0670 -0.0554
  629DEC      C 1887   1.148   5.290  -0.390 -0.1758 -0.1383 -0.1189
  630DEC      C 1888   1.214   5.543   4.264  0.4631  0.1208  0.0213
  630DEC      C 1889   0.991   5.337   4.524  0.0517 -0.1093  0.1673
  630DEC      C 1890   1.059   4.931   4.808 -0.1409  0.2779  0.1474
  631DEC      C 1891   4.186   3.597   7.182 -0.0198  0.1566 -0.1510
  631DEC      C 1892   4.226   3.157   7.052  0.0098  0.1550  0.0569
  631DEC      C 1893   4.189   2.751   7.286 -0.2026 -0.0076  0.0211
  632DEC      C 1894   3.853   3.488   0.327 -0.0878 -0.0171 -0.0947
  632DEC      C 1895   3.578   3.597  -0.030  0.0283 -0.1371  0.1207
  632DEC      C 1896   3.172   3.666   0.041 -0.0826  0.1290  0.3092
  633DEC      C 1897   6.673   2.831   0.099  0.2205  0.0752  0.1670
  633DEC      C 1898   6.896   2.643   0.455  0.1146  0.0653  0.3296
  633DEC      C 1899   7.122   2.864   0.809 -0.1925 -0.1692  0.0201
  634DEC      C 1900   6.938   0.225   3.084  0.1338  0.0692 -0.2719
  634DEC      C 1901   6.980   0.592   3.140  0.0518  0.1874  0.0567
  634DEC      C 1902   6.943   0.869   3.489  0.0502 -0.1059 -0.0083
  635DEC      C 1903   2.628   2.516   2.005 -0.3418  0.0011 -0.0946
  635DEC      C 1904   2.743   2.914   1.875  0.1727  0.0415 -0.1462
  635DEC      C 1905   2.510   3.280   1.667 -0.0440  0.1522 -0.1185
  636DEC      C 1906   5.861   5.036   3.043 -0.2167  0.0142 -0.0561
  636DEC      C 1907   5.495   5.267   3.083 -0.1183  0.0903 -0.1885
  636DEC      C 1908   5.258   5.218   3.401  0.3116 -0.0400 -0.2270
  637DEC      C 1909   3.805   7.212   0.953  0.3075 -0.1253  0.0654
  637DEC      C 1910   3.859   7.465   1.273 -0.3207 -0.0328 -0.2679
  637DEC      C 1911   3.683   7.473   1.670  0.1576 -0.0727  0.0898
  638DEC      C 1912   1.228   0.070   4.957 -0.0280 -0.4363 -0.0634
  638DEC      C 1913   1.180  -0.288   5.092  0.0476 -0.1648 -0.2484
  638DEC      C 1914   1.232  -0.683   5.211 -0.0348 -0.1034 -0.3830
  639DEC      C 1915   6.264   6.176   4.044  0.2536 -0.1787  0.0340
  639DEC      C 1916   5.881   5.947   4.136 -0.2234 -0.1464  0.2459
  639DEC      C 1917   5.610   5.853   4.543 -0.1663 -0.0788  0.0611
  640DEC      C 1918   5.935   5.291   6.001 -0.0683 -0.1353  0.2871
  640DEC      C 1919   6.006   5.585   6.253 -0.1548  0.1195 -0.0260
  640DEC      C 1920   5.675   5.749   6.389  0.1023  0.4115 -0.1498
  641DEC      C 1921   6.091   1.246   5.799  0.0519  0.2838 -0.1275
  641DEC      C 1922   6.233   1.201   6.163 -0.0216 -0.0707  0.0900
  641DEC      C 1923   6.528   1.150   6.380  0.0714  0.2514  0.2180
  642DEC      C 1924   3.081   5.569   2.636 -0.2065 -0.3710 -0.1054
  642DEC      C 1925   3.433   5.500   2.463  0.0697 -0.1633 -0.4267
  642DEC      C 1926   3.718   5.861   2.232 -0.0177  0.0760  0.2217
  643DEC      C 1927   4.530   4.063   7.195 -0.0310 -0.0074  0.0909
  643DEC      C 1928   4.463   4.398   7.512 -0.0612 -0.0014 -0.0940
  643DEC      C 1929   4.478   4.693   7.942  0.0931  0.1174 -0.0257
  644DEC      C 1930   6.165   5.110   4.491 -0.0301  0.1505  0.0831
  644DEC      C 1931   6.468   4.960   4.302 -0.3690 -0.0463 -0.1662
  644DEC      C 1932   6.894   4.875   4.224  0.0242  0.1665 -0.0279
  645DEC      C 1933   6.078   5.665   3.636  0.2948  0.0471  0.0318
  645DEC      C 1934   6.058   6.166   3.569  0.0892  0.1190  0.2014
  645DEC      C 1935   5.856   6.416   3.324 -0.2122  0.1079  0.1533
  646DEC      C 1936   4.478   6.940   1.759  0.0274 -0.0606  0.1304
  646DEC      C 1937   4.526   6.732   2.083  0.4066 -0.1877 -0.2496
  646DEC      C 1938   4.425   6.801   2.448 -0.1530  0.2993  0.1077
  647DEC      C 1939   1.674   4.624   1.999 -0.1817 -0.1538  0.0394
  647DEC      C 1940   1.188   4.549   1.922  0.0081 -0.2150  0.1155
  647DEC      C 1941   0.891   4.595   1.603  0.1532  0.2044  0.1051
  648DEC      C 1942   8.253   2.391   2.477 -0.1880 -0.1160  0.1763
  648DEC      C 1943   7.860   2.545   2.629 -0.0455 -0.1225 -0.0192
  648DEC      C 1944   7.558   2.802   2.756 -0.0765 -0.2871 -0.0882
  649DEC      C 1945   6.972   5.459   0.447 -0.0466  0.2676  0.2476
  649DEC      C 1946   6.694   5.170   0.159 -0.2104  0.2737  0.1335
  649DEC      C 1947   6.346   4.771  -0.011  0.0248 -0.0928  0.2121
  650DEC      C 1948   6.270   4.242   3.610 -0.0014 -0.2670  0.0486
  650DEC      C 1949   6.000   4.618   3.494  0.0701  0.0126 -0.2140
  650DEC      C 1950   5.730   5.092   3.623  0.1286 -0.1906  0.2493
  651DEC      C 1951   2.835   2.445   6.128  0.1389  0.0101  0.1013
  651DEC      C 1952   2.993   2.746   6.402  0.0066  0.1851 -0.0207
  651DEC      C 1953   3.195   2.980   6.503 -0.0562  0.0902  0.0115
  652DEC      C 1954   3.534   6.202   4.409 -0.0483 -0.2438  0.1179
  652DEC      C 1955   3.903   6.236   4.476 -0.0740 -0.2097  0.0524
  652DEC      C 1956   4.343   6.265   4.517 -0.1524 -0.0673 -0.0069
  653DEC      C 1957   3.146   4.628   5.729  0.0775 -0.1986  0.2664
  653DEC      C 1958   2.715   4.664   5.962 -0.2314  0.2103  0.0943
  653DEC      C 1959   2.516   4.815   6.247  0.1742 -0.2891 -0.1377
  654DEC      C 1960   3.791   6.589   4.117  0.3503 -0.0318 -0.0121
  654DEC      C 1961   3.999   6.747   4.502 -0.1256  0.0218 -0.0074
  654DEC      C 1962   4.220   7.112   4.678 -0.2664  0.2050 -0.0514
  655DEC      C 1963   3.482   5.406   4.832  0.2283  0.1419 -0.3343
  655DEC      C 1964   3.687   5.134   5.137 -0.0936  0.2914 -0.1397
  655DEC      C 1965   3.920   5.169   5.443 -0.0416  0.1230  0.1042
  656DEC      C 1966   0.299   3.517   3.226 -0.1303  0.0145 -0.1837
  656DEC      C 1967   0.498   3.764   2.879 -0.1676  0.0129  0.0657
  656DEC      C 1968   0.400   4.160   2.643  0.0089  0.0495  0.0421
  657DEC      C 1969   5.908   4.314   6.137  0.0102  0.2234 -0.0079
  657DEC      C 1970   6.249   4.027   5.921  0.1433 -0.1019 -0.2044
  657DEC      C 1971   6.615   4.177   5.655 -0.0288  0.2318  0.2409
  658DEC      C 1972   2.692   3.215   3.156  0.1196  0.0667 -0.0893
  658DEC      C 1973   2.250   3.181   3.067 -0.0972  0.0452 -0.0164
  658DEC      C 1974   1.937   3.130   2.679 -0.1385  0.2159  0.1198
  659DEC      C 1975   6.945   0.073   7.117  0.3257  0.3987 -0.3869
  659DEC      C 1976   7.270   0.112   7.388 -0.1394 -0.2621  0.1182
  659DEC      C 1977   7.383  -0.257   7.573  0.0600 -0.1529 -0.1549
  660DEC      C 1978   6.626   6.214   2.231 -0.0839  0.2225  0.0131
  660DEC      C 1979   6.923   6.051   2.475 -0.0669 -0.0310 -0.0450
  660DEC      C 1980   7.138   5.671   2.522  0.0738 -0.0119 -0.0521
  661DEC      C 1981   3.882   6.522   3.549 -0.2971  0.1303 -0.4359
  661DEC      C 1982   4.064   6.177   3.495  0.1849  0.1656 -0.0199
  661DEC      C 1983   4.319   5.806   3.235  0.0765  0.3953  0.1252
  662DEC      C 1984   6.600   4.344   1.786 -0.3400  0.1981 -0.1193
  662DEC      C 1985   6.669   4.013   1.368 -0.0348  0.1749  0.0368
  662DEC      C 1986   6.794   3.946   0.834  0.0032 -0.1967  0.0744
  663DEC      C 1987   5.988   3.563   5.803  0.3901  0.0467 -0.3984
  663DEC      C 1988   6.118   3.343   5.419 -0.0402  0.0906 -0.0299
  663DEC      C 1989   5.928   3.194   5.048  0.1212 -0.0528 -0.0580
  664DEC      C 1990   8.110   4.893   1.306  0.0566 -0.0762 -0.2380
  664DEC      C 1991   8.335   4.698   0.989  0.1554 -0.0794 -0.1268
  664DEC      C 1992   8.469   4.270   0.877  0.3320  0.1180  0.1880
  665DEC      C 1993   7.223   1.243   0.223 -0.0550  0.2743 -0.0617
  665DEC      C 1994   6.844   1.058   0.086 -0.3774 -0.1109 -0.2985
  665DEC      C 1995   6.503   0.898   0.179  0.1223  0.0969 -0.0762
  666DEC      C 1996   4.082   2.031   2.905 -0.0435  0.0762 -0.1284
  666DEC      C 1997   3.761   1.763   3.141  0.1908 -0.0923  0.1622
  666DEC      C 1998   3.411   1.527   3.150  0.4000  0.1883  0.1614
  667DEC      C 1999   4.202   5.208   5.040  0.1468 -0.0008 -0.0616
  667DEC      C 2000   4.415   4.874   4.827  0.4176  0.0447 -0.2497
  667DEC      C 2001   4.786   4.767   4.649  0.1601  0.1842  0.0229
  668DEC      C 2002   1.692   0.732   0.577  0.1455  0.1127  0.2272
  668DEC      C 2003   1.918   0.552   0.293  0.1554  0.0119 -0.0070
  668DEC      C 2004   2.246   0.337   0.178 -0.3600 -0.3220 -0.0465
  669DEC      C 2005   5.318   1.649   1.926  0.0273 -0.0294  0.1849
  669DEC      C 2006   5.441   2.008   2.044 -0.0322  0.3748  0.1336
  669DEC      C 2007   5.706   2.264   2.247 -0.2061  0.4976  0.1498
  670DEC      C 2008   5.753   6.459   4.541 -0.1448  0.0455  0.0773
  670DEC      C 2009   5.510   6.333   4.891 -0.4115  0.0311 -0.0882
  670DEC      C 2010   5.545   5.983   5.278 -0.0232 -0.0716  0.1796
  671DEC      C 2011   2.791   7.206   4.390  0.1432 -0.1464 -0.2837
  671DEC      C 2012   3.143   7.316   4.547  0.1350 -0.0249  0.2398
  671DEC      C 2013   3.330   7.116   4.895  0.0837  0.0885  0.2217
  672DEC      C 2014   0.695   4.004   4.979 -0.1303 -0.0623 -0.2578
  672DEC      C 2015   0.619   4.127   5.320  0.1881  0.1281 -0.0967
  672DEC      C 2016   0.653   3.944   5.680  0.0384 -0.0506  0.2655
  673DEC      C 2017   4.445   3.574   4.300  0.1184 -0.3729 -0.0222
  673DEC      C 2018   4.900   3.485   4.232  0.0656  0.0785 -0.2282
  673DEC      C 2019   5.225   3.129   4.248  0.0492  0.2249  0.0582
  674DEC      C 2020   0.103   5.108   2.665 -0.1893 -0.0662 -0.0163
  674DEC      C 2021  -0.300   4.950   2.852 -0.1580  0.1009  0.1521
  674DEC      C 2022  -0.513   4.552   3.063  0.0583 -0.0578  0.0822
  675DEC      C 2023   7.577   0.258   3.867  0.0345  0.1879  0.0430
  675DEC      C 2024   7.882   0.158   4.086 -0.4066 -0.3129 -0.2405
  675DEC      C 2025   8.351   0.115   4.110 -0.0462 -0.2564 -0.2402
  676DEC      C 2026   4.169   0.594   1.405  0.0385  0.0122  0.1402
  676DEC      C 2027   4.229   0.110   1.593  0.0627 -0.1764  0.2290
  676DEC      C 2028   4.214  -0.259   1.334  0.2003  0.0688 -0.0393
  677DEC      C 2029   6.217   3.703   4.874 -0.2477 -0.1689  0.0661
  677DEC      C 2030   6.169   3.816   5.326 -0.0057 -0.0173  0.1388
  677DEC      C 2031   6.460   3.647   5.678  0.3736  0.1274  0.3969
  678DEC      C 2032   1.585   5.424   3.322 -0.1506  0.0106 -0.0501
  678DEC      C 2033   1.400   5.765   3.037  0.3398 -0.1884  0.1421
  678DEC      C 2034   1.541   6.041   2.647 -0.0302 -0.0455  0.1307
  679DEC      C 2035   2.432   6.857   4.102  0.0179 -0.2970  0.0263
  679DEC      C 2036   2.239   6.957   4.533  0.0656 -0.2487  0.1165
  679DEC      C 2037   2.444   7.167   4.784  0.2055  0.0089 -0.1746
  680DEC      C 2038   6.322   5.368   4.953 -0.1125  0.0252 -0.1064
  680DEC      C 2039   6.462   5.546   5.320 -0.0303 -0.1395  0.0697
  680DEC      C 2040   6.251   5.533   5.725  0.3235 -0.1459 -0.1044
  681DEC      C 2041   4.436   7.201   3.986 -0.1854 -0.0163  0.0831
  681DEC      C 2042   4.254   7.554   3.958 -0.1548 -0.0365 -0.2670
  681DEC      C 2043   4.373   7.912   3.930  0.0971 -0.0518 -0.1355
  682DEC      C 2044   3.915   5.997   2.941 -0.0164 -0.1836  0.0484
  682DEC      C 2045   4.010   6.220   2.455  0.2038  0.0736 -0.2330
  682DEC      C 2046   4.350   6.330   2.298  0.0715 -0.0560  0.0298
  683DEC      C 2047   8.037   6.972   7.017 -0.0543  0.1684  0.0126
  683DEC      C 2048   8.393   6.911   7.321  0.1187  0.0809  0.0509
  683DEC      C 2049   8.838   6.659   7.458  0.1067  0.0382 -0.1543
  684DEC      C 2050   1.817   6.786   5.234 -0.0902  0.1141  0.1305
  684DEC      C 2051   1.825   6.903   4.827  0.0323  0.0565 -0.1319
  684DEC      C 2052   1.747   6.888   4.379  0.1886 -0.2295  0.2172
  685DEC      C 2053   6.531   6.853   0.107  0.2352  0.2160 -0.1175
  685DEC      C 2054   6.451   7.228  -0.096  0.0691  0.1628  0.0689
  685DEC      C 2055   6.256   7.443  -0.450 -0.1743  0.0966 -0.1128
  686DEC      C 2056   1.699   1.835   4.184 -0.1104 -0.0643 -0.0910
  686DEC      C 2057   1.572   2.040   4.569 -0.1959 -0.1200 -0.2544
  686DEC      C 2058   1.226   2.340   4.823 -0.1349 -0.3985 -0.0910
  687DEC      C 2059   2.306   1.393   6.870  0.3682 -0.3452 -0.2144
  687DEC      C 2060   2.488   1.857   6.820  0.0223  0.1872  0.0479
  687DEC      C 2061   2.537   2.249   6.498 -0.1280 -0.2695  0.1953
  688DEC      C 2062   5.306   3.255   0.830  0.3579  0.1995  0.0383
  688DEC      C 2063   5.654   3.237   0.669  0.1409 -0.1705  0.2693
  688DEC      C 2064   6.008   3.041   0.608  0.4394 -0.1720 -0.6445
  689DEC      C 2065   1.800   4.229   1.308  0.0026 -0.1954  0.0677
  689DEC      C 2066   1.869   4.622   1.531 -0.3557  0.0543  0.3433
  689DEC      C 2067   1.805   5.172   1.389  0.1587 -0.1219  0.2745
  690DEC      C 2068   5.733   3.860   1.423  0.2258  0.1752 -0.3014
  690DEC      C 2069   5.934   3.878   1.938 -0.0138  0.0936  0.0372
  690DEC      C 2070   6.244   4.172   2.030  0.0191 -0.1974 -0.0744
  691DEC      C 2071   0.312   0.508   4.881  0.2345  0.1340  0.2235
  691DEC      C 2072   0.473   0.574   4.475  0.0974 -0.1860  0.0919
  691DEC      C 2073   0.777   0.845   4.374 -0.0849  0.1445 -0.0901
  692DEC      C 2074   7.483   0.397   3.006  0.0502 -0.1232  0.2313
  692DEC      C 2075   7.411   0.652   3.423 -0.0767  0.2203 -0.1997
  692DEC      C 2076   7.401   0.745   3.794 -0.1428  0.1655 -0.2620
  693DEC      C 2077   1.966   4.612   0.714 -0.2545 -0.2701  0.2256
  693DEC      C 2078   1.850   4.205   0.703  0.1130  0.1407 -0.1635
  693DEC      C 2079   1.906   3.909   0.892  0.1040 -0.2207  0.1080
  694DEC      C 2080   7.541   3.249   3.040 -0.0476  0.0874 -0.0543
  694DEC      C 2081   7.196   2.871   3.231  0.1265 -0.0841 -0.2026
  694DEC      C 2082   7.095   2.670   3.590  0.1496 -0.2137  0.2242
  695DEC      C 2083   4.220   1.831   5.104 -0.0109  0.1188 -0.0115
  695DEC      C 2084   4.370   1.685   5.478 -0.2372  0.0503 -0.0346
  695DEC      C 2085   4.398   1.659   5.851 -0.0912 -0.1099  0.1437
  696DEC      C 2086   2.565   4.117   2.659 -0.2068  0.1318 -0.0054
  696DEC      C 2087   2.728   4.177   2.312 -0.2900  0.2560  0.0312
  696DEC      C 2088   2.985   3.986   1.942 -0.0590 -0.2414  0.0777
  697DEC      C 2089   5.181   3.475   1.537  0.0862  0.1721  0.0905
  697DEC      C 2090   5.537   3.291   1.291 -0.0585 -0.0855  0.1313
  697DEC      C 2091   5.902   3.318   1.185  0.0054  0.2710  0.3150
  698DEC      C 2092   1.000   4.587   5.260  0.2354 -0.3502  0.0896
  698DEC      C 2093   0.828   4.440   4.883 -0.2081 -0.1038  0.0104
  698DEC      C 2094   0.489   4.353   4.591  0.0154  0.0403  0.1264
  699DEC      C 2095   7.006   0.717   5.318  0.0997 -0.0861 -0.0517
  699DEC      C 2096   6.871   0.938   4.931 -0.1385 -0.0456  0.1079
  699DEC      C 2097   6.502   1.190   4.787  0.3919 -0.0924 -0.0359
  700DEC      C 2098   4.763   6.148   2.055  0.3489 -0.1884  0.2321
  700DEC      C 2099   4.630   5.718   2.148 -0.3971 -0.0038 -0.0468
  700DEC      C 2100   4.946   5.537   1.901 -0.0731 -0.2563  0.0323
  701DEC      C 2101   1.255   0.545   5.225 -0.3879  0.1958  0.0491
  701DEC      C 2102   1.324   0.934   5.335 -0.1716  0.2145  0.1601
  701DEC      C 2103   1.460   1.372   5.355  0.0928  0.1808 -0.1067
  702DEC      C 2104   7.562   4.229   5.580  0.5362 -0.0552  0.5073
  702DEC      C 2105   7.640   3.898   5.638 -0.1898  0.2680  0.0468
  702DEC      C 2106   7.802   3.632   5.868 -0.1450 -0.1706  0.0940
  703DEC      C 2107   2.478   4.182   5.281 -0.4092 -0.2043 -0.1073
  703DEC      C 2108   2.648   4.211   5.700 -0.1971  0.0574  0.1228
  703DEC      C 2109   3.009   4.283   6.043  0.1870 -0.2073 -0.0885
  704DEC      C 2110   5.402   4.072   4.410 -0.0298 -0.0886 -0.0749
  704DEC      C 2111   5.796   4.273   4.432  0.3602  0.3953 -0.1067
  704DEC      C 2112   6.183   4.298   4.691 -0.1078  0.2949 -0.0143
  705DEC      C 2113   3.242   1.836   5.318  0.1436  0.1606  0.1225
  705DEC      C 2114   2.962   1.615   5.653  0.1117  0.1157  0.4471
  705DEC      C 2115   2.565   1.797   5.737 -0.3413 -0.1009 -0.1901
  706DEC      C 2116   3.058   4.021   6.852  0.0779  0.0802  0.3594
  706DEC      C 2117   2.821   4.130   7.286  0.0486 -0.0201  0.0943
  706DEC      C 2118   2.648   4.539   7.451  0.2170  0.1070 -0.2902
  707DEC      C 2119   3.974   5.331   4.610  0.1281 -0.0861 -0.1982
  707DEC      C 2120   3.986   4.986   4.468 -0.0603 -0.0469 -0.1713
  707DEC      C 2121   4.255   4.635   4.421 -0.0193 -0.2109 -0.1832
  708DEC      C 2122   6.982   0.004   4.438 -0.0738 -0.0805  0.3335
  708DEC      C 2123   6.588  -0.061   4.625  0.2668  0.1304 -0.2424
  708DEC      C 2124   6.516   0.325   4.912  0.1596 -0.1022 -0.2939
  709DEC      C 2125   1.696   0.008   6.725 -0.0722 -0.3414 -0.2487
  709DEC      C 2126   1.845  -0.465   6.744  0.1981  0.1158  0.1849
  709DEC      C 2127   1.759  -0.825   6.520 -0.0661 -0.1600 -0.0307
  710DEC      C 2128   3.384   3.781   2.275  0.3364  0.0879  0.1879
  710DEC      C 2129   2.974   3.772   2.397  0.0950 -0.0914 -0.1256
  710DEC      C 2130   2.551   3.659   2.394  0.0580  0.0590 -0.1385
  711DEC      C 2131   0.203   1.078   2.524 -0.3446 -0.1929 -0.0638
  711DEC      C 2132  -0.123   0.827   2.497  0.0210 -0.1566 -0.3927
  711DEC      C 2133  -0.466   0.491   2.620 -0.0015  0.0936  0.0319
  712DEC      C 2134   6.642   3.936   4.574 -0.2866 -0.2674 -0.2460
  712DEC      C 2135   7.081   3.745   4.632  0.1808 -0.2248 -0.0834
  712DEC      C 2136   7.062   3.267   4.526  0.1539 -0.1407  0.2765
  713DEC      C 2137   6.739   2.695   6.889 -0.1750 -0.0153 -0.1249
  713DEC      C 2138   6.939   2.263   7.066 -0.0082 -0.2435 -0.1117
  713DEC      C 2139   7.347   1.951   7.175 -0.1296 -0.1637 -0.0286
  714DEC      C 2140   0.960   4.819   2.264  0.2017  0.1103  0.1344
  714DEC      C 2141   0.709   4.402   2.080  0.2191 -0.1330 -0.1837
  714DEC      C 2142   0.537   4.168   1.683 -0.0442 -0.1442  0.2889
  715DEC      C 2143   2.333   2.316   1.667  0.0878 -0.1283  0.5637
  715DEC      C 2144   2.211   1.870   1.812  0.2763 -0.0889 -0.0895
  715DEC      C 2145   2.177   1.533   1.670 -0.3801 -0.0490  0.0655
  716DEC      C 2146   1.579   5.222   4.008  0.1283 -0.1720  0.2140
  716DEC      C 2147   1.423   5.515   3.778  0.1209 -0.2241 -0.0962
  716DEC      C 2148   1.092   5.534   3.499 -0.1884  0.1969  0.1226
  717DEC      C 2149   8.137   1.260   6.744 -0.2083  0.0092  0.1215
  717DEC      C 2150   7.760   1.199   6.868  0.1132 -0.1568  0.3463
  717DEC      C 2151   7.661   1.023   7.305  0.0801  0.0069  0.1800
  718DEC      C 2152   0.516   7.162   0.631 -0.0318 -0.0250 -0.3427
  718DEC      C 2153   0.586   7.062   0.145 -0.0590 -0.0567  0.0544
  718DEC      C 2154   0.976   6.828  -0.048 -0.2811  0.2835  0.0149
  719DEC      C 2155   3.206   0.456   1.662 -0.0182 -0.0997  0.0532
  719DEC      C 2156   3.645   0.699   1.498  0.0580 -0.1468  0.0644
  719DEC      C 2157   3.731   1.150   1.373  0.0322  0.2006 -0.1309
  720DEC      C 2158   0.031   4.956   3.810 -0.1645  0.1945 -0.2251
  720DEC      C 2159   0.200   4.949   3.386 -0.0867 -0.1690  0.0303
  720DEC      C 2160   0.445   5.049   2.979  0.1806  0.5658  0.1182
  721DEC      C 2161   1.194   3.812   5.707  0.0821  0.2611  0.0344
  721DEC      C 2162   0.812   3.555   5.929 -0.2205  0.1178 -0.1759
  721DEC      C 2163   0.613   3.159   6.079 -0.0105 -0.0499  0.1810
  722DEC      C 2164   2.048   6.067   0.414 -0.2595 -0.2834 -0.1766
  722DEC      C 2165   1.874   5.856   0.743 -0.2180 -0.0275 -0.3771
  722DEC      C 2166   1.625   5.481   0.918 -0.1722 -0.0865 -0.2652
  723DEC      C 2167   7.637   5.087   0.203  0.0835 -0.1522  0.0288
  723DEC      C 2168   7.265   5.254  -0.009  0.2063 -0.2897  0.0147
  723DEC      C 2169   7.157   5.607  -0.308  0.0870 -0.2195 -0.0084
  724DEC      C 2170   3.498   6.119   2.581  0.1229  0.2057  0.0887
  724DEC      C 2171   3.501   5.687   2.894  0.2083 -0.0289  0.2263
  724DEC      C 2172   3.505   5.218   2.864 -0.0358 -0.0075 -0.0280
  725DEC      C 2173   5.298   1.052   5.227  0.0167  0.0815  0.0990
  725DEC      C 2174   5.138   0.661   4.922 -0.0157  0.1765 -0.0637
  725DEC      C 2175   4.976   0.339   4.601  0.0504 -0.3227  0.0427
  726DEC      C 2176   7.477   1.707   2.409 -0.0165  0.0430 -0.1477
  726DEC      C 2177   7.625   1.386   2.093  0.1253 -0.0686  0.1389
  726DEC      C 2178   7.729   0.974   1.831 -0.2877  0.1202  0.1318
  727DEC      C 2179   2.892   7.041   3.946 -0.0618  0.0537 -0.0717
  727DEC      C 2180   2.577   7.204   3.730  0.0199  0.2714 -0.0358
  727DEC      C 2181   2.328   7.636   3.741  0.0116 -0.0798 -0.0074
  728DEC      C 2182   7.091   6.701   5.837  0.3188  0.0677 -0.2427
  728DEC      C 2183   7.282   7.119   5.881 -0.0608 -0.1225  0.4115
  728DEC      C 2184   7.411   7.431   5.702 -0.0988  0.0028 -0.0631
  729DEC      C 2185   2.802   4.839   3.553 -0.0502  0.0490  0.1071
  729DEC      C 2186   3.039   4.447   3.623  0.0533 -0.1771 -0.5290
  729DEC      C 2187   3.109   4.151   3.906  0.1116  0.3433 -0.0848
  730DEC      C 2188   7.401   0.885   0.529  0.1854  0.1329 -0.2048
  730DEC      C 2189   7.296   1.157   0.853 -0.1835 -0.0887  0.0107
  730DEC      C 2190   7.166   1.484   1.204 -0.1931 -0.1129 -0.2106
  731DEC      C 2191   0.300   0.024   1.379 -0.0896 -0.2243  0.1075
  731DEC      C 2192   0.027  -0.174   1.662  0.0083  0.0269  0.1497
  731DEC      C 2193  -0.248  -0.249   2.000 -0.1746 -0.0727  0.1133
  732DEC      C 2194   2.342   3.199   2.385 -0.0729 -0.0921 -0.2152
  732DEC      C 2195   2.177   3.228   2.032 -0.6635 -0.1012  0.3165
  732DEC      C 2196   1.973   3.324   1.568  0.0637 -0.4264 -0.0284
  733DEC      C 2197   7.300   5.015   5.164  0.1153 -0.1809 -0.2023
  733DEC      C 2198   7.389   5.345   4.894 -0.0790 -0.2402 -0.0231
  733DEC      C 2199   7.694   5.700   5.032  0.4412  0.0189  0.2098
  734DEC      C 2200   6.068   2.258   5.924 -0.1261 -0.0897  0.1017
  734DEC      C 2201   6.260   2.507   5.609 -0.2700  0.1644  0.0748
  734DEC      C 2202   6.675   2.687   5.545  0.0332 -0.0202 -0.0919
  735DEC      C 2203   3.718   0.150   2.152  0.0389  0.2044  0.1971
  735DEC      C 2204   3.879   0.380   2.538  0.2244 -0.0572  0.1910
  735DEC      C 2205   4.156   0.577   2.723 -0.1920  0.0548  0.1918
  736DEC      C 2206   8.496   3.008   5.593  0.0902 -0.1843  0.2555
  736DEC      C 2207   8.720   3.227   6.005  0.1526 -0.0908  0.0213
  736DEC      C 2208   8.807   3.315   6.377 -0.1557  0.3913  0.0313
  737DEC      C 2209   4.668   7.230   4.502  0.3299  0.0144  0.2427
  737DEC      C 2210   5.010   7.028   4.502  0.1876 -0.1888 -0.1711
  737DEC      C 2211   5.260   6.706   4.519  0.3158  0.1303 -0.3704
  738DEC      C 2212   4.894   6.725   6.209  0.4499  0.3894  0.2610
  738DEC      C 2213   5.234   6.511   6.098 -0.1938  0.2706 -0.1658
  738DEC      C 2214   5.639   6.288   5.971  0.2178  0.1652  0.0890
  739DEC      C 2215   3.362   6.831   3.148 -0.0743  0.3009  0.0357
  739DEC      C 2216   3.598   7.094   2.909 -0.0189 -0.0064 -0.1839
  739DEC      C 2217   3.773   7.175   2.600 -0.2752  0.2416 -0.0863
  740DEC      C 2218   5.263   5.591   5.561 -0.1541  0.3617  0.1225
  740DEC      C 2219   5.696   5.510   5.439  0.0204 -0.1915 -0.0715
  740DEC      C 2220   5.897   5.642   5.148  0.0181  0.0130  0.2188
  741DEC      C 2221   2.029   5.471   1.747 -0.2657 -0.1559 -0.1300
  741DEC      C 2222   1.915   5.690   1.325  0.1973 -0.1047  0.0097
  741DEC      C 2223   1.819   6.067   1.229 -0.2858 -0.0318 -0.1436
  742DEC      C 2224   7.574   4.946   2.248  0.1110  0.0163  0.0689
  742DEC      C 2225   7.565   4.855   1.808  0.1150 -0.0159  0.1967
  742DEC      C 2226   7.587   5.038   1.433 -0.3331 -0.2281  0.1562
  743DEC      C 2227   0.843   2.669   4.867  0.0761  0.0290 -0.0942
  743DEC      C 2228   0.703   2.333   5.156 -0.2736  0.2112 -0.3122
  743DEC      C 2229   0.406   2.006   5.135  0.0570 -0.0773 -0.3745
  744DEC      C 2230   4.664   3.385   6.929 -0.1854 -0.2370 -0.2070
  744DEC      C 2231   4.666   3.421   7.350  0.0323  0.1122 -0.1598
  744DEC      C 2232   4.284   3.177   7.539  0.2920 -0.1173  0.0453
  745DEC      C 2233   7.501   1.663   3.968 -0.1892 -0.0853  0.1316
  745DEC      C 2234   7.602   1.579   4.466  0.1688 -0.0572 -0.1622
  745DEC      C 2235   7.554   1.725   4.908  0.0799 -0.1816 -0.2124
  746DEC      C 2236   4.473   0.094   0.133  0.0248 -0.0878 -0.3354
  746DEC      C 2237   4.279  -0.097  -0.223  0.1396 -0.2115 -0.3783
  746DEC      C 2238   4.265  -0.477  -0.362 -0.0318  0.0257 -0.2072
  747DEC      C 2239   2.927   6.064   0.633 -0.0042 -0.4304 -0.0596
  747DEC      C 2240   3.328   6.056   0.539  0.0518  0.1300  0.1173
  747DEC      C 2241   3.512   5.828   0.190 -0.1216  0.2247 -0.3231
  748DEC      C 2242   1.446   2.847   5.527  0.0785  0.1466  0.1228
  748DEC      C 2243   1.044   2.722   5.337  0.0565  0.0098 -0.0219
  748DEC      C 2244   0.543   2.811   5.349  0.1052  0.2282  0.2926
  749DEC      C 2245   2.059   7.238   3.890  0.1079 -0.1715  0.0440
  749DEC      C 2246   1.745   7.540   3.765 -0.3380  0.0831  0.3782
  749DEC      C 2247   1.392   7.715   3.605 -0.1480  0.1391  0.1600
  750DEC      C 2248   1.630   2.513   1.631  0.3863  0.0543 -0.3800
  750DEC      C 2249   1.335   2.763   1.803  0.1026  0.1975  0.0277
  750DEC      C 2250   0.914   2.699   1.755 -0.1773  0.2626  0.1030
  751DEC      C 2251   4.103   0.982   3.180  0.0332 -0.3121  0.2669
  751DEC      C 2252   3.917   0.608   3.204  0.0649 -0.0096  0.0969
  751DEC      C 2253   3.535   0.362   3.038 -0.1041 -0.0085 -0.2881
  752DEC      C 2254   7.509   6.436   5.693 -0.0142  0.1261  0.0310
  752DEC      C 2255   7.664   6.720   5.593 -0.0154 -0.3142 -0.1013
  752DEC      C 2256   7.502   6.970   5.366  0.0343  0.0386  0.0411
  753DEC      C 2257   1.916   2.045   1.387  0.0248  0.0075  0.0666
  753DEC      C 2258   1.492   2.062   1.422  0.2076 -0.2784  0.2170
  753DEC      C 2259   1.166   2.296   1.484  0.0101  0.0023 -0.1202
  754DEC      C 2260   7.841   5.707   1.600  0.0339  0.0362  0.0680
  754DEC      C 2261   7.785   5.479   1.232  0.0349  0.0506 -0.1586
  754DEC      C 2262   7.914   5.169   0.971  0.1150 -0.1579 -0.0624
  755DEC      C 2263   4.076   6.985   6.048  0.1982 -0.2182 -0.1091
  755DEC      C 2264   4.322   6.617   5.920  0.1094  0.1187  0.0434
  755DEC      C 2265   4.382   6.247   5.664  0.0349 -0.1312  0.1587
  756DEC      C 2266   0.743   1.865   7.081 -0.0367  0.0348 -0.0222
  756DEC      C 2267   0.936   1.590   7.048 -0.1561 -0.0853  0.2018
  756DEC      C 2268   1.277   1.895   7.155 -0.2720 -0.1618  0.1223
  757DEC      C 2269   1.775   0.876   2.762 -0.0815  0.2119 -0.2698
  757DEC      C 2270   1.931   0.525   3.041 -0.2487  0.0000 -0.1159
  757DEC      C 2271   2.019   0.233   3.330  0.1840  0.0240  0.0712
  758DEC      C 2272   0.188   1.183   7.252 -0.0748 -0.0018 -0.2029
  758DEC      C 2273   0.068   0.903   7.458  0.0062  0.1370 -0.3023
  758DEC      C 2274  -0.046   0.792   7.837 -0.2308 -0.0894 -0.2302
  759DEC      C 2275   5.288   2.332   5.370 -0.1445  0.1756 -0.0447
  759DEC      C 2276   5.012   2.553   5.083 -0.0169  0.2563  0.0507
  759DEC      C 2277   4.833   2.709   4.703 -0.2008  0.0790 -0.1679
  760DEC      C 2278   2.271   5.721   3.006 -0.1959 -0.0959 -0.1826
  760DEC      C 2279   2.534   6.091   3.055  0.3051 -0.1070  0.2640
  760DEC      C 2280   2.873   6.337   3.320  0.2365 -0.2581  0.1310
  761DEC      C 2281   0.853   3.635   5.334  0.0214  0.0974  0.1770
  761DEC      C 2282   0.648   3.480   5.109 -0.1810  0.1640 -0.1246
  761DEC      C 2283   0.590   3.578   4.770  0.2246 -0.0970  0.0950
  762DEC      C 2284   5.465   3.215   0.061 -0.2217  0.2051 -0.0483
  762DEC      C 2285   5.425   3.227  -0.383 -0.1246 -0.2592  0.1127
  762DEC      C 2286   5.104   3.374  -0.653 -0.0662 -0.0262  0.0467
  763DEC      C 2287   0.793   6.813   1.644 -0.0317  0.2582  0.0720
  763DEC      C 2288   0.409   6.663   1.473 -0.0548 -0.2376 -0.4118
  763DEC      C 2289   0.325   6.398   1.135 -0.0950  0.0752  0.1115
  764DEC      C 2290   6.300   6.573   3.724  0.1108  0.1204 -0.3062
  764DEC      C 2291   6.228   6.895   3.379  0.0430  0.1272  0.0403
  764DEC      C 2292   6.251   7.252   3.113  0.0590  0.1556 -0.2485
  765DEC      C 2293   1.419   6.033   0.601 -0.0608  0.3621  0.3018
  765DEC      C 2294   1.589   6.295   0.719 -0.0091  0.0841 -0.0249
  765DEC      C 2295   1.622   6.657   1.118 -0.3031 -0.0477  0.1900
  766DEC      C 2296   2.738   3.207   2.669 -0.0896  0.0689  0.0616
  766DEC      C 2297   2.797   3.222   2.244 -0.0554  0.2589 -0.0901
  766DEC      C 2298   2.876   3.529   1.983 -0.1256 -0.1044  0.0463
  767DEC      C 2299   3.335   6.810   0.919 -0.0674  0.2382 -0.0303
  767DEC      C 2300   3.247   6.369   0.908 -0.2261 -0.2100  0.2204
  767DEC      C 2301   3.214   5.928   1.013  0.0795  0.1236 -0.2840
  768DEC      C 2302   3.906   1.983   3.677  0.0639  0.2285 -0.1707
  768DEC      C 2303   3.660   2.144   3.401 -0.3282  0.1091 -0.0039
  768DEC      C 2304   3.267   2.098   3.135 -0.1360  0.1643  0.0838
  769DEC      C 2305   0.244   2.459   0.665 -0.1101 -0.2369  0.4291
  769DEC      C 2306  -0.138   2.680   0.657  0.0548  0.1039  0.2336
  769DEC      C 2307  -0.010   2.972   0.413  0.2029  0.0214 -0.2546
  770DEC      C 2308   5.269   4.731   4.384  0.0398 -0.0918  0.0609
  770DEC      C 2309   5.099   5.135   4.494 -0.0235 -0.0467  0.0602
  770DEC      C 2310   5.110   5.569   4.728  0.2146  0.1468 -0.0773
  771DEC      C 2311   2.531   5.503   6.751 -0.1757 -0.4422 -0.1420
  771DEC      C 2312   2.199   5.356   6.960 -0.0843  0.2521 -0.1931
  771DEC      C 2313   1.755   5.466   7.052 -0.0338  0.4907 -0.0264
  772DEC      C 2314   2.503   5.149   3.185  0.2194  0.2967  0.1855
  772DEC      C 2315   2.630   5.447   2.848  0.0727 -0.1630 -0.0754
  772DEC      C 2316   2.515   5.778   2.620 -0.2332  0.0214  0.3106
  773DEC      C 2317   8.029   1.518   2.405  0.0918  0.0322 -0.2068
  773DEC      C 2318   8.139   1.202   2.735  0.0267  0.2637  0.0239
  773DEC      C 2319   8.288   0.838   3.051 -0.3622  0.0109  0.0678
  774DEC      C 2320   7.645   2.091   6.764  0.0792  0.1249  0.2091
  774DEC      C 2321   7.952   2.419   6.934  0.1648 -0.0900  0.0762
  774DEC      C 2322   8.166   2.795   6.880 -0.3027 -0.1886 -0.3364
  775DEC      C 2323   0.613   4.379   1.176 -0.2332  0.0140  0.1108
  775DEC      C 2324   0.673   4.839   1.051 -0.0637 -0.2037 -0.1004
  775DEC      C 2325   0.627   5.224   0.956 -0.1274  0.1420  0.2673
  776DEC      C 2326   7.016   5.125   2.462 -0.4678 -0.1236  0.0519
  776DEC      C 2327   7.176   4.875   2.689 -0.2100 -0.0768  0.1506
  776DEC      C 2328   7.397   4.538   2.451  0.1734 -0.1874 -0.3120
  777DEC      C 2329   2.539   0.704   0.402  0.2612 -0.1435  0.0881
  777DEC      C 2330   2.695   1.100   0.505 -0.0772  0.1021 -0.0626
  777DEC      C 2331   2.912   1.516   0.493 -0.0475  0.0743  0.1822
  778DEC      C 2332   7.481   1.509   1.570 -0.3502  0.2299 -0.0704
  778DEC      C 2333   7.311   0.952   1.512 -0.3107 -0.0007 -0.2210
  778DEC      C 2334   7.315   0.590   1.714 -0.2210 -0.0950  0.0654
  779DEC      C 2335   2.344   2.758   0.827  0.1223  0.1946 -0.4156
  779DEC      C 2336   2.263   2.433   1.066 -0.0305  0.0064  0.1213
  779DEC      C 2337   2.395   2.026   1.236 -0.2459 -0.0328  0.0261
  780DEC      C 2338   6.845   0.732   5.779 -0.2213 -0.3132  0.1245
  780DEC      C 2339   6.641   1.107   5.877  0.0293 -0.0324 -0.0954
  780DEC      C 2340   6.598   1.489   5.672  0.2883 -0.1294 -0.1812
  781DEC      C 2341   7.806   3.665   0.229  0.1457  0.1494  0.1384
  781DEC      C 2342   7.512   3.263   0.027 -0.0395  0.2768  0.0886
  781DEC      C 2343   7.548   2.971  -0.301  0.1364 -0.0300 -0.3055
  782DEC      C 2344   4.279   4.937   2.252 -0.0269  0.2695 -0.0141
  782DEC      C 2345   4.664   4.960   2.034 -0.2196 -0.3683 -0.1694
  782DEC      C 2346   5.127   5.019   2.055 -0.2175 -0.1128 -0.0501
  783DEC      C 2347   4.730   2.560   1.820 -0.0878  0.1611  0.1255
  783DEC      C 2348   4.700   2.716   1.415 -0.1174  0.0533  0.0485
  783DEC      C 2349   4.403   2.659   1.104  0.2304  0.3667  0.0295
  784DEC      C 2350   1.202   1.930   0.499 -0.1014 -0.0857  0.2127
  784DEC      C 2351   0.867   1.934   0.259  0.2143 -0.3034  0.0093
  784DEC      C 2352   0.506   2.247   0.210  0.0352  0.2992 -0.0640
  785DEC      C 2353   5.731   2.627   5.829  0.2789  0.1832 -0.2015
  785DEC      C 2354   5.279   2.800   5.690  0.1099  0.0724 -0.0593
  785DEC      C 2355   5.166   3.149   5.505 -0.2009 -0.4823 -0.0790
  786DEC      C 2356   2.541   3.751   3.430  0.1904  0.2371  0.1478
  786DEC      C 2357   2.376   3.344   3.573  0.0077 -0.0152  0.2477
  786DEC      C 2358   2.196   2.905   3.488 -0.1195 -0.1349 -0.2526
  787DEC      C 2359   1.437   0.688   4.714 -0.1621  0.1185  0.0408
  787DEC      C 2360   1.277   1.077   4.524 -0.0040 -0.3254 -0.0285
  787DEC      C 2361   1.065   1.184   4.104  0.3319  0.0861  0.0261
  788DEC      C 2362   1.445   5.037   2.291 -0.0926  0.2119 -0.0024
  788DEC      C 2363   1.814   5.162   2.218  0.0296 -0.1769 -0.2833
  788DEC      C 2364   2.211   5.145   2.103 -0.3733 -0.0140 -0.1855
  789DEC      C 2365   0.010   3.797   6.120  0.3657  0.0400  0.0130
  789DEC      C 2366  -0.565   3.901   6.152  0.0278  0.0057 -0.1006
  789DEC      C 2367  -0.960   4.039   6.131  0.0213  0.0016  0.2415
  790DEC      C 2368   0.262   3.283   5.331  0.3579  0.0900 -0.1319
  790DEC      C 2369   0.555   3.214   5.590  0.0293 -0.1403 -0.2081
  790DEC      C 2370   1.004   3.157   5.689  0.2354  0.3040 -0.1457
  791DEC      C 2371   6.037   0.173   0.049 -0.3370  0.2096 -0.2925
  791DEC      C 2372   6.257  -0.039   0.348  0.4060 -0.0411 -0.0115
  791DEC      C 2373   6.102  -0.437   0.504 -0.3108  0.1848 -0.0652
  792DEC      C 2374   0.449   5.728   6.804 -0.1154 -0.0673  0.2194
  792DEC      C 2375   0.598   6.182   6.849 -0.0798 -0.0607  0.2890
  792DEC      C 2376   0.792   6.559   6.672 -0.2518 -0.0799  0.2173
  793DEC      C 2377   1.991   6.751   3.836 -0.2978 -0.2463  0.0202
  793DEC      C 2378   1.719   6.483   3.682 -0.1225  0.1960  0.2060
  793DEC      C 2379   1.536   6.046   3.599 -0.0934  0.1215  0.2420
  794DEC      C 2380   3.766   1.865   5.464  0.0820 -0.1247 -0.2312
  794DEC      C 2381   3.686   2.097   5.062  0.1209 -0.0974 -0.0554
  794DEC      C 2382   3.332   2.357   4.927 -0.1141 -0.2103 -0.1732
  795DEC      C 2383   6.437   3.071   2.877  0.0079  0.1174  0.1099
  795DEC      C 2384   6.636   3.066   3.300 -0.1491 -0.2830  0.0548
  795DEC      C 2385   6.563   2.876   3.666 -0.2521  0.2859 -0.1994
  796DEC      C 2386   0.843   0.474   5.619  0.1265  0.0076 -0.0295
  796DEC      C 2387   0.788   0.251   5.984 -0.2329 -0.3555  0.1229
  796DEC      C 2388   0.719   0.121   6.384  0.1629 -0.1770 -0.3343
  797DEC      C 2389   0.947   1.326   6.592 -0.3659  0.0846 -0.2900
  797DEC      C 2390   1.249   1.401   6.306 -0.2910 -0.0499 -0.0639
  797DEC      C 2391   1.703   1.594   6.267  0.4024 -0.0953 -0.4044
  798DEC      C 2392   1.998   0.664   3.575  0.2788 -0.1320  0.0570
  798DEC      C 2393   1.952   1.111   3.375 -0.0693  0.2061 -0.1132
  798DEC      C 2394   2.176   1.392   3.316 -0.2920  0.0941  0.1396
  799DEC      C 2395   7.693   6.597   4.561 -0.0989 -0.3743 -0.1296
  799DEC      C 2396   7.597   6.218   4.391  0.3433  0.1060 -0.2262
  799DEC      C 2397   7.435   5.892   4.563 -0.1345  0.2569 -0.1840
  800DEC      C 2398   0.452   5.481   3.192  0.1006  0.1276 -0.2531
  800DEC      C 2399   0.629   5.739   3.602  0.2274 -0.1049  0.1523
  800DEC      C 2400   0.797   5.903   3.987 -0.0457 -0.1190  0.0166
  801DEC      C 2401   2.899   3.941   6.379 -0.1289  0.0122  0.1379
  801DEC      C 2402   3.291   4.281   6.485  0.0884 -0.0758 -0.0421
  801DEC      C 2403   3.301   4.736   6.260  0.1231  0.2059 -0.0476
  802DEC      C 2404   3.133   6.243   6.969  0.2365  0.0535  0.0115
  802DEC      C 2405   3.390   6.228   6.589  0.0956  0.1933 -0.1009
  802DEC      C 2406   3.706   6.081   6.450  0.0638  0.2572  0.0256
  803DEC      C 2407   6.299   2.697   1.530  0.0999 -0.2507 -0.1082
  803DEC      C 2408   6.156   2.643   1.094  0.2192 -0.2938 -0.1932
  803DEC      C 2409   5.901   2.568   0.670 -0.0543  0.1773  0.0967
  804DEC      C 2410   2.161   5.621   5.259 -0.0301  0.2475 -0.0176
  804DEC      C 2411   2.430   5.271   5.443 -0.1163  0.0451 -0.4606
  804DEC      C 2412   2.508   4.756   5.477  0.3635 -0.1400 -0.1276
  805DEC      C 2413   0.464   1.857   1.987 -0.1428  0.0743  0.0868
  805DEC      C 2414   0.291   1.571   1.616 -0.3453 -0.1383  0.3005
  805DEC      C 2415  -0.006   1.248   1.781  0.1097  0.0584 -0.1446
  806DEC      C 2416   2.859   5.214   6.351 -0.0691 -0.1608 -0.2950
  806DEC      C 2417   3.010   5.098   6.016 -0.3492  0.0228  0.3158
  806DEC      C 2418   2.861   5.043   5.587 -0.0106  0.1494  0.1060
  807DEC      C 2419   3.012   6.052   2.764  0.2907  0.0545  0.2162
  807DEC      C 2420   3.001   5.837   3.107  0.1894  0.2114  0.4235
  807DEC      C 2421   3.039   5.749   3.479  0.0794  0.1073 -0.3759
  808DEC      C 2422   6.147   1.147   0.424 -0.0181 -0.0668 -0.0321
  808DEC      C 2423   6.407   0.796   0.648 -0.2408 -0.0698  0.0089
  808DEC      C 2424   6.305   0.380   0.832  0.1430  0.0826 -0.0230
  809DEC      C 2425   6.708   2.022   4.267  0.3772 -0.0893  0.2505
  809DEC      C 2426   6.439   1.726   4.545 -0.0025  0.0294 -0.0411
  809DEC      C 2427   6.050   1.635   4.657 -0.0597 -0.0010  0.0658
  810DEC      C 2428   1.676   5.941   6.863 -0.0271 -0.1259 -0.0448
  810DEC      C 2429   1.817   6.291   6.962  0.2476 -0.1714  0.3732
  810DEC      C 2430   2.197   6.370   7.161 -0.0233 -0.2645  0.1541
  811DEC      C 2431   1.300   4.008   0.918  0.1137  0.1073  0.6298
  811DEC      C 2432   1.206   3.880   0.493  0.1003 -0.2080  0.2203
  811DEC      C 2433   0.955   3.749   0.127  0.1137  0.1128  0.1300
  812DEC      C 2434   3.086   1.112   4.768 -0.4211 -0.0491  0.0060
  812DEC      C 2435   2.657   1.178   4.900  0.1941 -0.0800  0.1103
  812DEC      C 2436   2.349   1.423   4.826  0.0722 -0.1920  0.1068
  813DEC      C 2437   2.017   4.323   3.932 -0.2403 -0.1581  0.0264
  813DEC      C 2438   1.841   4.135   4.333 -0.1520  0.1482 -0.1626
  813DEC      C 2439   1.826   3.705   4.578 -0.0064  0.1004 -0.3174
  814DEC      C 2440   2.410   6.707   3.108 -0.1810  0.0720 -0.2301
  814DEC      C 2441   2.528   6.679   3.557  0.2698  0.1597  0.1147
  814DEC      C 2442   2.806   6.564   3.794 -0.0579 -0.0416 -0.3155
  815DEC      C 2443   6.898   5.104   4.691 -0.1881  0.0659 -0.0561
  815DEC      C 2444   6.646   5.387   4.520 -0.0266 -0.3618  0.2697
  815DEC      C 2445   6.577   5.804   4.370  0.2862 -0.0057 -0.1159
  816DEC      C 2446   6.954   0.074   4.976  0.0393  0.1187  0.2460
  816DEC      C 2447   6.945   0.397   4.732 -0.0078  0.0052 -0.1164
  816DEC      C 2448   7.349   0.728   4.860 -0.3001  0.0721  0.2052
  817DEC      C 2449   0.926   5.581   3.006  0.2832 -0.2626  0.1118
  817DEC      C 2450   1.145   5.591   2.589 -0.0130 -0.0934 -0.0178
  817DEC      C 2451   1.668   5.486   2.562  0.1992 -0.4093 -0.0107
  818DEC      C 2452   0.089   2.864   5.152 -0.0189  0.3658 -0.0207
  818DEC      C 2453  -0.377   3.062   5.113 -0.2094 -0.0344  0.0805
  818DEC      C 2454  -0.678   3.314   4.976 -0.0404 -0.0997  0.1176
  819DEC      C 2455   5.803   4.388   2.243  0.0470  0.1286 -0.0278
  819DEC      C 2456   5.994   4.227   2.584  0.1432 -0.0870  0.3493
  819DEC      C 2457   6.090   3.804   2.591  0.1510 -0.0359 -0.3964
  820DEC      C 2458   5.629   3.969   5.784 -0.0928 -0.0303  0.1013
  820DEC      C 2459   5.587   4.155   5.380 -0.1971  0.4385  0.2088
  820DEC      C 2460   5.875   4.136   5.064  0.1107 -0.0607 -0.3666
  821DEC      C 2461   7.634   2.749   1.007  0.2660 -0.1878 -0.2736
  821DEC      C 2462   7.674   2.994   0.629  0.0327  0.2590 -0.0997
  821DEC      C 2463   7.556   3.377   0.542 -0.4747 -0.1763 -0.0286
  822DEC      C 2464   2.827   3.715   3.841 -0.1233 -0.0056 -0.1783
  822DEC      C 2465   3.211   3.723   3.470 -0.1508  0.1809 -0.0447
  822DEC      C 2466   3.581   3.726   3.255 -0.0880 -0.2112  0.0133
  823DEC      C 2467   0.499   3.037   4.895  0.5310  0.0553 -0.3378
  823DEC      C 2468   0.193   3.095   4.725 -0.2149 -0.1061 -0.0723
  823DEC      C 2469  -0.023   2.686   4.514  0.2943 -0.0996  0.0920
  824DEC      C 2470   6.620   5.159   5.700  0.0160  0.2505  0.3236
  824DEC      C 2471   6.662   4.638   5.539  0.2790  0.0870  0.0852
  824DEC      C 2472   7.026   4.392   5.461  0.2569 -0.0037  0.0155
  825DEC      C 2473   1.072   1.456   2.476  0.2425  0.0272 -0.0794
  825DEC      C 2474   0.654   1.662   2.434 -0.2908  0.1336  0.2274
  825DEC      C 2475   0.267   1.425   2.233  0.0987  0.2816  0.2293
  826DEC      C 2476   4.891   1.582   3.654 -0.1633 -0.1258  0.1018
  826DEC      C 2477   5.141   1.667   3.318  0.4697 -0.1144 -0.1499
  826DEC      C 2478   5.390   1.945   3.067 -0.1954 -0.0866  0.0290
  827DEC      C 2479   8.123   5.560   6.517 -0.2498 -0.1705 -0.2535
  827DEC      C 2480   8.646   5.513   6.572 -0.0625 -0.2785 -0.0242
  827DEC      C 2481   8.992   5.606   6.310  0.0132 -0.0418 -0.0658
  828DEC      C 2482   4.361   5.375   2.573 -0.0804  0.2882 -0.1127
  828DEC      C 2483   4.392   4.901   2.729 -0.0672  0.1871 -0.0415
  828DEC      C 2484   4.554   4.601   2.972  0.1782  0.2152 -0.2232
  829DEC      C 2485   6.658   6.510   4.047 -0.1265  0.0918  0.0610
  829DEC      C 2486   7.049   6.828   4.153  0.2515  0.0591 -0.0080
  829DEC      C 2487   7.238   7.197   3.951  0.0047  0.2753 -0.0840
  830DEC      C 2488   1.370   2.686   1.219 -0.1119 -0.1748 -0.0120
  830DEC      C 2489   0.941   2.778   1.151 -0.1303  0.1270  0.0458
  830DEC      C 2490   0.786   3.132   0.945 -0.0396 -0.0641  0.1238
  831DEC      C 2491   0.174   4.471   2.027 -0.3941 -0.0829  0.1774
  831DEC      C 2492  -0.137   4.323   1.893 -0.0555  0.2091  0.1921
  831DEC      C 2493  -0.491   4.138   1.784 -0.3218  0.0593  0.0043
  832DEC      C 2494   3.882   0.970   0.065 -0.2253  0.2164 -0.1449
  832DEC      C 2495   3.760   1.315   0.329  0.4545 -0.2891  0.1437
  832DEC      C 2496   3.897   1.642   0.650  0.0424  0.1299 -0.1370
  833DEC      C 2497   7.766   5.731   4.219  0.1147  0.1849 -0.1865
  833DEC      C 2498   8.163   6.016   4.285 -0.0512 -0.1548 -0.0414
  833DEC      C 2499   8.164   6.464   4.396 -0.1586 -0.1012  0.1625
  834DEC      C 2500   1.027   2.550   2.246 -0.0456  0.0325 -0.1039
  834DEC      C 2501   1.265   2.206   1.981 -0.3151  0.1313  0.0054
  834DEC      C 2502   1.670   1.954   1.928 -0.0515 -0.1014  0.1474
  835DEC      C 2503   1.749   3.879   5.290  0.0474 -0.3560 -0.0488
  835DEC      C 2504   1.640   3.618   5.574 -0.0789 -0.0170 -0.2916
  835DEC      C 2505   1.447   3.232   5.853 -0.3443 -0.3320 -0.0425
  836DEC      C 2506   4.877   3.705   5.500 -0.1039  0.1148 -0.0382
  836DEC      C 2507   5.264   3.849   5.282  0.2604  0.1514  0.1750
  836DEC      C 2508   5.412   3.916   4.875  0.0636  0.1080 -0.1646
  837DEC      C 2509   2.380   1.846   2.791  0.4057 -0.1925 -0.0588
  837DEC      C 2510   2.088   2.070   3.046 -0.0869  0.3496  0.0902
  837DEC      C 2511   1.686   2.207   2.995  0.2066 -0.1730 -0.0046
  838DEC      C 2512   4.446   0.879   6.619 -0.0131  0.2413 -0.0968
  838DEC      C 2513   4.814   0.996   6.552  0.3626  0.1561  0.2626
  838DEC      C 2514   5.011   1.279   6.748  0.1146  0.1304 -0.0007
  839DEC      C 2515   0.964   1.796   2.048 -0.0426 -0.0058 -0.3694
  839DEC      C 2516   0.773   1.399   2.001  0.1318 -0.2783  0.3168
  839DEC      C 2517   0.471   1.143   1.778  0.0672 -0.3576  0.0054
  840DEC      C 2518   2.011   3.887   7.004  0.2299  0.1222 -0.3608
  840DEC      C 2519   2.384   3.627   7.082 -0.0372  0.2030  0.1939
  840DEC      C 2520   2.719   3.393   7.147  0.1251  0.0246  0.1293
  841DEC      C 2521   0.727   6.525   4.080 -0.2714 -0.3202  0.0292
  841DEC      C 2522   0.289   6.645   4.024  0.1257 -0.0266  0.2577
  841DEC      C 2523  -0.074   6.914   3.892 -0.2647 -0.1716 -0.0486
  842DEC      C 2524   1.975   5.982   4.908  0.1988  0.1135 -0.2139
  842DEC      C 2525   1.836   6.035   5.332 -0.1635  0.2489  0.0626
  842DEC      C 2526   1.425   6.007   5.659 -0.1119  0.0030 -0.1501
  843DEC      C 2527   3.893   1.005   1.916  0.2631  0.0609 -0.1454
  843DEC      C 2528   3.468   1.139   1.979 -0.0587  0.1390 -0.1018
  843DEC      C 2529   3.068   1.338   2.065 -0.5692  0.0650  0.4531
  844DEC      C 2530   1.897   1.290   6.578 -0.1114  0.1514  0.0086
  844DEC      C 2531   1.928   1.767   6.762  0.0808  0.1245  0.1288
  844DEC      C 2532   1.977   2.172   6.502 -0.1972 -0.0057 -0.1529
  845DEC      C 2533   3.738   4.274   0.988  0.0713 -0.5640  0.2812
  845DEC      C 2534   3.742   4.653   0.817  0.1628  0.1956  0.0038
  845DEC      C 2535   3.614   5.035   0.729 -0.2775  0.1219  0.0137
  846DEC      C 2536   4.762   6.056   2.515 -0.1548 -0.3556 -0.1425
  846DEC      C 2537   4.721   6.464   2.583 -0.1475 -0.1370 -0.2339
  846DEC      C 2538   4.701   6.763   2.943  0.0421 -0.0231 -0.3089
  847DEC      C 2539   2.489   4.710   4.603  0.2670  0.2637  0.0957
  847DEC      C 2540   2.072   4.613   4.450 -0.1374  0.1976  0.2513
  847DEC      C 2541   1.623   4.790   4.290  0.1786 -0.1434  0.2338
  848DEC      C 2542   1.827   6.851   7.239  0.1001 -0.2154 -0.2373
  848DEC      C 2543   1.423   6.701   7.016 -0.0927 -0.0136 -0.1917
  848DEC      C 2544   1.271   6.515   6.698 -0.1426 -0.1627 -0.2273
  849DEC      C 2545   5.443   5.592   5.039  0.1792  0.0912  0.1234
  849DEC      C 2546   5.610   5.402   4.708  0.2176 -0.0794  0.1956
  849DEC      C 2547   5.655   5.065   4.444  0.3007 -0.1599  0.1037
  850DEC      C 2548   5.144   1.178   0.475 -0.0637  0.1330 -0.1019
  850DEC      C 2549   5.039   0.976   0.858 -0.2486  0.1682 -0.1949
  850DEC      C 2550   5.188   1.032   1.304 -0.1286 -0.3972  0.0477
  851DEC      C 2551   3.568   4.338   5.671  0.1428 -0.4498 -0.0682
  851DEC      C 2552   3.552   3.912   5.657 -0.0174  0.0444  0.0425
  851DEC      C 2553   3.795   3.657   5.900 -0.1932  0.0925  0.2056
  852DEC      C 2554   7.638   2.477   3.458 -0.0297 -0.1276  0.0061
  852DEC      C 2555   7.813   2.030   3.359 -0.0167 -0.3082 -0.0964
  852DEC      C 2556   7.660   1.686   3.508  0.0018  0.2445  0.1472
  853DEC      C 2557   7.956   1.800   4.213  0.3255 -0.0652  0.0783
  853DEC      C 2558   8.397   2.002   4.151 -0.1019  0.4128  0.1669
  853DEC      C 2559   8.744   2.208   4.234  0.1074  0.3415 -0.5092
  854DEC      C 2560   2.096   5.096   4.144 -0.0770 -0.0201 -0.1242
  854DEC      C 2561   2.005   5.133   4.610 -0.3485 -0.0837 -0.0755
  854DEC      C 2562   1.707   4.771   4.888 -0.1340 -0.0907 -0.0706
  855DEC      C 2563   4.423   5.268   6.147  0.1220 -0.3776  0.1401
  855DEC      C 2564   4.280   4.893   6.366  0.1032  0.0125 -0.0807
  855DEC      C 2565   4.141   4.726   6.765  0.0278 -0.3653 -0.0943
  856DEC      C 2566   7.590   6.914   6.758  0.0402  0.1296  0.1362
  856DEC      C 2567   7.602   7.165   7.117  0.1060  0.3012 -0.2130
  856DEC      C 2568   7.833   7.082   7.449 -0.1640 -0.2059 -0.1035
  857DEC      C 2569   1.851   1.757   3.384  0.1619 -0.3201  0.0983
  857DEC      C 2570   1.979   1.586   3.722  0.3536 -0.0818 -0.0995
  857DEC      C 2571   1.869   1.368   4.065 -0.0969  0.0086 -0.1492
  858DEC      C 2572   0.985   2.277   6.087  0.1873  0.1287 -0.0386
  858DEC      C 2573   1.402   2.315   5.910  0.1110 -0.0765 -0.1230
  858DEC      C 2574   1.813   1.968   5.941  0.0590  0.1501 -0.0768
  859DEC      C 2575   3.692   4.845   5.869  0.2730 -0.2378  0.1345
  859DEC      C 2576   3.767   4.745   5.482  0.0137  0.0926 -0.2148
  859DEC      C 2577   3.951   4.691   5.007  0.0880  0.3316 -0.1243
  860DEC      C 2578   4.329   6.675   3.610  0.1005 -0.0101  0.1688
  860DEC      C 2579   4.366   6.494   3.236 -0.0960  0.1162  0.1607
  860DEC      C 2580   4.289   6.440   2.848 -0.0144 -0.1848 -0.1246
  861DEC      C 2581   1.089   4.714   6.245  0.1799  0.2326 -0.1225
  861DEC      C 2582   1.075   5.106   6.454  0.0570 -0.0165  0.0264
  861DEC      C 2583   0.895   5.521   6.472  0.3645 -0.0160 -0.0532
  862DEC      C 2584   4.284   4.897   1.715 -0.0398 -0.1928 -0.2395
  862DEC      C 2585   3.848   4.950   1.910 -0.2624 -0.1264  0.1751
  862DEC      C 2586   3.427   5.005   2.147  0.0032  0.2538 -0.0843
  863DEC      C 2587   7.416   0.253   4.338  0.2664  0.0096 -0.0020
  863DEC      C 2588   7.126   0.379   4.097 -0.0333  0.0377  0.2844
  863DEC      C 2589   7.061   0.380   3.673  0.0129  0.1879  0.2397
  864DEC      C 2590   5.885   6.307   2.103  0.0531 -0.1716  0.0615
  864DEC      C 2591   5.687   6.161   2.459 -0.0298  0.0967 -0.4312
  864DEC      C 2592   5.546   6.046   2.936 -0.2808  0.2068  0.1784
  865DEC      C 2593   8.060   3.988   2.630  0.1503  0.0172  0.0896
  865DEC      C 2594   8.314   3.944   2.962  0.2172  0.1184 -0.0987
  865DEC      C 2595   8.749   3.974   3.113  0.2392 -0.1332 -0.0879
  866DEC      C 2596   5.712   2.374   2.930  0.2831 -0.0463 -0.1427
  866DEC      C 2597   6.145   2.340   3.060  0.1389  0.1234  0.1136
  866DEC      C 2598   6.407   2.553   3.209 -0.0468  0.1245 -0.2097
  867DEC      C 2599   0.636   0.904   6.904  0.2007  0.2508  0.0098
  867DEC      C 2600   1.079   0.932   6.865 -0.0228 -0.1312  0.1441
  867DEC      C 2601   1.490   1.025   6.679  0.2207  0.2882  0.0480
  868DEC      C 2602   2.790   0.346   3.022 -0.3138  0.1344  0.1123
  868DEC      C 2603   2.284   0.308   2.788  0.1546 -0.1320 -0.1287
  868DEC      C 2604   1.868   0.159   2.600 -0.3336  0.0007  0.4677
  869DEC      C 2605   1.033   3.233   1.807 -0.1340  0.1349  0.1129
  869DEC      C 2606   1.156   3.534   2.150  0.1053  0.0904  0.3751
  869DEC      C 2607   1.441   3.831   2.139  0.2017  0.3461  0.1900
  870DEC      C 2608   6.817   5.309   6.471  0.1210 -0.1721 -0.2299
  870DEC      C 2609   6.667   5.316   6.950 -0.2980 -0.0694  0.0168
  870DEC      C 2610   6.279   5.255   7.155 -0.3719  0.0886  0.0769
  871DEC      C 2611   8.405   2.958   2.187 -0.0671  0.3563  0.4536
  871DEC      C 2612   8.634   3.275   2.051 -0.0789  0.0285 -0.1236
  871DEC      C 2613   9.020   3.482   2.103  0.2793 -0.0041 -0.0121
  872DEC      C 2614   5.834   2.087   4.013 -0.0111  0.1425  0.1359
  872DEC      C 2615   6.172   2.004   4.267 -0.4063 -0.1569  0.0659
  872DEC      C 2616   6.113   2.127   4.743  0.2683 -0.1495  0.1381
  873DEC      C 2617   4.186   3.841   4.915  0.1946 -0.1894  0.0013
  873DEC      C 2618   4.378   3.479   5.171  0.2004  0.1574  0.0592
  873DEC      C 2619   4.628   3.293   5.589  0.0470  0.3358  0.1830
  874DEC      C 2620   8.105   1.405   3.917  0.2782 -0.1141 -0.1235
  874DEC      C 2621   7.754   1.161   3.829  0.2658  0.1447 -0.3063
  874DEC      C 2622   7.377   1.149   3.524  0.1129 -0.1022 -0.1516
  875DEC      C 2623   0.471   1.454   5.318  0.0389 -0.1200 -0.0860
  875DEC      C 2624   0.669   1.706   5.474 -0.1968  0.0260 -0.0319
  875DEC      C 2625   0.399   2.117   5.698 -0.2280  0.0972 -0.4320
  876DEC      C 2626   7.583   4.858   4.592 -0.0906  0.2478  0.1568
  876DEC      C 2627   7.206   4.735   4.666  0.1929  0.2193  0.2709
  876DEC      C 2628   6.924   4.696   5.004 -0.0899  0.2792  0.0898
  877DEC      C 2629   3.096   1.657   1.633  0.0452  0.1109  0.0690
  877DEC      C 2630   3.226   2.024   1.492  0.2297 -0.2639 -0.1010
  877DEC      C 2631   3.637   2.107   1.416 -0.1519  0.0283  0.3088
  878DEC      C 2632   6.901   5.502   5.546  0.2767 -0.0100 -0.2392
  878DEC      C 2633   7.217   5.182   5.675  0.2043 -0.1033 -0.2189
  878DEC      C 2634   7.386   4.717   5.567 -0.0335  0.2832  0.0856
  879DEC      C 2635   4.225   2.954   6.563 -0.0615 -0.1816 -0.0772
  879DEC      C 2636   3.976   2.735   6.863 -0.0218 -0.3831  0.5421
  879DEC      C 2637   3.732   2.445   7.102  0.2923  0.0582 -0.0921
  880DEC      C 2638   6.676   1.069   5.371 -0.0199 -0.0146  0.1524
  880DEC      C 2639   6.307   1.314   5.278  0.0316  0.3093  0.0943
  880DEC      C 2640   5.956   1.554   5.420 -0.0850 -0.1845  0.1030
  881DEC      C 2641   2.199   0.960   5.058 -0.0991 -0.0197  0.1458
  881DEC      C 2642   2.027   1.280   5.298  0.0836 -0.2836  0.0893
  881DEC      C 2643   1.914   1.639   5.577 -0.1737  0.2816  0.1242
  882DEC      C 2644   1.004   3.239   7.101 -0.3644 -0.0792 -0.3016
  882DEC      C 2645   1.009   3.632   6.931 -0.1271  0.2866 -0.3402
  882DEC      C 2646   0.576   3.876   6.879  0.1536  0.0354 -0.0512
  883DEC      C 2647   1.862   3.598   6.657  0.0890 -0.0109 -0.0766
  883DEC      C 2648   1.566   3.604   6.987 -0.0102  0.5090 -0.0949
  883DEC      C 2649   1.399   3.890   7.206  0.5125  0.0924 -0.2325
  884DEC      C 2650   2.784   2.589   0.918 -0.0628  0.1787  0.2921
  884DEC      C 2651   2.743   2.236   0.760 -0.0873  0.1101  0.2044
  884DEC      C 2652   2.983   2.004   0.466  0.0513  0.0028  0.1057
  885DEC      C 2653   6.601   2.526   1.985  0.0731 -0.0312  0.0728
  885DEC      C 2654   6.840   2.645   2.373  0.1331  0.0687  0.0761
  885DEC      C 2655   7.300   2.823   2.259  0.3142 -0.0151  0.3765
  886DEC      C 2656   2.545   3.764   5.475  0.1989  0.2655  0.2315
  886DEC      C 2657   2.969   3.673   5.461 -0.0907 -0.1075 -0.0451
  886DEC      C 2658   3.236   3.582   5.795 -0.0230 -0.2324 -0.1733
  887DEC      C 2659   4.204   4.369   5.379 -0.0338  0.1789 -0.0134
  887DEC      C 2660   4.132   4.010   5.451 -0.0094 -0.1196  0.1482
  887DEC      C 2661   3.958   3.581   5.377  0.1485 -0.0001 -0.1801
  888DEC      C 2662   8.635   2.938   1.046  0.1165 -0.0366 -0.1081
  888DEC      C 2663   9.073   2.782   1.079  0.0455 -0.2205 -0.0738
  888DEC      C 2664   9.329   2.337   1.108  0.0038  0.1033  0.1408
  889DEC      C 2665   8.063   5.764   6.033  0.1057  0.1967 -0.1822
  889DEC      C 2666   7.915   6.159   5.749  0.0827 -0.0134 -0.3177
  889DEC      C 2667   8.108   6.515   5.785 -0.2419 -0.0604  0.0405
  890DEC      C 2668   7.167   6.086   3.108  0.3017 -0.1592 -0.0180
  890DEC      C 2669   6.867   5.772   2.974  0.0385 -0.0237 -0.1290
  890DEC      C 2670   6.895   5.287   2.888 -0.0661 -0.1114  0.1920
  891DEC      C 2671   0.063   0.029   0.854 -0.0421  0.1154 -0.3289
  891DEC      C 2672  -0.261   0.282   0.643  0.0447  0.0404  0.1542
  891DEC      C 2673  -0.724   0.154   0.552 -0.0353 -0.0196  0.0211
  892DEC      C 2674   0.695   3.145   1.432  0.0903  0.0572 -0.0528
  892DEC      C 2675   0.578   3.017   1.832 -0.0123  0.1909  0.4177
  892DEC      C 2676   0.693   2.937   2.289 -0.3439  0.1108 -0.0142
  893DEC      C 2677   1.166   6.261   2.940  0.0043  0.1167  0.0614
  893DEC      C 2678   0.809   6.017   2.724 -0.3707 -0.0913 -0.3272
  893DEC      C 2679   0.447   6.018   2.635 -0.1796  0.1534 -0.1035
  894DEC      C 2680   6.694   2.034   5.979 -0.0766  0.1435 -0.1450
  894DEC      C 2681   6.896   2.025   6.391 -0.0292  0.3527  0.3206
  894DEC      C 2682   7.078   1.879   6.722 -0.0268  0.1368  0.0587
  895DEC      C 2683   6.747   6.965   3.237 -0.1794 -0.0222  0.2098
  895DEC      C 2684   6.686   6.953   2.799  0.4851  0.2184 -0.1394
  895DEC      C 2685   6.769   7.240   2.429  0.0889 -0.1054 -0.0914
  896DEC      C 2686   7.289   6.306   7.192  0.5862 -0.1326 -0.0906
  896DEC      C 2687   6.994   6.091   6.861  0.4946 -0.1312  0.1158
  896DEC      C 2688   6.674   5.868   6.702 -0.3178  0.0630  0.2174
  897DEC      C 2689   5.642   5.221   6.428 -0.0288 -0.3204 -0.1747
  897DEC      C 2690   5.366   5.521   6.730 -0.0335 -0.1562 -0.1986
  897DEC      C 2691   5.176   5.396   7.091 -0.0477 -0.0895  0.1167
  898DEC      C 2692   8.093   0.783   2.233 -0.0094 -0.3221  0.3798
  898DEC      C 2693   7.714   0.859   2.325  0.3552 -0.0093  0.0461
  898DEC      C 2694   7.326   0.704   2.258 -0.1584 -0.1024 -0.2693
  899DEC      C 2695   7.525   3.611   6.967  0.0660 -0.0589 -0.2138
  899DEC      C 2696   7.451   3.323   6.618 -0.0370 -0.1529 -0.0263
  899DEC      C 2697   7.385   3.242   6.130 -0.2216  0.0977 -0.1280
  900DEC      C 2698   2.957   2.065   4.685  0.0234  0.1795 -0.0808
  900DEC      C 2699   2.990   2.493   4.463  0.0077  0.1571  0.1434
  900DEC      C 2700   2.832   2.934   4.279 -0.1358 -0.1173  0.0786
  901DEC      C 2701   2.747   7.179   7.117 -0.0953 -0.0324  0.2145
  901DEC      C 2702   2.671   7.309   6.687  0.0296  0.0552  0.1377
  901DEC      C 2703   2.554   7.264   6.327 -0.2232 -0.1016 -0.2576
  902DEC      C 2704   8.287   4.228   5.896 -0.0567 -0.0322  0.1113
  902DEC      C 2705   8.298   3.802   5.667 -0.0302 -0.1420 -0.0085
  902DEC      C 2706   8.385   3.486   5.374  0.1605  0.0412  0.0717
  903DEC      C 2707   3.028   5.240   1.243 -0.0890 -0.0083  0.2223
  903DEC      C 2708   3.176   5.154   0.889 -0.2464 -0.0621  0.1934
  903DEC      C 2709   3.157   4.772   0.701 -0.1086  0.0012 -0.0763
  904DEC      C 2710   7.533   4.850   3.599  0.2169 -0.1104  0.3508
  904DEC      C 2711   7.816   5.130   3.772  0.3094 -0.0972 -0.1083
  904DEC      C 2712   8.202   5.069   3.911 -0.2096  0.0363 -0.0300
  905DEC      C 2713   6.846   1.523   6.968  0.5315  0.2142 -0.0785
  905DEC      C 2714   6.842   1.450   6.549 -0.2837  0.0231 -0.0353
  905DEC      C 2715   6.826   1.494   6.151  0.1177  0.0528  0.1803
  906DEC      C 2716   5.431   2.993   3.771  0.0559 -0.2080 -0.2886
  906DEC      C 2717   5.201   2.667   3.870 -0.0422  0.0206 -0.0381
  906DEC      C 2718   5.103   2.663   4.238 -0.3995  0.2345 -0.2139
  907DEC      C 2719   1.542   5.620   0.407 -0.3832  0.0048 -0.0117
  907DEC      C 2720   1.667   5.883   0.075 -0.0656  0.1539 -0.1141
  907DEC      C 2721   2.076   5.893  -0.047  0.0771  0.1437  0.3589
  908DEC      C 2722   1.560   3.783   1.256 -0.3616 -0.0599 -0.1987
  908DEC      C 2723   1.749   3.746   1.603  0.2139 -0.1444 -0.1064
  908DEC      C 2724   1.990   3.764   1.998  0.3489  0.0175 -0.0843
  909DEC      C 2725   1.931   1.999   0.728 -0.1160  0.1053  0.0200
  909DEC      C 2726   1.635   2.199   0.485  0.0129 -0.1210  0.0373
  909DEC      C 2727   1.732   2.370   0.091  0.0182 -0.1256 -0.1476
  910DEC      C 2728   1.705   6.921   0.675  0.0773 -0.1869 -0.1267
  910DEC      C 2729   1.460   6.778   0.412 -0.0200 -0.2487  0.0015
  910DEC      C 2730   1.223   6.519   0.268 -0.1255  0.2069  0.0050
  911DEC      C 2731   5.253   5.014   1.107 -0.0555 -0.1743 -0.2465
  911DEC      C 2732   4.879   5.156   1.017 -0.0766 -0.0548  0.1583
  911DEC      C 2733   4.614   5.228   0.688 -0.1181  0.1145 -0.0241
  912DEC      C 2734   4.042   6.137   5.018  0.0102  0.2092  0.2555
  912DEC      C 2735   4.100   5.822   4.651 -0.0367 -0.3185  0.0991
  912DEC      C 2736   4.305   5.652   4.267  0.2494  0.2624  0.2160
  913DEC      C 2737   3.916   3.505   6.814  0.3888  0.0085 -0.0033
  913DEC      C 2738   3.629   3.168   6.776  0.2435  0.1124 -0.1221
  913DEC      C 2739   3.459   2.820   6.942 -0.1396 -0.1039  0.0121
  914DEC      C 2740   2.924   1.070   1.096  0.1315  0.0894  0.0985
  914DEC      C 2741   3.164   0.797   1.233 -0.0211  0.1589  0.0035
  914DEC      C 2742   3.382   0.351   1.138  0.3933  0.2886  0.3142
  915DEC      C 2743   7.135   5.541   4.486  0.0489 -0.1508  0.3130
  915DEC      C 2744   6.908   5.862   4.724 -0.0302  0.1282 -0.3111
  915DEC      C 2745   6.421   5.881   4.914  0.1026 -0.2931  0.1805
  916DEC      C 2746   7.964   1.167   6.046 -0.4271 -0.4017  0.1665
  916DEC      C 2747   7.813   1.412   6.384  0.3654  0.4404  0.0588
  916DEC      C 2748   7.756   1.787   6.359  0.4046 -0.0231 -0.1684
  917DEC      C 2749   1.479   3.180   1.581 -0.0276  0.2928  0.5146
  917DEC      C 2750   1.613   3.361   1.941 -0.0328  0.1149 -0.1290
  917DEC      C 2751   1.775   3.502   2.371  0.2651 -0.3106 -0.0053
  918DEC      C 2752   8.139   4.942   0.162  0.0643  0.0548  0.3903
  918DEC      C 2753   8.331   4.878   0.486 -0.3211 -0.0495  0.0023
  918DEC      C 2754   8.715   4.594   0.551  0.0113  0.2114  0.0884
  919DEC      C 2755   1.913   2.710   1.320  0.1127 -0.0472  0.2953
  919DEC      C 2756   1.789   2.869   0.889 -0.1011 -0.0990  0.3303
  919DEC      C 2757   2.117   3.161   0.588  0.3710 -0.2218 -0.2329
  920DEC      C 2758   4.710   2.237   4.827  0.0805 -0.2927  0.1032
  920DEC      C 2759   4.571   2.335   5.287 -0.0424 -0.3480 -0.0878
  920DEC      C 2760   4.358   2.136   5.686  0.1720 -0.2866  0.1153
  921DEC      C 2761   1.985   3.335   7.123  0.3601 -0.3798  0.0518
  921DEC      C 2762   2.322   3.324   7.446 -0.1356 -0.3332  0.3642
  921DEC      C 2763   2.672   3.165   7.630 -0.1074 -0.0448  0.0440
  922DEC      C 2764   2.804   6.716   4.346 -0.3047  0.1744  0.2293
  922DEC      C 2765   2.531   6.533   4.587  0.4003  0.2247  0.1000
  922DEC      C 2766   2.454   6.213   4.888  0.2073 -0.2131  0.1631
  923DEC      C 2767   7.500   0.383   7.025 -0.0465 -0.1460 -0.1960
  923DEC      C 2768   7.706   0.379   7.430 -0.0905  0.2079  0.0531
  923DEC      C 2769   8.095   0.561   7.519  0.2514 -0.1682  0.0082
  924DEC      C 2770   2.692   0.866   2.906  0.1670  0.1292  0.1437
  924DEC      C 2771   2.337   0.890   2.564 -0.1927  0.0634 -0.1572
  924DEC      C 2772   2.076   0.608   2.366 -0.2779 -0.0038  0.1423
  925DEC      C 2773   1.801   4.784   6.188 -0.1760 -0.2137 -0.0728
  925DEC      C 2774   1.594   4.581   6.501 -0.1411  0.3090  0.1108
  925DEC      C 2775   1.589   4.207   6.675  0.0244 -0.0849 -0.1368
  926DEC      C 2776   4.988   4.699   1.672  0.0301  0.2718 -0.2578
  926DEC      C 2777   4.970   4.527   1.996 -0.0308  0.1138 -0.0235
  926DEC      C 2778   5.331   4.587   2.298 -0.4936  0.2767  0.1911
  927DEC      C 2779   3.440   2.182   1.913 -0.0627  0.0170 -0.0700
  927DEC      C 2780   3.068   1.952   2.067 -0.0847 -0.2815  0.4149
  927DEC      C 2781   2.807   1.779   2.352 -0.0207 -0.1255 -0.0845
  928DEC      C 2782   7.342   5.270   2.005 -0.1015  0.1854 -0.0520
  928DEC      C 2783   7.877   5.272   1.892  0.3897 -0.1473 -0.2907
  928DEC      C 2784   8.325   5.121   1.690  0.3178 -0.3792 -0.1130
  929DEC      C 2785   7.496   5.879   5.838 -0.1756 -0.1471  0.1108
  929DEC      C 2786   7.415   5.612   5.449 -0.1099  0.0107  0.2192
  929DEC      C 2787   7.100   5.708   5.156  0.1066 -0.1378 -0.0654
  930DEC      C 2788   2.277   2.445   6.097 -0.1678 -0.0624 -0.1036
  930DEC      C 2789   2.265   1.968   6.131 -0.0796 -0.1975 -0.3117
  930DEC      C 2790   2.208   1.608   6.307 -0.0989 -0.0543  0.0053
  931DEC      C 2791   8.326   2.302   4.627 -0.0476 -0.1139 -0.0555
  931DEC      C 2792   8.292   2.283   5.033 -0.0431  0.0620  0.1150
  931DEC      C 2793   7.990   2.205   5.375 -0.0344  0.0910 -0.1796
  932DEC      C 2794   6.448   7.057   4.191 -0.0630  0.1598  0.1910
  932DEC      C 2795   6.013   7.103   3.989 -0.1004  0.1787 -0.0818
  932DEC      C 2796   5.803   6.869   3.808 -0.1074  0.3009  0.0899
  933DEC      C 2797   5.455   1.424   5.532 -0.4946  0.0751 -0.0753
  933DEC      C 2798   5.287   1.838   5.529  0.2562 -0.3801 -0.1523
  933DEC      C 2799   4.796   1.929   5.571 -0.5919  0.0542  0.0325
  934DEC      C 2800   8.353   3.111   6.404  0.1062  0.1180 -0.2216
  934DEC      C 2801   8.353   2.848   6.061  0.2133  0.1167 -0.1536
  934DEC      C 2802   8.128   2.451   5.908 -0.0898 -0.1974  0.2346
  935DEC      C 2803   6.750   3.441   7.248 -0.1991  0.2025  0.0940
  935DEC      C 2804   7.000   3.687   6.898  0.0764 -0.2068 -0.0172
  935DEC      C 2805   6.986   4.043   6.689  0.0296  0.3553  0.2475
  936DEC      C 2806   8.562   5.272   3.142  0.1253 -0.2347 -0.0815
  936DEC      C 2807   8.113   5.242   3.360 -0.1375 -0.3828  0.0358
  936DEC      C 2808   7.867   4.988   3.228 -0.0068  0.1555  0.0106
  937DEC      C 2809   7.615   4.583   1.051 -0.1128  0.0809  0.1020
  937DEC      C 2810   7.347   4.520   0.685 -0.2294  0.3142  0.0275
  937DEC      C 2811   7.082   4.361   0.439  0.1217 -0.0454 -0.0303
  938DEC      C 2812   2.211   1.084   4.494 -0.3014 -0.0994 -0.0770
  938DEC      C 2813   2.445   0.669   4.598  0.0852  0.2690  0.0343
  938DEC      C 2814   2.745   0.359   4.729 -0.3166 -0.3768 -0.0672
  939DEC      C 2815   2.597   4.541   0.733 -0.0970  0.0641 -0.2959
  939DEC      C 2816   2.871   4.362   0.605  0.0871 -0.1254 -0.0869
  939DEC      C 2817   3.054   4.027   0.420  0.0331  0.1400  0.1765
  940DEC      C 2818   1.042   0.460   4.502  0.0992 -0.2693 -0.1697
  940DEC      C 2819   1.095   0.169   4.128 -0.1496 -0.5131  0.1554
  940DEC      C 2820   0.922   0.195   3.683  0.1067 -0.0206 -0.0069
  941DEC      C 2821   0.490   0.526   1.495 -0.1395  0.0421 -0.0206
  941DEC      C 2822   0.012   0.438   1.430 -0.0397  0.3259 -0.3877
  941DEC      C 2823  -0.176   0.107   1.261 -0.0065  0.1335  0.3286
  942DEC      C 2824   2.357   6.142   2.246 -0.0020  0.2289 -0.0706
  942DEC      C 2825   2.360   6.104   1.870  0.2417 -0.3294  0.1966
  942DEC      C 2826   1.980   6.101   1.736  0.0283 -0.2086 -0.0657
  943DEC      C 2827   5.118   3.902   5.903 -0.1965 -0.2372  0.2491
  943DEC      C 2828   5.081   4.308   5.909 -0.1989  0.0428  0.2122
  943DEC      C 2829   5.168   4.715   5.897 -0.0538 -0.1037  0.0584
  944DEC      C 2830   6.837   0.243   5.445 -0.0932  0.0273 -0.0901
  944DEC      C 2831   7.020  -0.192   5.404  0.3546  0.0657 -0.0161
  944DEC      C 2832   7.175  -0.680   5.322  0.1085  0.0159  0.2158
  945DEC      C 2833   7.993   0.752   1.380 -0.0627  0.0727 -0.3441
  945DEC      C 2834   8.285   0.565   1.167  0.0332  0.0472  0.1628
  945DEC      C 2835   8.724   0.500   0.937  0.4185 -0.2293  0.2535
  946DEC      C 2836   8.435   1.408   3.068 -0.0169  0.1287  0.1857
  946DEC      C 2837   8.761   1.078   3.011  0.0004  0.1432 -0.2259
  946DEC      C 2838   9.078   0.777   3.269  0.0152 -0.0840 -0.0882
  947DEC      C 2839   6.165   6.100   6.071  0.2459  0.1153  0.2430
  947DEC      C 2840   6.588   6.213   6.313 -0.3232  0.1098  0.3893
  947DEC      C 2841   6.547   6.420   6.696  0.0912 -0.0830  0.1352
  948DEC      C 2842   2.289   6.940   1.782  0.3024  0.1834 -0.0057
  948DEC      C 2843   2.567   7.032   1.367 -0.0085  0.0663  0.0987
  948DEC      C 2844   2.746   7.094   0.952 -0.0897 -0.1727  0.0661
  949DEC      C 2845   5.852   1.810   3.030 -0.1672  0.0872 -0.0262
  949DEC      C 2846   5.639   1.451   2.967  0.1335 -0.1219  0.1418
  949DEC      C 2847   5.340   1.284   2.630  0.0061  0.0725  0.0606
  950DEC      C 2848   7.677   6.410   6.728  0.2053  0.2604 -0.1078
  950DEC      C 2849   8.046   6.448   7.021 -0.2281 -0.0307  0.0838
  950DEC      C 2850   8.329   6.398   7.321  0.0150  0.0591 -0.0617
  951DEC      C 2851   4.501   3.060   2.501 -0.0136  0.0757  0.0527
  951DEC      C 2852   4.653   3.330   2.698  0.1064  0.1294 -0.2271
  951DEC      C 2853   4.571   3.575   3.101 -0.0399 -0.1244 -0.0140
  952DEC      C 2854   0.190   1.109   5.485  0.3830  0.0409  0.0002
  952DEC      C 2855   0.030   1.134   5.037  0.2256  0.0016  0.0926
  952DEC      C 2856  -0.264   1.130   4.686 -0.2035 -0.1049 -0.0386
  953DEC      C 2857   8.038   6.903   2.424 -0.0905  0.2595  0.2541
  953DEC      C 2858   7.796   7.286   2.366  0.0235 -0.0671  0.0276
  953DEC      C 2859   7.605   7.597   2.500  0.0941  0.1300  0.0075
  954DEC      C 2860   4.586   3.165   3.367 -0.2081 -0.1395  0.0329
  954DEC      C 2861   4.176   3.217   3.472 -0.2052  0.5316 -0.1722
  954DEC      C 2862   3.823   3.326   3.503 -0.2446 -0.0752  0.1754
  955DEC      C 2863   1.005   3.120   3.583 -0.0792  0.1859  0.1325
  955DEC      C 2864   0.910   2.691   3.557  0.2225 -0.1852  0.3595
  955DEC      C 2865   1.135   2.409   3.717 -0.0991  0.1141  0.2486
  956DEC      C 2866   7.244   4.487   3.426  0.0095 -0.0959 -0.0155
  956DEC      C 2867   7.401   3.997   3.249 -0.0507 -0.1727  0.2097
  956DEC      C 2868   7.321   3.712   2.913 -0.4293  0.0047  0.0969
  957DEC      C 2869   7.309   3.646   5.886  0.1864  0.1343 -0.0775
  957DEC      C 2870   6.815   3.430   5.938 -0.0221  0.0405  0.1261
  957DEC      C 2871   6.534   3.143   5.941  0.0105  0.3063  0.0052
  958DEC      C 2872   4.421   5.336   0.131 -0.1088  0.0662 -0.2812
  958DEC      C 2873   4.441   5.591   0.473  0.1522  0.0285 -0.4119
  958DEC      C 2874   4.199   5.953   0.782  0.1486 -0.2686  0.2217
  959DEC      C 2875   3.968   6.038   5.961  0.0043  0.0814  0.1226
  959DEC      C 2876   4.242   5.661   5.820 -0.3729 -0.0718  0.1255
  959DEC      C 2877   4.411   5.354   5.571  0.1313  0.0609  0.0459
  960DEC      C 2878   1.422   2.738   4.985  0.1497 -0.2703 -0.3806
  960DEC      C 2879   1.413   2.379   5.331  0.0425 -0.0610 -0.2836
  960DEC      C 2880   1.474   1.892   5.506  0.3318 -0.3776 -0.1216
  961DEC      C 2881   7.345   6.817   1.169 -0.0313 -0.1191 -0.1310
  961DEC      C 2882   6.922   6.678   1.152 -0.2328  0.0352  0.0323
  961DEC      C 2883   6.599   6.500   1.375 -0.0021 -0.3028 -0.0327
  962DEC      C 2884   7.317   3.747   2.133  0.0306  0.2993 -0.0694
  962DEC      C 2885   7.532   3.992   2.524 -0.2178 -0.1469 -0.0793
  962DEC      C 2886   7.744   4.192   2.948 -0.2387  0.1862  0.1798
  963DEC      C 2887   5.739   5.276   1.256 -0.2869  0.0744 -0.0869
  963DEC      C 2888   5.757   4.852   1.133 -0.1843  0.2051  0.1433
  963DEC      C 2889   5.869   4.465   1.317 -0.3197 -0.0666  0.0825
  964DEC      C 2890   3.147   2.423   0.598 -0.0341  0.1560 -0.1664
  964DEC      C 2891   3.374   2.242   0.193  0.3227  0.1200  0.0537
  964DEC      C 2892   3.351   2.024  -0.135  0.4077  0.0856 -0.0557
  965DEC      C 2893   0.494   3.732   4.182 -0.2774 -0.1240 -0.1340
  965DEC      C 2894   0.157   3.544   4.473 -0.1856 -0.0127 -0.2598
  965DEC      C 2895  -0.084   3.482   4.874 -0.2274  0.2753  0.0184
  966DEC      C 2896   8.501   6.375   0.966 -0.0052 -0.1821  0.0857
  966DEC      C 2897   8.184   6.022   0.922 -0.0532 -0.0759  0.1111
  966DEC      C 2898   7.847   5.756   0.738 -0.0010  0.1372 -0.0617
  967DEC      C 2899   1.495   0.231   4.513  0.1018 -0.3723 -0.0072
  967DEC      C 2900   1.924   0.061   4.636 -0.4677  0.0408  0.2719
  967DEC      C 2901   2.024  -0.058   5.083  0.1897  0.4655 -0.2912
  968DEC      C 2902   1.384   3.304   5.320  0.0562  0.1383 -0.0771
  968DEC      C 2903   0.994   3.136   5.098 -0.3698  0.0648  0.2644
  968DEC      C 2904   0.894   3.140   4.667 -0.1899 -0.1226  0.2664
  969DEC      C 2905   8.040   5.298   5.816  0.0104  0.2582 -0.0131
  969DEC      C 2906   7.963   5.675   5.562 -0.1887 -0.1505 -0.2919
  969DEC      C 2907   8.189   5.901   5.348 -0.0202 -0.1704 -0.1509
  970DEC      C 2908   8.114   3.549   7.176  0.2976  0.0949  0.0025
  970DEC      C 2909   7.964   3.092   7.228 -0.2872 -0.0743 -0.0380
  970DEC      C 2910   7.739   2.757   7.452 -0.1510  0.0119 -0.1046
  971DEC      C 2911   3.863   2.848   3.797  0.0731 -0.0472 -0.2558
  971DEC      C 2912   3.513   2.650   3.618 -0.1981  0.2999  0.2565
  971DEC      C 2913   3.279   2.584   3.376 -0.0672 -0.1584  0.1210
  972DEC      C 2914   1.939   5.651   4.028  0.0500 -0.1236  0.3629
  972DEC      C 2915   1.652   5.436   4.438 -0.0211  0.0347  0.3552
  972DEC      C 2916   1.449   5.115   4.654 -0.2704  0.1965 -0.1675
  973DEC      C 2917   2.427   4.045   4.258  0.3150 -0.1242  0.0121
  973DEC      C 2918   2.287   4.248   4.670  0.1195  0.0088  0.0587
  973DEC      C 2919   2.110   4.472   5.022  0.2228 -0.1212  0.3424
  974DEC      C 2920   4.025   2.968   2.529 -0.1205  0.2661  0.2130
  974DEC      C 2921   4.013   2.556   2.738 -0.2111 -0.0443 -0.1267
  974DEC      C 2922   3.925   2.438   3.095  0.1533  0.1355 -0.0495
  975DEC      C 2923   6.604   0.645   3.870  0.1449 -0.2559  0.0180
  975DEC      C 2924   6.932   0.923   4.040  0.1874  0.0232 -0.0895
  975DEC      C 2925   6.976   1.141   4.453  0.1112  0.1953 -0.0827
  976DEC      C 2926   3.245   7.024   5.936 -0.1386  0.1991 -0.4276
  976DEC      C 2927   3.403   7.328   6.222  0.1249  0.1569  0.0300
  976DEC      C 2928   3.314   7.674   6.384  0.2164  0.0410 -0.0215
  977DEC      C 2929   1.309   5.547   4.797  0.0731 -0.1818  0.3465
  977DEC      C 2930   1.502   5.663   5.201  0.2412 -0.1076  0.3204
  977DEC      C 2931   1.739   5.499   5.560  0.0290  0.0881 -0.1052
  978DEC      C 2932   1.584   1.740   1.030 -0.0195  0.1206  0.0055
  978DEC      C 2933   1.429   1.540   0.761 -0.1600 -0.1088  0.0463
  978DEC      C 2934   1.278   1.048   0.803  0.0623 -0.0542 -0.0772
  979DEC      C 2935   1.128   6.714   3.731  0.2326 -0.0174 -0.1708
  979DEC      C 2936   1.268   6.358   3.899  0.0089 -0.0410  0.0780
  979DEC      C 2937   1.403   5.950   4.044  0.0050 -0.2529 -0.0091
  980DEC      C 2938   0.460   0.657   0.018 -0.1220  0.0969 -0.0249
  980DEC      C 2939  -0.001   0.401   0.087 -0.2841  0.1226  0.0542
  980DEC      C 2940  -0.423   0.111   0.128  0.3222  0.0091 -0.0893
  981DEC      C 2941   2.863   5.686   3.970  0.1102 -0.1044 -0.1780
  981DEC      C 2942   3.109   5.337   3.798 -0.0932  0.1446  0.0316
  981DEC      C 2943   3.145   4.963   3.988  0.0431 -0.0073  0.0571
  982DEC      C 2944   6.089   2.637   2.054  0.0719  0.1200 -0.0408
  982DEC      C 2945   6.213   2.248   1.764  0.3398  0.0335  0.2307
  982DEC      C 2946   6.133   2.178   1.332 -0.1488  0.0926 -0.2096
  983DEC      C 2947   8.636   4.529   6.934 -0.0070 -0.0959  0.0396
  983DEC      C 2948   8.873   4.878   6.965 -0.0985  0.2220 -0.0347
  983DEC      C 2949   9.092   5.213   6.627 -0.3734 -0.1455 -0.4047
  984DEC      C 2950   1.297   7.083   3.322  0.1595  0.2926 -0.2241
  984DEC      C 2951   0.936   6.980   3.349 -0.0371 -0.0321  0.0083
  984DEC      C 2952   0.580   6.753   3.629  0.0290  0.1167 -0.1375
  985DEC      C 2953   6.049   1.014   0.982  0.1503 -0.1918 -0.0208
  985DEC      C 2954   6.481   1.105   1.075 -0.2179 -0.0762 -0.1740
  985DEC      C 2955   6.814   1.155   1.405 -0.0958  0.0737 -0.1552
  986DEC      C 2956   3.458   6.361   1.359  0.1225 -0.1060 -0.0513
  986DEC      C 2957   3.501   6.708   1.770  0.2634 -0.0314  0.0426
  986DEC      C 2958   3.500   6.892   2.159  0.2714 -0.0452  0.1516
  987DEC      C 2959   8.524   2.416   3.160 -0.1269  0.2348 -0.0934
  987DEC      C 2960   8.292   2.738   2.841  0.1175 -0.1778  0.1027
  987DEC      C 2961   8.018   3.038   2.855  0.0009  0.0757 -0.3176
  988DEC      C 2962   7.186   6.782   3.659  0.0064 -0.2233  0.1887
  988DEC      C 2963   6.758   7.034   3.710  0.1536 -0.0259  0.0108
  988DEC      C 2964   6.715   7.430   3.924  0.0627  0.1795 -0.1919
  989DEC      C 2965   4.974   6.972   1.773 -0.4965  0.2920 -0.0939
  989DEC      C 2966   4.718   7.306   1.885 -0.2551 -0.1513  0.0422
  989DEC      C 2967   4.897   7.652   1.773  0.3662 -0.0780 -0.1827
  990DEC      C 2968   7.305   3.698   0.124 -0.1852  0.4022 -0.1598
  990DEC      C 2969   7.477   4.006   0.441  0.0260  0.1568  0.0010
  990DEC      C 2970   7.858   4.314   0.201 -0.0383  0.2972 -0.1732
  991DEC      C 2971   7.226   2.378   2.578  0.2685 -0.1173  0.0538
  991DEC      C 2972   7.468   2.253   2.363  0.1172  0.0897  0.0830
  991DEC      C 2973   7.854   2.238   2.191 -0.3548  0.2320  0.1164
  992DEC      C 2974   8.529   2.442   7.030  0.0498 -0.2831  0.3920
  992DEC      C 2975   8.419   1.966   7.097  0.3102 -0.3288  0.2047
  992DEC      C 2976   8.035   1.742   6.789 -0.0872 -0.2427 -0.0173
  993DEC      C 2977   8.323   0.506   3.832 -0.2569  0.0740 -0.0670
  993DEC      C 2978   8.196   0.944   3.698  0.0142 -0.1211  0.0873
  993DEC      C 2979   8.490   1.191   3.524 -0.0062 -0.2199 -0.0829
  994DEC      C 2980   2.102   0.122   1.634  0.0529 -0.1345  0.2683
  994DEC      C 2981   2.486   0.312   1.467  0.3321 -0.2885  0.0356
  994DEC      C 2982   2.710   0.590   1.554 -0.5348  0.0746  0.1718
  995DEC      C 2983   4.761   2.003   0.551  0.0817 -0.0226 -0.0553
  995DEC      C 2984   4.744   2.373   0.258 -0.3829 -0.1372  0.2981
  995DEC      C 2985   4.661   2.780   0.119 -0.4781 -0.0811 -0.0778
  996DEC      C 2986   0.898   0.315   1.746  0.1224  0.5706 -0.0797
  996DEC      C 2987   1.163   0.360   1.442 -0.2078 -0.0805 -0.1972
  996DEC      C 2988   1.445   0.804   1.412 -0.0021 -0.4618 -0.0762
  997DEC      C 2989   4.782   6.201   3.086 -0.1672 -0.0619  0.2417
  997DEC      C 2990   5.082   6.204   2.869  0.3378  0.1367 -0.1384
  997DEC      C 2991   5.241   6.379   2.544 -0.1398 -0.1108  0.3030
  998DEC      C 2992   1.863   1.763   2.637  0.2817  0.0487 -0.0184
  998DEC      C 2993   1.806   2.116   2.452  0.1600 -0.3259  0.2277
  998DEC      C 2994   1.999   2.343   1.970  0.1218 -0.0500  0.1336
  999DEC      C 2995   1.783   0.793   5.270 -0.0658 -0.2227 -0.2181
  999DEC      C 2996   1.958   0.431   5.413 -0.0227  0.2331  0.1992
  999DEC      C 2997   1.975  -0.043   5.652  0.0444  0.1610 -0.3013
 1000DEC      C 2998   1.310   5.228   2.910 -0.0809 -0.1596  0.0488
 1000DEC      C 2999   1.414   4.895   3.207 -0.1418 -0.1757 -0.1237
 1000DEC      C 3000   1.368   5.022   3.568 -0.1334  0.0991  0.1932
 1001DEC      C 3001   6.050   1.888   0.373 -0.1903  0.0787  0.0628
 1001DEC      C 3002   5.948   2.212   0.274  0.1848 -0.0828  0.1270
 1001DEC      C 3003   5.624   2.349   0.157 -0.0259  0.1394  0.0576
 1002DEC      C 3004   5.626   0.545   5.960 -0.1899 -0.2140 -0.2450
 1002DEC      C 3005   6.048   0.789   5.944  0.3169  0.3523 -0.0261
 1002DEC      C 3006   6.341   0.755   5.634  0.3614 -0.1954  0.0693
 1003DEC      C 3007   5.828   0.725   6.445 -0.4336 -0.0199 -0.2544
 1003DEC      C 3008   5.460   0.469   6.439  0.0060 -0.1346 -0.2886
 1003DEC      C 3009   5.025   0.498   6.569  0.2743 -0.0707 -0.2666
 1004DEC      C 3010   0.608   3.268   0.112  0.1011  0.2833 -0.1515
 1004DEC      C 3011   0.739   3.535   0.557 -0.0872 -0.0496  0.2918
 1004DEC      C 3012   1.059   3.528   0.805  0.1160  0.1114 -0.1048
 1005DEC      C 3013   1.019   4.516   5.804 -0.1262 -0.0822  0.2479
 1005DEC      C 3014   0.676   4.688   5.618  0.0328 -0.1065  0.0748
 1005DEC      C 3015   0.265   4.585   5.460 -0.0464 -0.2939 -0.2083
 1006DEC      C 3016   1.447   2.036   6.335 -0.0052  0.1243  0.0199
 1006DEC      C 3017   1.268   1.803   5.937 -0.0957 -0.2876 -0.0888
 1006DEC      C 3018   1.050   1.470   5.736  0.0215 -0.1063  0.4174
 1007DEC      C 3019   7.111   2.232   0.258  0.1264  0.0428 -0.3026
 1007DEC      C 3020   7.404   2.083   0.595 -0.2082  0.3089  0.0867
 1007DEC      C 3021   7.662   1.788   1.010 -0.2321 -0.0132  0.1494
 1008DEC      C 3022   4.830   4.407   6.364 -0.2065  0.0362 -0.0000
 1008DEC      C 3023   4.720   4.764   6.576 -0.3043  0.0344 -0.0075
 1008DEC      C 3024   4.873   4.930   7.056  0.2115  0.0763 -0.0573
 1009DEC      C 3025   2.286   3.186   5.992 -0.2114 -0.0005 -0.1079
 1009DEC      C 3026   2.046   3.397   5.791  0.0734  0.0604 -0.0023
 1009DEC      C 3027   2.097   3.567   5.454  0.0093  0.0269  0.0544
 1010DEC      C 3028   7.005   2.800   4.420  0.3297 -0.1344  0.0797
 1010DEC      C 3029   6.899   2.446   4.619 -0.2614 -0.1906  0.0221
 1010DEC      C 3030   6.811   1.972   4.709  0.5499 -0.2518  0.1350
 1011DEC      C 3031   3.728   3.346   2.959 -0.3527  0.0959  0.0388
 1011DEC      C 3032   4.194   3.487   2.630 -0.0746  0.2389  0.2414
 1011DEC      C 3033   4.552   3.791   2.630  0.0233  0.2039 -0.1409
 1012DEC      C 3034   3.868   5.582   5.131 -0.2304 -0.3395 -0.2621
 1012DEC      C 3035   3.410   5.572   5.346  0.2357 -0.2458  0.2940
 1012DEC      C 3036   3.069   5.475   5.395 -0.1428 -0.2551  0.0813
 1013DEC      C 3037   2.221   7.244   6.825  0.2439  0.1376  0.1338
 1013DEC      C 3038   2.149   7.612   6.964 -0.0383  0.0865 -0.0756
 1013DEC      C 3039   2.233   8.044   7.263 -0.1618  0.2800 -0.0021
 1014DEC      C 3040   0.519   2.928   6.959 -0.1268  0.0148  0.1214
 1014DEC      C 3041   0.287   2.895   7.269  0.1299 -0.2773 -0.0747
 1014DEC      C 3042   0.066   2.557   7.477 -0.1137  0.0183 -0.0490
 1015DEC      C 3043   7.532   3.313   2.050  0.0791 -0.1959  0.0894
 1015DEC      C 3044   7.293   3.541   1.734  0.0098  0.3093 -0.0150
 1015DEC      C 3045   7.128   3.851   1.393  0.1168 -0.3677 -0.0273
 1016DEC      C 3046   8.279   7.047   0.570 -0.0238 -0.2436  0.1048
 1016DEC      C 3047   8.150   7.207   0.915 -0.1181 -0.4967 -0.0442
 1016DEC      C 3048   7.840   7.110   1.214 -0.2416 -0.0539 -0.1425
 1017DEC      C 3049   3.946   5.303   5.981  0.1939  0.0495 -0.0991
 1017DEC      C 3050   3.781   5.608   5.705 -0.1763  0.2252 -0.5309
 1017DEC      C 3051   4.008   5.909   5.478 -0.1334  0.0425  0.0428
 1018DEC      C 3052   0.105   2.027   4.700 -0.1479 -0.1316 -0.0587
 1018DEC      C 3053   0.017   1.703   4.435 -0.1999  0.1138  0.1098
 1018DEC      C 3054  -0.294   1.465   4.347 -0.4448  0.0052  0.0319
 1019DEC      C 3055   3.686   3.995   1.790  0.0195 -0.0265 -0.0962
 1019DEC      C 3056   4.120   3.818   1.812 -0.4009 -0.3822  0.2012
 1019DEC      C 3057   4.380   3.939   2.096  0.2008 -0.0450  0.1337
 1020DEC      C 3058   1.373   0.275   1.994 -0.2828  0.2871 -0.1910
 1020DEC      C 3059   1.356   0.782   1.879 -0.2559  0.2667  0.1294
 1020DEC      C 3060   1.094   1.001   2.189 -0.2947  0.4134  0.1506
 1021DEC      C 3061   2.417   5.687   1.298 -0.1278 -0.0532 -0.1574
 1021DEC      C 3062   2.840   5.660   1.116 -0.0289  0.2819 -0.0966
 1021DEC      C 3063   3.069   5.615   0.674  0.3534 -0.0503 -0.0854
 1022DEC      C 3064   6.421   0.074   6.272 -0.0852  0.2894 -0.0924
 1022DEC      C 3065   6.478  -0.309   6.351 -0.1285 -0.0423  0.2136
 1022DEC      C 3066   6.689  -0.623   6.205  0.1511 -0.0065 -0.3046
 1023DEC      C 3067   2.423   0.740   5.427 -0.2236  0.0376  0.1005
 1023DEC      C 3068   2.209   0.442   4.990  0.2509  0.2915 -0.0632
 1023DEC      C 3069   1.949   0.607   4.643 -0.2021 -0.1693  0.1029
 1024DEC      C 3070   7.289   3.668   5.250  0.6281 -0.0831  0.2031
 1024DEC      C 3071   7.031   3.816   5.551 -0.1148 -0.2338  0.2175
 1024DEC      C 3072   6.850   3.899   5.997 -0.0753 -0.0877  0.3196
 1025DEC      C 3073   0.013   2.204   2.206 -0.4350 -0.0138 -0.1995
 1025DEC      C 3074   0.030   2.564   2.451 -0.0725 -0.0872 -0.0173
 1025DEC      C 3075   0.268   2.490   2.826 -0.2285 -0.1343 -0.2224
 1026DEC      C 3076   5.207   5.796   2.222 -0.0827  0.2370  0.1075
 1026DEC      C 3077   5.303   5.879   2.540 -0.1660 -0.2209  0.0667
 1026DEC      C 3078   5.718   5.631   2.714  0.3918  0.2408  0.1780
 1027DEC      C 3079   0.103   7.201   2.281  0.1276  0.0424 -0.1750
 1027DEC      C 3080   0.072   7.555   2.526 -0.3691 -0.1511 -0.1396
 1027DEC      C 3081   0.050   7.819   2.893  0.1321 -0.0066 -0.3738
 1028DEC      C 3082   4.311   0.440   3.452  0.0075 -0.2140 -0.0843
 1028DEC      C 3083   3.879   0.400   3.649  0.1943  0.1252 -0.0052
 1028DEC      C 3084   3.472   0.673   3.906 -0.2435 -0.2547 -0.1759
 1029DEC      C 3085   0.123   2.253   3.729 -0.2422 -0.2590 -0.1126
 1029DEC      C 3086  -0.034   2.648   3.576  0.0440  0.1306 -0.2180
 1029DEC      C 3087  -0.259   2.838   3.345 -0.2285  0.1400  0.1788
 1030DEC      C 3088   3.385   1.137   6.333  0.0643 -0.0400 -0.1233
 1030DEC      C 3089   3.580   1.421   6.536 -0.0555  0.0710  0.2587
 1030DEC      C 3090   3.865   1.688   6.555  0.2931 -0.5626 -0.1364
 1031DEC      C 3091   0.584   1.279   0.665  0.0334 -0.0531  0.3576
 1031DEC      C 3092   0.860   1.267   1.034  0.2491  0.3058  0.2354
 1031DEC      C 3093   1.292   1.296   1.220  0.0916 -0.4293 -0.0636
 1032DEC      C 3094   8.501   7.143   6.105  0.0518  0.0988 -0.0890
 1032DEC      C 3095   8.053   6.928   6.075 -0.2816  0.0492 -0.1288
 1032DEC      C 3096   7.574   6.801   6.094  0.2756 -0.1083  0.0125
 1033DEC      C 3097   0.974   4.326   0.783  0.1118 -0.1445  0.0980
 1033DEC      C 3098   0.718   3.978   0.650 -0.0411  0.0502 -0.2210
 1033DEC      C 3099   0.423   3.817   0.252  0.0150  0.1384 -0.0072
 1034DEC      C 3100   3.089   1.969   1.008  0.0566  0.1297 -0.0343
 1034DEC      C 3101   3.297   2.396   1.061 -0.3205 -0.1039  0.0864
 1034DEC      C 3102   3.440   2.771   0.837  0.3067 -0.0869  0.2106
 1035DEC      C 3103   1.644   6.292   3.209 -0.0872 -0.1056  0.2061
 1035DEC      C 3104   1.319   6.480   3.345 -0.1781 -0.1091 -0.4185
 1035DEC      C 3105   0.916   6.508   3.326 -0.4211 -0.1671  0.2388
 1036DEC      C 3106   0.472   2.558   1.545  0.2463 -0.2334  0.1111
 1036DEC      C 3107   0.686   2.270   1.854 -0.0802  0.1449  0.2705
 1036DEC      C 3108   0.688   2.171   2.344 -0.0455 -0.1358  0.2109
 1037DEC      C 3109   3.179   0.083   6.746 -0.1404  0.0053  0.0319
 1037DEC      C 3110   3.196   0.340   7.019 -0.4277 -0.0751  0.2402
 1037DEC      C 3111   3.312   0.706   7.216 -0.1073  0.0456  0.2140
 1038DEC      C 3112   6.877   1.547   1.902 -0.2410 -0.2224  0.0173
 1038DEC      C 3113   6.537   1.214   1.798  0.1553  0.0765  0.3619
 1038DEC      C 3114   6.203   0.883   1.897 -0.0867 -0.0322 -0.0259
 1039DEC      C 3115   5.114   7.175   1.276  0.1482  0.0302 -0.2327
 1039DEC      C 3116   5.093   7.147   0.842 -0.0942 -0.4924 -0.1750
 1039DEC      C 3117   4.670   7.181   0.617  0.2144 -0.0385  0.2961
 1040DEC      C 3118   3.441   4.718   1.722  0.1189 -0.1470  0.1105
 1040DEC      C 3119   3.476   4.326   1.464 -0.0070 -0.1260  0.0268
 1040DEC      C 3120   3.522   3.882   1.298 -0.0225 -0.1554  0.3531
 1041DEC      C 3121   6.496   2.179   0.927 -0.1519  0.0921 -0.1294
 1041DEC      C 3122   6.064   2.150   0.804  0.3638  0.1366 -0.0112
 1041DEC      C 3123   5.650   2.137   0.702 -0.2215  0.1303 -0.1867
 1042DEC      C 3124   5.487   4.364   2.742 -0.0859  0.2522 -0.0938
 1042DEC      C 3125   5.520   4.021   2.877 -0.0765  0.4180  0.0448
 1042DEC      C 3126   5.549   3.605   2.760 -0.2700  0.1255  0.0866
 1043DEC      C 3127   7.967   0.342   3.034 -0.0450 -0.3158  0.1363
 1043DEC      C 3128   8.411   0.241   3.180 -0.1794  0.0262  0.0373
 1043DEC      C 3129   8.639   0.090   3.677 -0.0321 -0.2397 -0.1122
 1044DEC      C 3130   4.519   2.542   6.477 -0.0447 -0.2955  0.2505
 1044DEC      C 3131   4.644   2.110   6.632 -0.1954  0.0681  0.1235
 1044DEC      C 3132   4.876   1.809   6.871 -0.0504 -0.0323  0.0249
 1045DEC      C 3133   0.002   3.744   7.230  0.0046 -0.1107 -0.1032
 1045DEC      C 3134   0.246   3.400   7.135  0.0802  0.0766 -0.0676
 1045DEC      C 3135   0.413   3.352   6.847  0.5570  0.0393  0.0813
 1046DEC      C 3136   5.904   2.693   6.302  0.0986 -0.1086 -0.1687
 1046DEC      C 3137   5.779   2.838   6.775 -0.2249  0.1896  0.0506
 1046DEC      C 3138   5.510   2.763   7.064  0.2776 -0.2424 -0.0178
 1047DEC      C 3139   1.310   5.961   6.508 -0.0033 -0.0834  0.0216
 1047DEC      C 3140   1.513   5.553   6.638 -0.1041  0.0336 -0.2540
 1047DEC      C 3141   1.821   5.355   6.397 -0.1186  0.1179 -0.1304
 1048DEC      C 3142   2.515   0.708   3.984  0.2545 -0.2205  0.3344
 1048DEC      C 3143   2.991   0.728   4.115  0.0868 -0.0376  0.2848
 1048DEC      C 3144   3.143   0.587   4.472  0.0480  0.0059 -0.0124
 1049DEC      C 3145   6.215   0.782   5.111  0.2207  0.1397 -0.2187
 1049DEC      C 3146   5.716   0.748   4.986 -0.0548  0.0858  0.1128
 1049DEC      C 3147   5.424   1.043   4.693 -0.1545  0.0932 -0.4218
 1050DEC      C 3148   7.438   4.496   5.149  0.0017  0.2874 -0.2009
 1050DEC      C 3149   7.733   4.801   5.047  0.0983 -0.0007  0.0035
 1050DEC      C 3150   7.904   5.164   5.020 -0.2224 -0.0798 -0.0214
 1051DEC      C 3151   3.741   0.459   5.976  0.1152 -0.1282  0.0522
 1051DEC      C 3152   3.776   0.062   5.860  0.0991  0.1896  0.0591
 1051DEC      C 3153   3.664  -0.359   5.736 -0.0775  0.1809 -0.0588
 1052DEC      C 3154   1.991   6.375   2.910 -0.0986 -0.2518 -0.1140
 1052DEC      C 3155   2.234   6.474   2.630  0.1568 -0.1282 -0.0770
 1052DEC      C 3156   2.650   6.335   2.547 -0.2299  0.0005 -0.1216
 1053DEC      C 3157   7.925   6.184   4.724 -0.1657 -0.3015 -0.0827
 1053DEC      C 3158   8.280   6.116   4.815 -0.3265  0.1002  0.0383
 1053DEC      C 3159   8.563   5.846   4.465 -0.1049 -0.0613  0.0006
 1054DEC      C 3160   0.356   2.032   3.316  0.3472  0.1225  0.0568
 1054DEC      C 3161   0.388   1.654   3.259  0.0098  0.0946 -0.1062
 1054DEC      C 3162   0.347   1.423   3.542 -0.1150 -0.1652 -0.1248
 1055DEC      C 3163   4.403   3.786   3.784  0.2296  0.1816  0.0659
 1055DEC      C 3164   4.437   4.096   3.591  0.0906 -0.2447  0.2321
 1055DEC      C 3165   4.297   4.404   3.349  0.0553 -0.2174  0.3895
 1056DEC      C 3166   1.852   0.894   1.027 -0.1548  0.0611  0.0913
 1056DEC      C 3167   1.795   1.256   0.778 -0.3194 -0.2038 -0.0898
 1056DEC      C 3168   2.075   1.533   0.529  0.2896  0.1284  0.0493
 1057DEC      C 3169   8.072   6.406   5.273 -0.0461 -0.4188  0.1393
 1057DEC      C 3170   7.711   6.060   5.353 -0.0208 -0.2155  0.0920
 1057DEC      C 3171   7.238   6.128   5.441 -0.1404  0.1547  0.3609
 1058DEC      C 3172   4.216   5.368   3.515  0.4529  0.1331  0.1890
 1058DEC      C 3173   4.214   5.355   3.027 -0.1327 -0.3836 -0.0232
 1058DEC      C 3174   3.952   5.475   2.799 -0.2418 -0.0631 -0.0537
 1059DEC      C 3175   1.406   4.483   2.438 -0.1500  0.0193 -0.0385
 1059DEC      C 3176   1.253   4.766   2.635  0.1186  0.0155 -0.1863
 1059DEC      C 3177   0.861   5.082   2.695 -0.1819  0.0088 -0.1692
 1060DEC      C 3178   8.127   6.695   0.955  0.2362  0.0861 -0.0136
 1060DEC      C 3179   8.095   6.409   1.347 -0.0060 -0.1179  0.1276
 1060DEC      C 3180   8.097   6.313   1.765 -0.0368 -0.0000 -0.0272
 1061DEC      C 3181   3.700   6.645   7.104 -0.1413  0.2242 -0.0854
 1061DEC      C 3182   3.759   6.695   6.594 -0.2116  0.2593 -0.2230
 1061DEC      C 3183   3.855   6.474   6.121 -0.0933 -0.1715 -0.0445
 1062DEC      C 3184   5.327   5.733   0.440 -0.3292 -0.1329  0.0841
 1062DEC      C 3185   5.649   6.015   0.252 -0.1872  0.2794 -0.1667
 1062DEC      C 3186   6.000   6.252   0.085  0.0075  0.1821 -0.2618
 1063DEC      C 3187   8.048   1.035   4.232 -0.3016  0.0207 -0.3308
 1063DEC      C 3188   7.848   0.685   4.020 -0.1480 -0.2403 -0.2481
 1063DEC      C 3189   7.788   0.536   4.427 -0.1831  0.1874  0.2465
 1064DEC      C 3190   7.503   3.597   1.241  0.0666  0.2946  0.2285
 1064DEC      C 3191   7.737   4.054   1.267  0.1816 -0.1823  0.0978
 1064DEC      C 3192   8.053   4.356   1.300  0.1579 -0.1427 -0.0632
 1065DEC      C 3193   6.142   0.597   3.737 -0.1787 -0.1916 -0.1063
 1065DEC      C 3194   6.216   0.310   4.084  0.4128 -0.1088 -0.0616
 1065DEC      C 3195   6.561   0.391   4.331 -0.1817  0.0361 -0.0354
 1066DEC      C 3196   2.108   0.616   1.353  0.1689 -0.1123 -0.1701
 1066DEC      C 3197   1.784   0.314   1.132 -0.3038  0.0004 -0.0070
 1066DEC      C 3198   1.638  -0.057   1.076 -0.0426 -0.2464  0.2996
 1067DEC      C 3199   3.522   2.939   2.553  0.1348  0.1130  0.4906
 1067DEC      C 3200   3.104   2.897   2.442  0.0541  0.1262  0.1165
 1067DEC      C 3201   2.678   2.796   2.391  0.2948 -0.0837 -0.0018
 1068DEC      C 3202   3.252   1.185   1.542  0.0748 -0.0055 -0.3668
 1068DEC      C 3203   3.330   1.514   1.268  0.1439  0.3287  0.0919
 1068DEC      C 3204   3.537   1.797   1.063 -0.0817  0.1087 -0.2927
 1069DEC      C 3205   0.691   4.195   3.074 -0.3837  0.1361 -0.0643
 1069DEC      C 3206   0.435   4.547   3.056 -0.1117  0.3058  0.0737
 1069DEC      C 3207   0.025   4.545   2.953  0.0997 -0.1424  0.1218
 1070DEC      C 3208   2.453   5.646   0.453 -0.1216 -0.0392 -0.2310
 1070DEC      C 3209   2.536   5.944   0.345 -0.2488 -0.1093  0.2991
 1070DEC      C 3210   2.455   6.342   0.365 -0.0197 -0.1318  0.1000
 1071DEC      C 3211   0.102   0.870   6.568 -0.1168  0.0396  0.2706
 1071DEC      C 3212   0.197   0.595   6.804  0.3454 -0.0886 -0.0892
 1071DEC      C 3213   0.190   0.196   6.580 -0.0369  0.0715 -0.1689
 1072DEC      C 3214   5.005   2.395   6.355  0.0658 -0.0391 -0.0577
 1072DEC      C 3215   4.916   2.535   6.692  0.3180 -0.0404  0.3149
 1072DEC      C 3216   4.889   2.311   7.000  0.1702  0.2350 -0.2428
 1073DEC      C 3217   6.769   4.843   6.900 -0.2503 -0.1202  0.0094
 1073DEC      C 3218   6.987   4.775   7.392 -0.2178  0.1194  0.0880
 1073DEC      C 3219   7.394   4.692   7.389 -0.1022  0.0512 -0.2251
 1074DEC      C 3220   6.305   0.047   3.614  0.0827 -0.1255 -0.1605
 1074DEC      C 3221   5.903   0.097   3.488  0.3442  0.1366 -0.0205
 1074DEC      C 3222   5.758  -0.252   3.290  0.0247 -0.0884  0.1901
 1075DEC      C 3223   5.975   2.674   2.595  0.0435  0.0940  0.0389
 1075DEC      C 3224   5.970   2.830   2.996 -0.0945 -0.2351 -0.3281
 1075DEC      C 3225   6.176   3.020   3.353  0.3020 -0.0386 -0.3122
 1076DEC      C 3226   3.175   3.266   5.158 -0.0971 -0.0214  0.0156
 1076DEC      C 3227   3.055   3.127   5.527 -0.4266  0.1235  0.1231
 1076DEC      C 3228   3.150   2.656   5.724  0.1361  0.1799  0.4369
 1077DEC      C 3229   3.152   0.844   6.736  0.0214  0.1645 -0.0528
 1077DEC      C 3230   3.252   1.166   6.974  0.0817 -0.1344  0.2003
 1077DEC      C 3231   3.535   1.412   7.114 -0.4858  0.4792 -0.0435
 1078DEC      C 3232   7.471   1.601   6.746 -0.0854  0.0520 -0.1186
 1078DEC      C 3233   7.356   1.220   6.531 -0.2149 -0.0361  0.2381
 1078DEC      C 3234   7.695   0.927   6.403  0.0927  0.0065  0.1313
 1079DEC      C 3235   3.283   6.799   6.783  0.1411  0.1455  0.1691
 1079DEC      C 3236   3.063   6.698   7.225 -0.1755 -0.0161  0.1188
 1079DEC      C 3237   2.750   6.824   7.583 -0.1769  0.0386  0.1602
 1080DEC      C 3238   0.014   6.511   1.745  0.0820 -0.2268 -0.0921
 1080DEC      C 3239   0.250   6.810   2.028  0.1385  0.3391  0.0337
 1080DEC      C 3240   0.382   6.840   2.461  0.2185 -0.1310  0.0723
 1081DEC      C 3241   5.052   7.169   3.195  0.2017  0.2196 -0.1511
 1081DEC      C 3242   5.434   7.279   2.945 -0.0676 -0.1746 -0.1970
 1081DEC      C 3243   5.774   7.485   2.978  0.1316  0.0757 -0.1139
 1082DEC      C 3244   1.984   6.438   4.638  0.3765 -0.1972  0.0232
 1082DEC      C 3245   2.098   6.493   4.297 -0.3470  0.2360 -0.0792
 1082DEC      C 3246   2.324   6.403   3.959  0.0588  0.0452 -0.1483
 1083DEC      C 3247   3.916   3.839   2.292 -0.1900  0.1044 -0.0169
 1083DEC      C 3248   4.088   4.301   2.284  0.2082 -0.0753  0.3530
 1083DEC      C 3249   3.896   4.698   2.455  0.2501 -0.1017 -0.0201
 1084DEC      C 3250   4.505   2.213   3.738  0.4088  0.2251 -0.0145
 1084DEC      C 3251   4.691   2.483   4.057 -0.0499 -0.0002  0.1614
 1084DEC      C 3252   4.678   2.948   4.233 -0.0900 -0.0109 -0.2193
 1085DEC      C 3253   6.412   1.779   5.044  0.0248  0.1013  0.0507
 1085DEC      C 3254   6.721   1.626   5.177  0.0728 -0.4230 -0.1776
 1085DEC      C 3255   7.135   1.279   5.213 -0.0134 -0.0447 -0.0465
 1086DEC      C 3256   0.015   2.884   6.696  0.1084 -0.0499 -0.4429
 1086DEC      C 3257   0.182   2.807   6.262 -0.0534  0.2501  0.0256
 1086DEC      C 3258   0.242   2.738   5.759  0.0492 -0.0489  0.2142
 1087DEC      C 3259   1.528   2.985   3.624 -0.0505  0.0938 -0.0569
 1087DEC      C 3260   1.393   3.416   3.546 -0.0910 -0.3134  0.0546
 1087DEC      C 3261   1.395   3.661   3.127 -0.0576  0.0924  0.0766
 1088DEC      C 3262   1.020   0.840   5.888 -0.0336 -0.1744 -0.0702
 1088DEC      C 3263   0.822   0.988   6.315 -0.3697 -0.1992 -0.0267
 1088DEC      C 3264   0.457   1.207   6.549 -0.0882 -0.4293 -0.0130
 1089DEC      C 3265   1.210   4.607   6.827  0.0183  0.0609  0.0403
 1089DEC      C 3266   1.060   4.338   7.080 -0.4239  0.2431 -0.0683
 1089DEC      C 3267   0.746   4.163   7.433 -0.0261 -0.3540  0.1301
 1090DEC      C 3268   3.605   0.644   1.970  0.1196 -0.2182 -0.2422
 1090DEC      C 3269   4.003   0.492   1.911 -0.2629  0.1194  0.0019
 1090DEC      C 3270   4.439   0.630   1.894 -0.3056  0.0323  0.5064
 1091DEC      C 3271   5.306   1.816   2.528 -0.0296 -0.2782 -0.1199
 1091DEC      C 3272   5.287   2.242   2.584  0.0570 -0.0902 -0.1087
 1091DEC      C 3273   5.464   2.660   2.492 -0.1530 -0.0472  0.1768
 1092DEC      C 3274   6.554   7.198   0.732  0.1263  0.1995  0.1195
 1092DEC      C 3275   6.639   6.778   0.680 -0.0139 -0.1299 -0.2520
 1092DEC      C 3276   6.737   6.350   0.671 -0.2047 -0.0687 -0.0660
 1093DEC      C 3277   6.073   6.812   2.449  0.0889 -0.4438  0.1635
 1093DEC      C 3278   5.737   6.772   2.530 -0.1494 -0.1181  0.3831
 1093DEC      C 3279   5.703   6.539   2.860  0.2556  0.3846  0.0382
 1094DEC      C 3280   0.887   4.957   3.291 -0.1733 -0.1250 -0.0124
 1094DEC      C 3281   1.035   4.515   3.095 -0.0082 -0.3169 -0.0547
 1094DEC      C 3282   1.253   4.179   3.049  0.0550  0.4733  0.1496
 1095DEC      C 3283   7.819   2.730   2.144 -0.2310  0.2614 -0.2162
 1095DEC      C 3284   7.812   2.973   1.771  0.2539 -0.2158 -0.0089
 1095DEC      C 3285   7.818   3.219   1.371 -0.2413 -0.1429  0.0113
 1096DEC      C 3286   5.736   5.309   1.860  0.2472  0.1620 -0.0514
 1096DEC      C 3287   5.453   5.359   2.121 -0.0789 -0.0290 -0.2249
 1096DEC      C 3288   5.290   5.334   2.591 -0.1824  0.0659  0.0544
 1097DEC      C 3289   2.685   6.571   5.190  0.1570  0.0432  0.1477
 1097DEC      C 3290   2.585   6.720   5.576 -0.2008 -0.1611 -0.1229
 1097DEC      C 3291   2.930   6.674   5.903  0.1636  0.0720 -0.1227
 1098DEC      C 3292   7.853   4.877   2.702 -0.0204  0.0685  0.2618
 1098DEC      C 3293   8.173   4.491   2.576 -0.2937 -0.5742  0.0173
 1098DEC      C 3294   8.520   4.249   2.595  0.0052  0.1182 -0.0488
 1099DEC      C 3295   6.240   5.729   1.887  0.2723 -0.0412  0.0196
 1099DEC      C 3296   6.280   5.429   2.091  0.5671  0.3185  0.1096
 1099DEC      C 3297   6.064   4.949   2.180  0.0819  0.1976 -0.0044
 1100DEC      C 3298   7.323   4.616   3.991  0.0788 -0.2177  0.2905
 1100DEC      C 3299   7.418   5.070   4.009 -0.0426 -0.2536  0.0890
 1100DEC      C 3300   7.378   5.524   3.949 -0.0712  0.1891 -0.1651
 1101DEC      C 3301   7.753   0.478   2.019 -0.0011  0.1234  0.2259
 1101DEC      C 3302   7.430   0.199   2.043 -0.2868 -0.1468 -0.1200
 1101DEC      C 3303   7.048  -0.105   2.043 -0.1889  0.0177  0.2426
 1102DEC      C 3304   2.789   5.629   5.993 -0.0176 -0.0085 -0.3226
 1102DEC      C 3305   2.545   5.279   5.913  0.0524 -0.1277  0.0424
 1102DEC      C 3306   2.249   4.942   5.856 -0.0133 -0.0636 -0.0156
 1103DEC      C 3307   4.083   0.193   0.501  0.1258 -0.0198  0.2313
 1103DEC      C 3308   4.424   0.477   0.590 -0.2430 -0.2703  0.3338
 1103DEC      C 3309   4.763   0.411   0.787 -0.3148 -0.0846  0.0846
 1104DEC      C 3310   4.318   1.727   4.104  0.0374 -0.0459 -0.1817
 1104DEC      C 3311   4.736   1.507   4.226 -0.1193 -0.1172 -0.4592
 1104DEC      C 3312   5.082   1.225   4.452 -0.1822 -0.0650 -0.1508
 1105DEC      C 3313   5.017   6.431   1.302 -0.0226 -0.0476  0.3183
 1105DEC      C 3314   4.637   6.271   0.864 -0.2242 -0.1294 -0.0977
 1105DEC      C 3315   4.166   6.430   0.751 -0.0225  0.2068 -0.3018
 1106DEC      C 3316   7.616   7.115   4.415  0.0780 -0.0808 -0.0547
 1106DEC      C 3317   7.456   7.440   4.853 -0.1144  0.1447  0.2738
 1106DEC      C 3318   7.284   7.618   5.239 -0.2454  0.1669  0.3378
 1107DEC      C 3319   3.972   2.107   0.416  0.1780  0.0341 -0.1402
 1107DEC      C 3320   4.278   2.480   0.391  0.1466 -0.0471 -0.4377
 1107DEC      C 3321   4.571   2.774   0.580 -0.0515  0.1112 -0.1644
 1108DEC      C 3322   2.229   2.659   6.690 -0.1297 -0.4463 -0.1358
 1108DEC      C 3323   1.930   2.779   6.283  0.0796 -0.2528  0.0492
 1108DEC      C 3324   1.831   2.881   5.850 -0.1694 -0.2945  0.0195
 1109DEC      C 3325   1.901   0.193   2.074  0.0374  0.0525 -0.1318
 1109DEC      C 3326   1.874  -0.271   2.015 -0.0230 -0.4390  0.1118
 1109DEC      C 3327   1.975  -0.705   1.884 -0.3353 -0.1507  0.2334
 1110DEC      C 3328   4.672   0.099   1.404  0.2497  0.1718  0.0246
 1110DEC      C 3329   5.009   0.446   1.279 -0.2134  0.0897  0.1001
 1110DEC      C 3330   5.347   0.559   0.955 -0.0156 -0.0268  0.0870
 1111DEC      C 3331   6.615   0.941   2.262 -0.0052  0.0006  0.0752
 1111DEC      C 3332   6.325   0.923   2.542 -0.2152  0.4360 -0.0618
 1111DEC      C 3333   5.986   0.561   2.751  0.0897  0.2292 -0.0862
 1112DEC      C 3334   1.226   0.992   2.680 -0.1548 -0.1498  0.2724
 1112DEC      C 3335   1.058   0.860   3.053 -0.0610 -0.0234  0.1540
 1112DEC      C 3336   0.960   0.533   3.204  0.1333 -0.0005  0.1382
 1113DEC      C 3337   2.846   6.918   3.284 -0.1499  0.1092  0.2606
 1113DEC      C 3338   3.085   7.252   3.050 -0.0060  0.1289  0.0612
 1113DEC      C 3339   3.314   7.415   2.603  0.0625  0.0910  0.1633
 1114DEC      C 3340   7.270   6.388   2.268  0.0373  0.1344 -0.1437
 1114DEC      C 3341   7.535   6.038   2.374 -0.0296 -0.1767  0.1003
 1114DEC      C 3342   7.703   5.613   2.185  0.0243  0.1417  0.1351
 1115DEC      C 3343   4.047   1.143   6.589 -0.1876  0.0006 -0.2785
 1115DEC      C 3344   3.994   1.399   6.938  0.2349  0.0530  0.1943
 1115DEC      C 3345   4.152   1.540   7.301  0.0925 -0.2059 -0.1301
 1116DEC      C 3346   6.026   1.837   1.929 -0.1791  0.1739 -0.2298
 1116DEC      C 3347   5.702   1.765   1.611  0.1059 -0.1325 -0.0453
 1116DEC      C 3348   5.330   1.683   1.315 -0.2464  0.1641 -0.1162
 1117DEC      C 3349   6.910   4.801   6.012 -0.7024 -0.2750 -0.0222
 1117DEC      C 3350   6.693   4.757   6.404 -0.1208 -0.1090  0.3008
 1117DEC      C 3351   6.301   4.843   6.777 -0.0343 -0.2772  0.2627
 1118DEC      C 3352   7.941   0.781   7.003  0.4323  0.0547  0.1355
 1118DEC      C 3353   8.170   1.046   7.367  0.1425  0.1280  0.0571
 1118DEC      C 3354   8.298   1.515   7.300 -0.0811 -0.3713  0.0164
 1119DEC      C 3355   3.355   1.070   4.325 -0.1596 -0.0267 -0.3120
 1119DEC      C 3356   3.580   0.806   4.641 -0.4920  0.0974  0.0377
 1119DEC      C 3357   3.578   0.430   4.836  0.0999 -0.3056  0.2568
 1120DEC      C 3358   8.355   5.101   4.823  0.0046  0.2113 -0.1956
 1120DEC      C 3359   8.617   4.843   4.504  0.0222 -0.2212 -0.2923
 1120DEC      C 3360   8.542   4.420   4.496  0.1690  0.0641 -0.2227
 1121DEC      C 3361   4.640   5.823   4.697 -0.1853 -0.4972  0.2701
 1121DEC      C 3362   4.697   5.918   4.267  0.2006 -0.0114 -0.1104
 1121DEC      C 3363   4.938   5.905   3.942 -0.2648 -0.4461  0.2121
 1122DEC      C 3364   8.375   6.718   6.817 -0.0031  0.3223  0.0269
 1122DEC      C 3365   8.083   6.674   6.541  0.3105 -0.0547 -0.1065
 1122DEC      C 3366   7.891   6.467   6.253 -0.0418 -0.4160  0.3191
 1123DEC      C 3367   7.698   0.575   5.879 -0.4426 -0.2984 -0.0242
 1123DEC      C 3368   7.990   0.653   6.100 -0.0840 -0.1782  0.1355
 1123DEC      C 3369   8.463   0.747   6.026 -0.1205 -0.0097 -0.3405
 1124DEC      C 3370   5.025   2.072   3.683 -0.2987 -0.0112 -0.0127
 1124DEC      C 3371   5.468   1.995   3.622 -0.2781  0.1145  0.3142
 1124DEC      C 3372   5.834   2.148   3.457 -0.0227  0.0178  0.1319
 1125DEC      C 3373   2.948   5.327   4.889  0.1336 -0.1823 -0.0953
 1125DEC      C 3374   2.611   5.609   4.943 -0.1634 -0.2176  0.2555
 1125DEC      C 3375   2.212   5.635   4.657  0.0928  0.1671  0.0427
 1126DEC      C 3376   4.258   1.506   3.048  0.2467  0.1315 -0.0728
 1126DEC      C 3377   4.542   1.815   2.967 -0.0487  0.2115 -0.0868
 1126DEC      C 3378   4.867   2.055   3.132 -0.2022  0.1629 -0.0466
 1127DEC      C 3379   5.870   1.234   2.540 -0.1093  0.0178  0.0044
 1127DEC      C 3380   5.892   0.898   2.271  0.0750 -0.1470 -0.2635
 1127DEC      C 3381   5.736   0.879   1.873  0.1156 -0.0738  0.1695
 1128DEC      C 3382   6.437   2.342   7.220  0.1222  0.0399  0.2508
 1128DEC      C 3383   6.508   2.190   6.779 -0.0431 -0.2029 -0.0386
 1128DEC      C 3384   6.371   2.185   6.350 -0.1076 -0.0257  0.0169
 1129DEC      C 3385   6.465   1.497   0.186  0.0484  0.1175  0.2173
 1129DEC      C 3386   6.469   1.177  -0.216  0.0328 -0.2796 -0.2099
 1129DEC      C 3387   6.785   1.026  -0.480  0.2223 -0.2511 -0.5595
 1130DEC      C 3388   6.709   1.898   0.076 -0.3474 -0.1316  0.0713
 1130DEC      C 3389   7.019   1.733   0.268  0.1595 -0.0058 -0.1628
 1130DEC      C 3390   7.303   1.634   0.666  0.3604  0.2342 -0.1761
 1131DEC      C 3391   5.143   3.921   6.396  0.0957 -0.2096 -0.1841
 1131DEC      C 3392   5.438   4.149   6.735 -0.0791 -0.1939 -0.0543
 1131DEC      C 3393   5.554   4.461   7.096 -0.0601 -0.0959 -0.5562
 1132DEC      C 3394   1.642   5.089   5.818 -0.1935  0.1082 -0.0952
 1132DEC      C 3395   1.227   5.093   5.838 -0.2447 -0.0224  0.0724
 1132DEC      C 3396   0.848   5.275   5.914  0.0594 -0.1139 -0.1806
 1133DEC      C 3397   2.303   4.817   3.702  0.3247  0.1784  0.2009
 1133DEC      C 3398   2.323   4.639   3.362 -0.0640 -0.0290 -0.0631
 1133DEC      C 3399   2.628   4.466   3.235  0.0113 -0.4220  0.2479
 1134DEC      C 3400   2.211   4.130   2.232 -0.0202  0.1193  0.1954
 1134DEC      C 3401   2.541   4.314   1.907 -0.2652  0.4690  0.3260
 1134DEC      C 3402   2.519   4.389   1.498  0.0926 -0.0145  0.1509
 1135DEC      C 3403   3.576   4.037   3.674  0.1146  0.0989 -0.0490
 1135DEC      C 3404   3.321   4.164   3.254  0.3194  0.1584 -0.0595
 1135DEC      C 3405   2.894   4.011   3.123  0.0344  0.1194 -0.0729
 1136DEC      C 3406   1.752   2.402   4.927  0.0552 -0.0690 -0.4235
 1136DEC      C 3407   2.083   2.112   4.778  0.6149  0.3161 -0.3801
 1136DEC      C 3408   2.061   1.689   4.492 -0.1653  0.2079 -0.0034
 1137DEC      C 3409   3.274   4.897   5.256  0.1238  0.0055  0.1010
 1137DEC      C 3410   3.362   5.162   5.638 -0.2985  0.0308 -0.3137
 1137DEC      C 3411   3.268   5.553   5.821  0.3094 -0.2570  0.0080
 1138DEC      C 3412   1.274   7.045   1.353 -0.0358  0.3294 -0.1469
 1138DEC      C 3413   0.796   7.226   1.379 -0.0326 -0.0578 -0.0266
 1138DEC      C 3414   0.600   7.225   1.787  0.2539  0.0407 -0.1275
 1139DEC      C 3415   6.043   1.344   2.088  0.0294 -0.0172  0.0618
 1139DEC      C 3416   6.003   1.404   1.707 -0.0486 -0.2293 -0.1634
 1139DEC      C 3417   6.021   1.093   1.459 -0.0943 -0.2258  0.3184
 1140DEC      C 3418   5.524   7.152   6.136  0.0134 -0.1258 -0.2177
 1140DEC      C 3419   5.539   7.342   5.774 -0.1390  0.0661  0.1748
 1140DEC      C 3420   5.626   7.533   5.374  0.3549 -0.0596 -0.0897
 1141DEC      C 3421   3.238   3.825   2.810  0.1214 -0.3613  0.1913
 1141DEC      C 3422   3.176   3.400   3.041 -0.0920  0.1602  0.0061
 1141DEC      C 3423   3.097   3.026   3.011 -0.0487  0.1957 -0.3979
 1142DEC      C 3424   3.409   3.969   6.119 -0.2356  0.3550 -0.4987
 1142DEC      C 3425   3.689   4.366   6.206  0.1610 -0.0604  0.3642
 1142DEC      C 3426   3.766   4.818   6.453  0.0738  0.0167 -0.0697
 1143DEC      C 3427   3.216   3.365   2.563  0.0391  0.1196  0.3791
 1143DEC      C 3428   3.320   3.238   2.202 -0.0289 -0.0140  0.2405
 1143DEC      C 3429   3.353   3.307   1.751  0.1137  0.0161  0.1182
 1144DEC      C 3430   3.260   2.229   6.370 -0.0966 -0.1246 -0.2538
 1144DEC      C 3431   3.013   2.244   6.678  0.0519 -0.1896  0.0645
 1144DEC      C 3432   3.091   2.441   7.127  0.1534  0.0988  0.1367
 1145DEC      C 3433   2.818   2.268   1.340  0.0558  0.0188 -0.1759
 1145DEC      C 3434   2.677   2.005   1.666 -0.2617 -0.0314 -0.0390
 1145DEC      C 3435   2.604   1.630   1.904 -0.1890 -0.0763 -0.0835
 1146DEC      C 3436   2.873   6.359   6.323  0.4993 -0.0052 -0.0704
 1146DEC      C 3437   2.803   6.184   5.898  0.1582  0.1950  0.1131
 1146DEC      C 3438   2.627   6.193   5.496  0.0090  0.2858  0.0154
 1147DEC      C 3439   2.309   3.688   3.947 -0.2080 -0.1564 -0.3162
 1147DEC      C 3440   2.584   3.371   4.114  0.1676 -0.0380 -0.0073
 1147DEC      C 3441   3.071   3.343   4.109 -0.3214  0.1482 -0.2218
 1148DEC      C 3442   4.628   0.981   4.585 -0.3145 -0.2819 -0.1533
 1148DEC      C 3443   4.619   0.652   4.829  0.2570  0.0428  0.0321
 1148DEC      C 3444   4.509   0.245   4.928 -0.1930  0.1334  0.1368
 1149DEC      C 3445   3.315   2.798   0.246  0.0264  0.0670  0.1032
 1149DEC      C 3446   3.036   2.934   0.584  0.4861  0.1341 -0.0088
 1149DEC      C 3447   2.756   3.094   0.920 -0.0717  0.2719 -0.0830
 1150DEC      C 3448   5.533   1.150   4.154 -0.0424 -0.2446  0.4273
 1150DEC      C 3449   5.256   1.041   3.941  0.1537 -0.4123 -0.0357
 1150DEC      C 3450   5.051   1.112   3.628  0.1206  0.0484  0.1666
 1151DEC      C 3451   5.605   2.817   2.047 -0.2376 -0.0583  0.0561
 1151DEC      C 3452   5.852   3.149   1.854  0.1002  0.0896 -0.2675
 1151DEC      C 3453   6.001   3.480   1.697 -0.2721  0.4804 -0.3497
 1152DEC      C 3454   5.259   0.561   2.041  0.3422 -0.1777 -0.2753
 1152DEC      C 3455   5.621   0.435   2.110  0.1767 -0.0000 -0.0131
 1152DEC      C 3456   5.904   0.469   1.718 -0.3752  0.0813  0.0022
 1153DEC      C 3457   1.711   0.394   5.013  0.0016 -0.0413  0.0075
 1153DEC      C 3458   1.609   0.010   5.282 -0.0944  0.2181 -0.1612
 1153DEC      C 3459   1.246   0.119   5.482 -0.1894  0.4952 -0.2826
 1154DEC      C 3460   6.219   2.246   2.333  0.2719 -0.0716  0.1922
 1154DEC      C 3461   6.681   2.143   2.555  0.1032  0.0548  0.2824
 1154DEC      C 3462   7.110   1.983   2.841  0.2418  0.0955 -0.0633
 1155DEC      C 3463   5.069   3.911   2.717  0.2645  0.3580 -0.0035
 1155DEC      C 3464   4.700   4.091   3.026 -0.2790  0.0782 -0.2283
 1155DEC      C 3465   4.291   4.068   3.018 -0.3060 -0.0779  0.1421
 1156DEC      C 3466   1.605   1.372   3.113  0.0261 -0.1450 -0.0618
 1156DEC      C 3467   1.261   1.269   3.197  0.0643 -0.1049  0.0048
 1156DEC      C 3468   0.774   1.237   3.248 -0.1428 -0.0195 -0.1095
 1157DEC      C 3469   1.480   1.528   2.166 -0.1011  0.0807  0.0410
 1157DEC      C 3470   1.419   1.881   2.391 -0.1803  0.0978  0.0328
 1157DEC      C 3471   1.352   2.361   2.607 -0.0576 -0.2447  0.3694
 1158DEC      C 3472   0.789   6.884   2.186  0.2790 -0.2533  0.2001
 1158DEC      C 3473   0.870   7.072   2.587  0.2629 -0.0333  0.1877
 1158DEC      C 3474   1.068   6.780   2.935 -0.3344  0.2967 -0.2758
 1159DEC      C 3475   2.731   1.141   1.630  0.1171 -0.1138 -0.1557
 1159DEC      C 3476   2.956   0.842   1.918  0.0832 -0.0167 -0.2318
 1159DEC      C 3477   3.017   0.898   2.372  0.0957 -0.4369  0.1577
 1160DEC      C 3478   7.946   3.373   0.913 -0.1283  0.2468  0.2343
 1160DEC      C 3479   7.793   3.776   0.788  0.2382 -0.0330  0.1309
 1160DEC      C 3480   7.855   4.160   0.712  0.2257 -0.2329 -0.0998
 1161DEC      C 3481   2.414   5.627   2.091  0.0198  0.2278 -0.0597
 1161DEC      C 3482   2.761   5.863   2.129  0.1428 -0.3987  0.2469
 1161DEC      C 3483   3.122   5.937   2.308  0.0717  0.1427 -0.0973
 1162DEC      C 3484   2.171   2.609   0.234 -0.2021  0.0854  0.0998
 1162DEC      C 3485   1.982   2.520   0.607  0.0699  0.0718 -0.0800
 1162DEC      C 3486   1.654   2.389   0.968 -0.0214 -0.0633  0.1076
 1163DEC      C 3487   7.440   3.187   1.004 -0.0651 -0.0452 -0.0035
 1163DEC      C 3488   7.086   3.210   1.313  0.1317 -0.0711 -0.0064
 1163DEC      C 3489   6.721   3.552   1.253  0.2033 -0.1684  0.0368
 1164DEC      C 3490   3.229   4.609   4.359 -0.1312 -0.1180 -0.1478
 1164DEC      C 3491   2.771   4.602   4.130  0.0635  0.0184 -0.3203
 1164DEC      C 3492   2.450   4.532   4.139  0.3528 -0.2067  0.1183
 1165DEC      C 3493   0.091   3.779   0.750 -0.0440  0.1399 -0.1265
 1165DEC      C 3494   0.297   4.193   0.705  0.1474  0.0944  0.2515
 1165DEC      C 3495   0.578   4.465   0.494  0.1139 -0.2684 -0.2708
 1166DEC      C 3496   1.917   5.926   5.805  0.1805 -0.0239 -0.1741
 1166DEC      C 3497   2.315   5.880   5.763 -0.1493  0.3254 -0.1371
 1166DEC      C 3498   2.659   5.703   5.476 -0.0012  0.1772 -0.0551
 1167DEC      C 3499   6.458   0.721   6.147 -0.3577  0.1315  0.4166
 1167DEC      C 3500   6.717   0.618   6.426  0.2880  0.1635 -0.0119
 1167DEC      C 3501   6.721   0.303   6.619 -0.3669  0.1432  0.1388
 1168DEC      C 3502   3.430   1.489   3.990 -0.4668  0.1004  0.1928
 1168DEC      C 3503   3.498   1.802   4.220 -0.0031  0.2432 -0.0506
 1168DEC      C 3504   3.403   2.195   4.445 -0.0304  0.0108  0.4315
 1169DEC      C 3505   0.269   6.734   5.848 -0.0900 -0.1214 -0.1295
 1169DEC      C 3506   0.120   6.266   5.817  0.1340 -0.0235  0.5121
 1169DEC      C 3507  -0.060   6.123   5.453 -0.0632  0.1526  0.2858
 1170DEC      C 3508   4.745   1.479   0.567 -0.2026 -0.1030  0.1876
 1170DEC      C 3509   4.478   1.632   0.874  0.1096  0.0631  0.0929
 1170DEC      C 3510   4.075   1.538   1.165 -0.1380 -0.0483  0.0637
 1171DEC      C 3511   5.154   5.967   6.703  0.0601  0.2345  0.0128
 1171DEC      C 3512   5.160   6.385   6.617  0.0434  0.2373  0.1024
 1171DEC      C 3513   5.270   6.813   6.715 -0.2357  0.0778  0.1298
 1172DEC      C 3514   0.343   1.555   5.826 -0.0129  0.0272 -0.2691
 1172DEC      C 3515   0.023   1.891   5.979 -0.0973  0.0286  0.1614
 1172DEC      C 3516  -0.033   2.407   6.001 -0.1395 -0.0944  0.2862
 1173DEC      C 3517   5.098   2.357   1.497  0.1912  0.4456 -0.1021
 1173DEC      C 3518   5.542   2.295   1.641 -0.0775 -0.0689  0.3500
 1173DEC      C 3519   5.748   2.761   1.493  0.0347 -0.2029  0.3193
 1174DEC      C 3520   4.320   1.230   5.253  0.1609 -0.0334 -0.1832
 1174DEC      C 3521   4.497   1.206   5.582 -0.2031  0.1054 -0.1910
 1174DEC      C 3522   4.482   1.200   6.102 -0.0658 -0.1466  0.3650
 1175DEC      C 3523   3.080   4.262   2.606  0.3360  0.1838 -0.1521
 1175DEC      C 3524   3.022   4.511   2.939 -0.1593  0.0768  0.0248
 1175DEC      C 3525   3.000   4.940   2.980  0.3806 -0.0875  0.2072
 1176DEC      C 3526   6.116   2.588   3.663 -0.0118 -0.0430 -0.3802
 1176DEC      C 3527   6.083   3.006   3.874  0.0449  0.0215 -0.0368
 1176DEC      C 3528   6.377   3.349   3.746 -0.0934 -0.4861  0.0086
 1177DEC      C 3529   7.354   2.018   1.443 -0.0476  0.1273  0.3631
 1177DEC      C 3530   6.944   1.960   1.659 -0.0825  0.2383 -0.0209
 1177DEC      C 3531   6.465   1.682   1.585 -0.2125 -0.1581 -0.2195
 1178DEC      C 3532   7.371   4.416   5.992  0.0403  0.0198 -0.3012
 1178DEC      C 3533   7.455   4.827   6.112 -0.2041  0.3153 -0.1802
 1178DEC      C 3534   7.338   5.166   6.348 -0.1734 -0.2890  0.3995
 1179DEC      C 3535   6.512   5.180   2.389  0.0529  0.0811  0.2222
 1179DEC      C 3536   6.674   4.844   2.692 -0.0120 -0.1662 -0.3057
 1179DEC      C 3537   6.869   4.673   3.000 -0.4293 -0.0928  0.0269
 1180DEC      C 3538   7.240   0.765   6.672  0.2540  0.1874 -0.0368
 1180DEC      C 3539   7.257   1.118   7.019 -0.1128  0.2183 -0.1632
 1180DEC      C 3540   7.519   1.503   7.202  0.2138  0.0177  0.1111
 1181DEC      C 3541   5.438   4.771   3.346 -0.2330 -0.1941  0.0948
 1181DEC      C 3542   5.127   4.797   3.717  0.1433  0.1943  0.1923
 1181DEC      C 3543   4.866   4.986   4.064 -0.0827 -0.0804  0.0476
 1182DEC      C 3544   4.068   5.795   6.920  0.1691 -0.0425 -0.1594
 1182DEC      C 3545   3.883   5.494   7.208  0.1799 -0.6219 -0.1038
 1182DEC      C 3546   3.960   5.259   7.642 -0.0462 -0.0902 -0.1875
 1183DEC      C 3547   8.011   2.713   5.532  0.0103  0.1410  0.1855
 1183DEC      C 3548   8.032   3.210   5.566 -0.0011 -0.0068 -0.0695
 1183DEC      C 3549   7.787   3.467   5.402 -0.1883 -0.0672 -0.1587
 1184DEC      C 3550   5.241   2.022   0.309 -0.2339 -0.0556  0.1227
 1184DEC      C 3551   5.214   2.365   0.602 -0.5509 -0.1556 -0.1654
 1184DEC      C 3552   5.075   2.792   0.678 -0.0126  0.0492 -0.0812
 1185DEC      C 3553   4.775   2.528   3.458 -0.3000 -0.2112 -0.2814
 1185DEC      C 3554   5.283   2.462   3.327  0.1859 -0.0061 -0.2015
 1185DEC      C 3555   5.650   2.682   3.405 -0.1884  0.1045 -0.2152
 1186DEC      C 3556   2.277   7.134   0.173 -0.0268  0.1028  0.0796
 1186DEC      C 3557   2.059   7.287   0.541 -0.1678 -0.3596 -0.3243
 1186DEC      C 3558   2.143   7.037   1.035  0.3441  0.1413 -0.3076
 1187DEC      C 3559   5.463   2.416   6.642  0.3443 -0.0660  0.0870
 1187DEC      C 3560   5.288   2.028   6.530 -0.1858  0.4090 -0.2469
 1187DEC      C 3561   5.084   1.603   6.431 -0.4622 -0.1127 -0.2292
 1188DEC      C 3562   6.150   1.003   2.986 -0.1376  0.3897  0.0043
 1188DEC      C 3563   5.939   1.036   3.359 -0.1495 -0.1275  0.0687
 1188DEC      C 3564   5.577   1.309   3.577  0.0999 -0.1306 -0.4193
 1189DEC      C 3565   3.581   6.165   3.937  0.1425  0.0809  0.0901
 1189DEC      C 3566   3.440   5.706   3.839 -0.1736 -0.2920 -0.0546
 1189DEC      C 3567   3.699   5.320   3.753  0.5384  0.1263  0.1649
 1190DEC      C 3568   0.770   5.407   7.257  0.0686 -0.1260  0.2203
 1190DEC      C 3569   0.515   5.810   7.300 -0.0586 -0.3053  0.0048
 1190DEC      C 3570   0.222   6.175   7.406  0.2556 -0.1079  0.1341
 1191DEC      C 3571   5.243   2.672   0.179  0.3066 -0.1803 -0.1985
 1191DEC      C 3572   5.532   2.786   0.468 -0.0981 -0.0099 -0.2131
 1191DEC      C 3573   5.692   2.879   1.006  0.5166  0.1652 -0.1494
 1192DEC      C 3574   6.154   6.949   4.680 -0.0254 -0.0668 -0.2282
 1192DEC      C 3575   6.539   6.701   4.579 -0.0773 -0.0737  0.1791
 1192DEC      C 3576   6.595   6.310   4.603  0.0941 -0.0238 -0.1204
 1193DEC      C 3577   1.197   3.021   2.232  0.1146  0.0010 -0.0965
 1193DEC      C 3578   1.626   3.017   2.342  0.1447 -0.0106  0.1383
 1193DEC      C 3579   2.077   2.780   2.304 -0.0087 -0.3208  0.1290
 1194DEC      C 3580   0.821   6.875   4.826 -0.1167  0.2224  0.0055
 1194DEC      C 3581   0.963   6.488   4.695  0.0678 -0.0919  0.1628
 1194DEC      C 3582   1.049   6.269   4.331 -0.3297 -0.1164 -0.0341
 1195DEC      C 3583   7.596   6.765   2.618 -0.0781 -0.2592  0.0483
 1195DEC      C 3584   7.472   6.827   2.106 -0.1463 -0.0153  0.0056
 1195DEC      C 3585   7.542   7.105   1.759  0.1385 -0.2246  0.1285
 1196DEC      C 3586   1.010   5.835   4.586 -0.2131  0.0172  0.1926
 1196DEC      C 3587   1.366   6.093   4.726  0.5343 -0.0140 -0.1718
 1196DEC      C 3588   1.576   6.358   4.937 -0.2432 -0.1239 -0.2028
 1197DEC      C 3589   6.207   3.111   6.410 -0.0522  0.3044 -0.1144
 1197DEC      C 3590   5.906   3.380   6.266  0.2207  0.0619  0.0943
 1197DEC      C 3591   5.942   3.810   6.310 -0.0088 -0.2636  0.1891
 1198DEC      C 3592   6.139   7.255   2.034 -0.2188  0.0085 -0.0737
 1198DEC      C 3593   5.744   7.220   2.289 -0.0184 -0.2656 -0.1584
 1198DEC      C 3594   5.536   7.519   2.556 -0.3637 -0.0230  0.1884
 1199DEC      C 3595   1.594   5.890   1.599  0.0204 -0.0968  0.1334
 1199DEC      C 3596   1.438   5.543   1.490  0.2309 -0.0752 -0.2476
 1199DEC      C 3597   1.306   5.161   1.307  0.1955 -0.1168 -0.0175
 1200DEC      C 3598   7.406   2.604   0.463 -0.2370  0.0130 -0.5643
 1200DEC      C 3599   7.653   2.289   0.225  0.3940 -0.0991  0.0334
 1200DEC      C 3600   7.878   2.009  -0.063  0.2278  0.1165 -0.0884
 1201DEC      C 3601   0.049   1.805   1.216 -0.3089 -0.1925  0.0173
 1201DEC      C 3602   0.173   1.557   0.783  0.1365 -0.2310  0.0870
 1201DEC      C 3603   0.075   1.280   0.469  0.0970 -0.2467 -0.2657
 1202DEC      C 3604   5.566   2.752   4.328  0.0402 -0.2555  0.0532
 1202DEC      C 3605   5.898   2.979   4.346 -0.1029  0.0430 -0.0965
 1202DEC      C 3606   6.215   3.141   4.448  0.1370  0.2974  0.1019
 1203DEC      C 3607   3.744   1.434   4.461 -0.2575 -0.1434  0.0344
 1203DEC      C 3608   3.551   1.379   4.867 -0.2688 -0.0709 -0.0968
 1203DEC      C 3609   3.402   1.398   5.325 -0.0882 -0.3490  0.0406
 1204DEC      C 3610   4.849   0.863   1.705 -0.0122 -0.2192 -0.1763
 1204DEC      C 3611   5.136   1.043   1.828 -0.0376  0.0060  0.0381
 1204DEC      C 3612   5.462   1.180   2.126  0.0699 -0.0298  0.4255
 1205DEC      C 3613   4.680   0.151   3.601  0.3085 -0.0716 -0.2842
 1205DEC      C 3614   5.094  -0.105   3.672 -0.1306  0.1382  0.1096
 1205DEC      C 3615   5.485  -0.026   3.734  0.0301  0.0072  0.4522
 1206DEC      C 3616   1.114   0.273   6.687  0.2411 -0.0224 -0.1026
 1206DEC      C 3617   1.041   0.545   6.356 -0.0255 -0.2206  0.0209
 1206DEC      C 3618   1.234   0.383   5.993  0.0296  0.2140  0.2514
 1207DEC      C 3619   4.492   4.281   2.582  0.0585  0.1543  0.3266
 1207DEC      C 3620   4.612   4.562   2.356  0.0632 -0.2277  0.0929
 1207DEC      C 3621   4.439   4.449   1.978 -0.0072 -0.0735 -0.1734
 1208DEC      C 3622   7.837   4.482   5.904 -0.0663 -0.1170  0.2730
 1208DEC      C 3623   7.878   4.812   5.597 -0.0649  0.2706 -0.1463
 1208DEC      C 3624   7.654   5.153   5.481  0.1282  0.4307 -0.2498
 1209DEC      C 3625   3.171   4.463   6.993  0.1942  0.4337  0.1111
 1209DEC      C 3626   3.379   4.803   6.826 -0.2166 -0.0649 -0.0025
 1209DEC      C 3627   3.389   5.196   6.518 -0.3412  0.0659 -0.0545
 1210DEC      C 3628   3.607   4.359   2.119  0.0987 -0.1686 -0.2003
 1210DEC      C 3629   3.610   4.147   2.545  0.0953 -0.0023  0.2905
 1210DEC      C 3630   3.863   3.804   2.764  0.3091 -0.2333  0.1283
 1211DEC      C 3631   4.975   6.640   0.886 -0.0589 -0.2688  0.0427
 1211DEC      C 3632   4.520   6.753   0.866  0.0642 -0.1161  0.2272
 1211DEC      C 3633   4.143   6.978   0.658 -0.1468 -0.2011  0.0172
 1212DEC      C 3634   0.186   4.513   4.053  0.0558  0.0672  0.1134
 1212DEC      C 3635   0.487   4.182   4.051  0.2606 -0.1097  0.1151
 1212DEC      C 3636   0.966   4.232   4.067 -0.0222  0.2226 -0.0510
 1213DEC      C 3637   5.616   3.868   2.370  0.0454  0.0866 -0.1226
 1213DEC      C 3638   5.491   4.073   2.008  0.0762  0.1258 -0.1200
 1213DEC      C 3639   5.709   4.305   1.756 -0.0519 -0.1179  0.2512
 1214DEC      C 3640   0.155   3.056   2.968 -0.1603  0.0072  0.0652
 1214DEC      C 3641   0.419   3.267   2.825 -0.0742 -0.2306  0.0621
 1214DEC      C 3642   0.719   3.343   2.561  0.1899 -0.0394 -0.1426
 1215DEC      C 3643   3.596   7.211   3.371  0.1313 -0.0437  0.0520
 1215DEC      C 3644   3.883   6.982   3.812  0.2693 -0.1091  0.0973
 1215DEC      C 3645   3.985   7.130   4.196 -0.0342 -0.1159 -0.2594
 1216DEC      C 3646   3.563   3.328   0.886  0.4075  0.0915  0.2758
 1216DEC      C 3647   3.254   3.378   1.223  0.1017 -0.2565 -0.1592
 1216DEC      C 3648   3.083   3.688   1.514 -0.2028  0.0711  0.0321
 1217DEC      C 3649   4.085   2.592   2.216 -0.1059 -0.0498 -0.2385
 1217DEC      C 3650   4.399   2.924   2.000 -0.0525  0.3255 -0.0685
 1217DEC      C 3651   4.804   3.139   1.718  0.2057  0.0556 -0.0801
 1218DEC      C 3652   3.615   6.330   5.141 -0.3930 -0.1535 -0.3099
 1218DEC      C 3653   3.649   6.429   4.837  0.0286 -0.1764 -0.2088
 1218DEC      C 3654   3.519   6.675   4.548  0.0212 -0.0206  0.2102
 1219DEC      C 3655   4.892   1.933   1.069  0.0151  0.1516  0.0191
 1219DEC      C 3656   5.316   2.151   1.112 -0.1299  0.1494 -0.1120
 1219DEC      C 3657   5.695   2.388   1.131  0.0194  0.1777  0.1383
 1220DEC      C 3658   3.017   5.340   3.186 -0.2959 -0.2678 -0.0022
 1220DEC      C 3659   3.415   5.495   3.374 -0.0546 -0.0127  0.0705
 1220DEC      C 3660   3.828   5.682   3.288 -0.2069 -0.1050 -0.0770
 1221DEC      C 3661   6.835   1.835   3.807 -0.1737 -0.3318  0.1277
 1221DEC      C 3662   6.366   1.689   3.832  0.3931  0.0670  0.0120
 1221DEC      C 3663   6.000   1.511   4.151 -0.2069  0.1714 -0.0229
 1222DEC      C 3664   6.766   3.647   3.444  0.5611 -0.1428  0.0883
 1222DEC      C 3665   6.304   3.479   3.265  0.0401 -0.2006 -0.1690
 1222DEC      C 3666   5.949   3.407   2.986  0.1556  0.1734  0.0866
 1223DEC      C 3667   7.158   6.871   7.119  0.1586  0.0697  0.3811
 1223DEC      C 3668   6.849   6.612   7.131  0.1698  0.0680 -0.1014
 1223DEC      C 3669   6.616   6.230   7.172  0.3860 -0.1670  0.1730
 1224DEC      C 3670   1.064   4.521   0.335 -0.0047 -0.4084  0.1225
 1224DEC      C 3671   1.054   4.831   0.717  0.0677  0.1510  0.1813
 1224DEC      C 3672   1.148   5.275   0.775 -0.0450  0.0120  0.2220
 1225DEC      C 3673   2.260   6.725   5.040  0.0368  0.2615  0.2344
 1225DEC      C 3674   2.168   6.427   5.323  0.0457  0.1495 -0.2027
 1225DEC      C 3675   2.085   6.478   5.634  0.0126  0.0524 -0.1184
 1226DEC      C 3676   0.846   2.762   0.077 -0.0498 -0.0619 -0.0826
 1226DEC      C 3677   1.277   2.846   0.121 -0.1925 -0.0351 -0.1320
 1226DEC      C 3678   1.737   2.992   0.289 -0.4077  0.0625 -0.1708
 1227DEC      C 3679   4.813   2.446   0.956 -0.0882 -0.1533 -0.0522
 1227DEC      C 3680   4.392   2.241   0.815  0.0730 -0.1981 -0.0910
 1227DEC      C 3681   4.086   2.036   1.045 -0.0242 -0.1526 -0.1178
 1228DEC      C 3682   1.065   3.683   4.816 -0.1798 -0.1286  0.2266
 1228DEC      C 3683   1.464   3.741   4.900  0.2405 -0.1751 -0.3527
 1228DEC      C 3684   1.786   3.464   5.038 -0.0234  0.0663 -0.1647
 1229DEC      C 3685   7.407   2.645   4.098  0.0725 -0.1777 -0.3565
 1229DEC      C 3686   7.392   2.490   4.473 -0.1877 -0.0572  0.1079
 1229DEC      C 3687   7.313   2.246   4.847 -0.0312  0.3445  0.1405
 1230DEC      C 3688   5.724   6.190   0.680 -0.0171 -0.0694 -0.0165
 1230DEC      C 3689   5.309   6.354   0.525 -0.4396 -0.0854  0.0002
 1230DEC      C 3690   5.024   6.127   0.343 -0.1309 -0.2527  0.2080
 1231DEC      C 3691   3.349   5.699   1.396  0.3649  0.1549  0.0641
 1231DEC      C 3692   3.478   5.556   0.959  0.0769 -0.2691 -0.2919
 1231DEC      C 3693   3.734   5.698   0.631  0.0708  0.3212  0.1067
 1232DEC      C 3694   7.747   0.035   5.981 -0.3423  0.3720 -0.0494
 1232DEC      C 3695   7.416   0.078   6.296 -0.0737 -0.1077 -0.0474
 1232DEC      C 3696   7.223   0.204   6.661  0.1725  0.1624  0.0386
 1233DEC      C 3697   4.995   1.369   2.190  0.1337  0.0258  0.0449
 1233DEC      C 3698   4.655   1.438   2.475  0.0044 -0.0982  0.2116
 1233DEC      C 3699   4.384   1.106   2.766  0.1490  0.0961  0.0209
 1234DEC      C 3700   5.091   5.653   2.999 -0.1277  0.0408  0.0951
 1234DEC      C 3701   4.734   5.635   2.774 -0.1808 -0.2100  0.1091
 1234DEC      C 3702   4.396   5.903   2.751  0.1278  0.0189  0.3131
 1235DEC      C 3703   3.809   3.411   1.428  0.2898 -0.0948 -0.1223
 1235DEC      C 3704   3.724   3.439   2.003 -0.1244  0.0683  0.0630
 1235DEC      C 3705   3.761   3.371   2.415  0.0910 -0.1374  0.0999
 1236DEC      C 3706   6.441   4.326   0.846  0.2780  0.0498  0.0033
 1236DEC      C 3707   6.233   4.718   0.926 -0.0485  0.0462 -0.3321
 1236DEC      C 3708   6.361   5.094   1.154 -0.0800  0.0117  0.2151
 1237DEC      C 3709   2.053   3.680   3.338  0.2131  0.0555  0.4793
 1237DEC      C 3710   1.775   3.346   3.243 -0.2380 -0.1315 -0.0011
 1237DEC      C 3711   1.363   3.014   3.201 -0.0320  0.0512  0.1894
 1238DEC      C 3712   2.141   6.392   0.859  0.1641 -0.0348  0.0646
 1238DEC      C 3713   2.451   6.603   1.070  0.0396  0.1063  0.0155
 1238DEC      C 3714   2.526   6.534   1.585  0.2065 -0.0280  0.1166
 1239DEC      C 3715   6.095   3.223   2.516 -0.1894  0.1270  0.2401
 1239DEC      C 3716   5.790   3.453   2.241  0.3339 -0.4775 -0.1173
 1239DEC      C 3717   5.557   3.606   1.809  0.3153 -0.0046 -0.1213
 1240DEC      C 3718   3.194   4.060   5.086 -0.0504 -0.2281  0.0123
 1240DEC      C 3719   3.376   3.735   5.261 -0.0943  0.4367  0.0133
 1240DEC      C 3720   3.507   3.317   5.487  0.0111 -0.0918  0.2878
 1241DEC      C 3721   3.087   1.002   5.435  0.0525 -0.0994 -0.1241
 1241DEC      C 3722   2.651   1.171   5.369 -0.1337  0.1750 -0.2723
 1241DEC      C 3723   2.393   1.370   5.571 -0.1130 -0.1136 -0.1107
 1242DEC      C 3724   6.028   5.461   0.363  0.1198  0.2818  0.2245
 1242DEC      C 3725   6.145   4.919   0.406  0.0243  0.0712 -0.2058
 1242DEC      C 3726   6.134   4.423   0.353 -0.1690  0.2787  0.1348
 1243DEC      C 3727   7.858   7.229   6.514 -0.1180 -0.1091  0.1652
 1243DEC      C 3728   8.289   7.176   6.540 -0.3454 -0.1168  0.1072
 1243DEC      C 3729   8.778   6.969   6.502  0.2606 -0.2681 -0.0787
 1244DEC      C 3730   8.257   4.352   0.472 -0.0118 -0.0090 -0.2356
 1244DEC      C 3731   8.326   4.370  -0.004 -0.1448  0.0974  0.2313
 1244DEC      C 3732   8.284   3.993  -0.377 -0.2085  0.0876  0.0347
 1245DEC      C 3733   5.595   0.380   0.206  0.0166  0.0437 -0.0484
 1245DEC      C 3734   5.640   0.764   0.094  0.0043  0.1709 -0.0962
 1245DEC      C 3735   5.640   1.169   0.375 -0.1546  0.0381  0.0506
 1246DEC      C 3736   5.843   1.631   6.829  0.0896 -0.0272 -0.2360
 1246DEC      C 3737   5.364   1.619   6.892 -0.2421  0.2110 -0.0026
 1246DEC      C 3738   5.271   2.014   7.114  0.1042  0.1302 -0.0027
 1247DEC      C 3739   5.137   1.717   4.589 -0.0591  0.1706 -0.3264
 1247DEC      C 3740   5.208   2.217   4.637  0.2665  0.1154  0.1099
 1247DEC      C 3741   5.331   2.592   4.695 -0.2570 -0.0858 -0.0081
 1248DEC      C 3742   0.111   3.794   1.834 -0.1527 -0.0472  0.0258
 1248DEC      C 3743   0.364   3.986   2.112  0.0267 -0.1314 -0.0351
 1248DEC      C 3744   0.699   3.808   2.360  0.0305  0.2338  0.0435
 1249DEC      C 3745   6.414   4.005   3.175 -0.0936  0.1258 -0.2401
 1249DEC      C 3746   6.085   4.193   3.072  0.0998 -0.0559 -0.0394
 1249DEC      C 3747   5.884   4.511   2.984 -0.1875 -0.1763 -0.0614
 1250DEC      C 3748   4.261   1.185   4.280  0.0770  0.0067  0.1364
 1250DEC      C 3749   4.557   1.124   3.951 -0.0262  0.1209  0.1517
 1250DEC      C 3750   4.470   0.989   3.560  0.0405  0.0606 -0.1572
 1251DEC      C 3751   0.526   6.947   3.052 -0.0584  0.1574 -0.1986
 1251DEC      C 3752   0.125   7.164   2.921  0.1167  0.0237 -0.2994
 1251DEC      C 3753  -0.379   7.251   2.693 -0.0531  0.0926 -0.0964
 1252DEC      C 3754   5.724   2.308   4.494 -0.0983  0.2925  0.2844
 1252DEC      C 3755   5.626   1.883   4.467  0.2949 -0.0592 -0.1064
 1252DEC      C 3756   5.595   1.472   4.525 -0.2012  0.0810  0.1724
 1253DEC      C 3757   4.744   0.801   6.114 -0.1064  0.1771  0.0337
 1253DEC      C 3758   4.595   0.447   6.334  0.1786  0.1445 -0.1576
 1253DEC      C 3759   4.227   0.317   6.674 -0.0329 -0.1746  0.0058
 1254DEC      C 3760   2.855   5.414   4.344 -0.2731 -0.0144  0.0819
 1254DEC      C 3761   2.492   5.249   4.594  0.1423 -0.2603 -0.0953
 1254DEC      C 3762   2.308   5.066   4.933 -0.2905  0.1299 -0.0398
 1255DEC      C 3763   0.110   6.447   2.353  0.0978 -0.0941  0.2351
 1255DEC      C 3764  -0.119   6.723   2.577  0.1337  0.1431 -0.1846
 1255DEC      C 3765  -0.161   6.724   2.974  0.0016  0.2225 -0.0503
 1256DEC      C 3766   4.366   2.865   3.832  0.1706  0.3260 -0.0021
 1256DEC      C 3767   4.106   2.449   3.941 -0.0919  0.3895 -0.1611
 1256DEC      C 3768   3.875   2.076   4.244 -0.1371 -0.2953  0.2299
 1257DEC      C 3769   5.811   2.764   4.796 -0.0702 -0.3130  0.1466
 1257DEC      C 3770   6.071   2.626   4.794 -0.0573 -0.1619  0.6212
 1257DEC      C 3771   6.411   2.366   4.471 -0.0999 -0.2653 -0.1528
 1258DEC      C 3772   8.139   2.494   3.529 -0.1103  0.0227 -0.0293
 1258DEC      C 3773   8.018   2.445   3.084 -0.0829 -0.1447 -0.1271
 1258DEC      C 3774   8.166   2.126   2.909 -0.1522 -0.2222 -0.0145
 1259DEC      C 3775   2.797   0.756   5.096  0.0087 -0.1272 -0.0615
 1259DEC      C 3776   2.919   0.564   5.546 -0.0100 -0.2478 -0.1892
 1259DEC      C 3777   3.265   0.364   5.756  0.0104 -0.0373 -0.3295
 1260DEC      C 3778   6.432   2.209   3.893 -0.0347  0.2143 -0.0409
 1260DEC      C 3779   6.589   2.241   3.548 -0.0723 -0.1385  0.4012
 1260DEC      C 3780   6.692   2.144   3.136 -0.0729 -0.0607 -0.2050
 1261DEC      C 3781   7.686   0.474   6.590  0.1224 -0.0318 -0.0973
 1261DEC      C 3782   7.369   0.650   6.206  0.0038  0.0618 -0.0984
 1261DEC      C 3783   7.067   0.344   6.044  0.0193  0.0269  0.0479
 1262DEC      C 3784   3.956   0.112   3.043 -0.0481 -0.0021 -0.2960
 1262DEC      C 3785   4.430   0.123   3.104  0.1903  0.0146 -0.0684
 1262DEC      C 3786   4.885   0.332   3.121 -0.0018 -0.2129  0.5048
 1263DEC      C 3787   4.148   4.532   1.179  0.0443 -0.1764 -0.2144
 1263DEC      C 3788   3.828   4.788   1.344  0.1839  0.1183 -0.1549
 1263DEC      C 3789   3.594   5.117   1.261  0.2536 -0.4178 -0.1602
 1264DEC      C 3790   6.659   1.548   3.380  0.0570 -0.1098 -0.2066
 1264DEC      C 3791   6.768   1.268   3.146  0.0426  0.2859  0.1502
 1264DEC      C 3792   7.148   1.090   3.106  0.1029  0.0399  0.1587
 1265DEC      C 3793   4.203   3.281   1.703 -0.1078 -0.1991  0.1693
 1265DEC      C 3794   4.180   2.848   1.483  0.0811 -0.1115  0.3025
 1265DEC      C 3795   3.901   2.449   1.210 -0.0820  0.1591 -0.0910
 1266DEC      C 3796   7.814   4.203   2.169  0.0719 -0.3603  0.2135
 1266DEC      C 3797   7.244   4.244   2.040 -0.0816  0.1207 -0.0327
 1266DEC      C 3798   6.962   4.003   1.805 -0.2488 -0.2010  0.3619
 1267DEC      C 3799   3.534   4.541   3.796  0.0965 -0.1475  0.4847
 1267DEC      C 3800   3.559   4.277   4.102 -0.1529  0.0725 -0.0105
 1267DEC      C 3801   3.435   3.836   4.057  0.1933 -0.0403  0.0046
 1268DEC      C 3802   7.964   5.418   2.919 -0.0558  0.2034  0.0432
 1268DEC      C 3803   7.903   5.760   3.234  0.2887 -0.0996  0.0578
 1268DEC      C 3804   7.511   5.963   3.412 -0.3990  0.0746  0.1417
 1269DEC      C 3805   2.269   4.428   6.493  0.0292 -0.4290  0.1452
 1269DEC      C 3806   2.745   4.416   6.494  0.0679  0.0502 -0.0425
 1269DEC      C 3807   2.946   4.778   6.570 -0.4692  0.1564 -0.1553
 1270DEC      C 3808   2.584   4.171   3.702 -0.1239  0.0567 -0.4403
 1270DEC      C 3809   2.178   4.175   3.491  0.1608 -0.1810  0.1741
 1270DEC      C 3810   1.715   4.035   3.156  0.2426 -0.1762  0.0687
 1271DEC      C 3811   2.183   2.891   1.679 -0.3383  0.0608  0.0391
 1271DEC      C 3812   1.842   2.911   1.892 -0.1195  0.0037  0.0859
 1271DEC      C 3813   1.553   2.544   2.150  0.4243 -0.1565  0.0310
 1272DEC      C 3814   4.290   4.931   3.261 -0.1898 -0.1279 -0.2342
 1272DEC      C 3815   4.736   4.711   3.380 -0.0506  0.1707 -0.0538
 1272DEC      C 3816   4.806   4.400   3.628 -0.1964  0.1016  0.2615
 1273DEC      C 3817   4.955   3.977   0.145  0.0133 -0.0452 -0.4418
 1273DEC      C 3818   5.356   4.019   0.017 -0.1291  0.2404 -0.1458
 1273DEC      C 3819   5.827   4.086   0.082  0.0883 -0.0214 -0.1151
 1274DEC      C 3820   2.964   1.348   6.614 -0.0256  0.0639 -0.0274
 1274DEC      C 3821   2.744   1.367   7.054 -0.0302 -0.0071  0.2385
 1274DEC      C 3822   2.496   1.651   7.444 -0.2975 -0.2860  0.1005
 1275DEC      C 3823   1.332   7.038   6.567 -0.0582 -0.2250 -0.1214
 1275DEC      C 3824   0.966   7.006   6.747 -0.0464  0.0456  0.0102
 1275DEC      C 3825   0.577   7.076   6.724 -0.0328 -0.0291 -0.1133
 1276DEC      C 3826   5.106   2.328   5.773 -0.1751 -0.1084  0.1021
 1276DEC      C 3827   5.363   2.122   6.060  0.1318 -0.2823 -0.2382
 1276DEC      C 3828   5.730   2.226   6.245  0.0880  0.1278  0.1539
 1277DEC      C 3829   8.507   1.057   4.066  0.0983 -0.1250  0.2378
 1277DEC      C 3830   8.676   1.469   3.926  0.1527  0.0042 -0.0299
 1277DEC      C 3831   8.973   1.827   3.887  0.2272  0.0641 -0.2456
 1278DEC      C 3832   0.187   1.587   6.377  0.2098  0.4642  0.1307
 1278DEC      C 3833   0.542   1.673   6.659  0.0969  0.1877 -0.1343
 1278DEC      C 3834   0.446   1.444   6.971  0.1424 -0.1997  0.0753
 1279DEC      C 3835   7.836   4.233   6.998 -0.1441  0.0645 -0.0014
 1279DEC      C 3836   7.786   4.568   6.936 -0.2835  0.0645  0.1019
 1279DEC      C 3837   7.834   5.007   6.931  0.0653  0.1229  0.2621
 1280DEC      C 3838   6.192   5.464   1.485 -0.0519  0.0228  0.1783
 1280DEC      C 3839   6.407   5.046   1.651 -0.0353  0.1767 -0.2181
 1280DEC      C 3840   6.633   4.904   1.989  0.2082  0.0073  0.0180
 1281DEC      C 3841   5.748   0.465   6.876  0.0447 -0.0943  0.2863
 1281DEC      C 3842   5.844   0.906   6.934  0.1753 -0.0122  0.2157
 1281DEC      C 3843   6.010   1.262   7.181 -0.1810  0.0509 -0.3023
 1282DEC      C 3844   6.050   3.754   3.727 -0.0085  0.0957 -0.1534
 1282DEC      C 3845   6.557   3.779   3.885 -0.0055  0.0923  0.0454
 1282DEC      C 3846   6.865   3.689   4.150  0.3769 -0.0430  0.1144
 1283DEC      C 3847   8.339   6.897   1.365  0.0822  0.1455 -0.2215
 1283DEC      C 3848   8.689   6.913   1.177 -0.0376 -0.2443 -0.3404
 1283DEC      C 3849   9.029   6.953   1.038  0.3107  0.0601 -0.0625
 1284DEC      C 3850   5.170   5.248   0.614  0.0730 -0.1087  0.0685
 1284DEC      C 3851   4.912   5.112   0.227  0.0445 -0.4528  0.0258
 1284DEC      C 3852   4.523   4.852   0.223 -0.0296  0.1420  0.2361
 1285DEC      C 3853   0.520   6.275   3.625  0.0775  0.4380 -0.2336
 1285DEC      C 3854   0.240   5.982   3.751 -0.1113  0.3991 -0.0590
 1285DEC      C 3855   0.174   5.656   4.081  0.0563  0.1366 -0.1298
 1286DEC      C 3856   6.428   1.691   6.490 -0.0362 -0.4150 -0.2149
 1286DEC      C 3857   6.410   1.726   6.879  0.2022  0.4753  0.2285
 1286DEC      C 3858   6.137   1.922   7.140 -0.0054  0.0230  0.1289
 1287DEC      C 3859   2.739   2.096   3.024 -0.0599 -0.0965 -0.2269
 1287DEC      C 3860   2.751   2.246   2.511  0.0593  0.0300  0.0458
 1287DEC      C 3861   2.504   2.123   2.158  0.0059  0.0347  0.0226
 1288DEC      C 3862   6.456   5.256   0.612  0.0973  0.1258  0.1433
 1288DEC      C 3863   6.539   5.589   0.964 -0.1475  0.1413 -0.3579
 1288DEC      C 3864   6.897   5.706   1.252  0.3604 -0.2070 -0.0149
 1289DEC      C 3865   0.851   2.235   0.612 -0.2248 -0.3031  0.0982
 1289DEC      C 3866   1.174   2.538   0.700 -0.1095 -0.0232 -0.0776
 1289DEC      C 3867   1.432   2.662   0.594 -0.0123 -0.0359  0.0849
 1290DEC      C 3868   5.106   5.596   6.309 -0.0696 -0.2618  0.2257
 1290DEC      C 3869   5.376   5.313   5.949 -0.2728  0.1917 -0.1438
 1290DEC      C 3870   5.493   5.001   5.564  0.0428  0.5281 -0.1717
 1291DEC      C 3871   0.896   3.902   1.148  0.0059 -0.1070  0.1018
 1291DEC      C 3872   0.571   3.637   1.018 -0.1367 -0.0426  0.0521
 1291DEC      C 3873   0.295   3.333   1.054  0.2432  0.3505 -0.0991
 1292DEC      C 3874   1.603   4.418   7.186 -0.0640 -0.0487  0.3764
 1292DEC      C 3875   1.949   4.490   6.858 -0.1203  0.0599 -0.3443
 1292DEC      C 3876   2.057   4.872   6.676 -0.1886 -0.0394 -0.0856
 1293DEC      C 3877   6.996   1.062   6.213 -0.2942 -0.2189 -0.0840
 1293DEC      C 3878   7.459   1.136   6.027  0.0087 -0.2709  0.1069
 1293DEC      C 3879   7.794   1.010   5.630 -0.0068  0.0326 -0.1350
 1294DEC      C 3880   6.638   4.420   6.779  0.1926 -0.2827 -0.0916
 1294DEC      C 3881   6.470   4.100   6.924 -0.1550  0.0243 -0.0347
 1294DEC      C 3882   6.560   3.676   6.714 -0.0496 -0.1235  0.0399
 1295DEC      C 3883   1.549   5.061   1.809  0.2809 -0.4859  0.0970
 1295DEC      C 3884   1.417   4.712   1.543 -0.0860  0.3673  0.1974
 1295DEC      C 3885   1.169   4.627   1.166  0.0428 -0.1688 -0.1808
 1296DEC      C 3886   8.055   3.292   0.410  0.3807 -0.0513  0.2388
 1296DEC      C 3887   8.129   3.000   0.519 -0.2203  0.1675  0.0019
 1296DEC      C 3888   8.011   2.568   0.581  0.0142 -0.0036  0.0988
 1297DEC      C 3889   1.196   2.101   3.239 -0.0301  0.3724  0.2188
 1297DEC      C 3890   1.535   2.156   3.565 -0.0881 -0.0365 -0.0503
 1297DEC      C 3891   1.928   2.078   3.841 -0.0494  0.2840  0.1245
 1298DEC      C 3892   1.196   2.867   2.732 -0.3752  0.1525 -0.3282
 1298DEC      C 3893   1.137   2.580   3.093 -0.1235 -0.4102 -0.1420
 1298DEC      C 3894   0.771   2.316   3.204 -0.0267 -0.0272  0.0157
 1299DEC      C 3895   3.949   7.016   0.140  0.1252  0.0869 -0.0475
 1299DEC      C 3896   3.626   7.221   0.488  0.0381 -0.1095  0.0656
 1299DEC      C 3897   3.228   7.292   0.801  0.0875  0.1624  0.1359
 1300DEC      C 3898   5.642   3.118   2.601  0.2801 -0.0274  0.2066
 1300DEC      C 3899   5.177   3.050   2.428 -0.2119  0.0034 -0.0879
 1300DEC      C 3900   4.919   2.925   2.156  0.0865 -0.1622  0.0543
 1301DEC      C 3901   4.914   5.692   0.792 -0.1348  0.0570 -0.2497
 1301DEC      C 3902   4.847   5.689   0.219  0.0075 -0.0908  0.1438
 1301DEC      C 3903   4.746   5.597  -0.283 -0.1907 -0.1515  0.0234
 1302DEC      C 3904   2.032   1.318   5.981 -0.3345  0.3334  0.1068
 1302DEC      C 3905   1.850   0.928   6.203  0.1091  0.0782  0.0423
 1302DEC      C 3906   1.502   0.765   6.161  0.3307 -0.3137 -0.3930
 1303DEC      C 3907   2.937   1.563   4.935 -0.2331 -0.0849 -0.2044
 1303DEC      C 3908   2.680   1.611   5.232  0.1550 -0.1555 -0.0818
 1303DEC      C 3909   2.304   1.761   5.309  0.0750 -0.1999  0.0159
 1304DEC      C 3910   5.537   3.167   5.940 -0.0873  0.2871  0.0833
 1304DEC      C 3911   5.550   3.067   6.384 -0.1080  0.4296 -0.0629
 1304DEC      C 3912   5.220   2.883   6.590  0.0779  0.1776 -0.0394
 1305DEC      C 3913   5.783   5.704   5.838  0.0631 -0.0997 -0.2584
 1305DEC      C 3914   5.353   5.878   5.927 -0.0908 -0.1125  0.0143
 1305DEC      C 3915   5.112   6.091   5.680  0.0634 -0.0653 -0.2028
 1306DEC      C 3916   4.442   3.714   5.818  0.0362  0.0864  0.3451
 1306DEC      C 3917   4.615   4.126   5.683 -0.2165 -0.0886  0.3633
 1306DEC      C 3918   4.721   4.507   5.635  0.0403  0.3713 -0.3140
 1307DEC      C 3919   7.096   1.672   5.725 -0.0001  0.2417  0.2857
 1307DEC      C 3920   7.059   1.238   5.715 -0.0139 -0.1924 -0.0674
 1307DEC      C 3921   7.310   0.824   5.650 -0.3926 -0.1479 -0.2877
 1308DEC      C 3922   5.302   3.248   1.943 -0.0793 -0.3651 -0.2118
 1308DEC      C 3923   5.217   2.858   1.700 -0.0486 -0.1689 -0.1123
 1308DEC      C 3924   5.257   2.710   1.201  0.0131  0.2560 -0.2142
 1309DEC      C 3925   8.515   5.391   2.261  0.1169 -0.1432 -0.1997
 1309DEC      C 3926   8.387   5.513   2.710 -0.1780 -0.0553 -0.2650
 1309DEC      C 3927   8.411   5.723   3.142 -0.0010  0.0929  0.1439
 1310DEC      C 3928   8.598   5.094   1.232 -0.1877  0.1858  0.0043
 1310DEC      C 3929   8.528   5.491   1.437  0.0331 -0.1216  0.0352
 1310DEC      C 3930   8.703   5.654   1.771 -0.0092 -0.0085 -0.0147
 1311DEC      C 3931   2.539   3.428   5.016  0.0949  0.1248 -0.4342
 1311DEC      C 3932   2.508   3.185   5.475 -0.3875  0.1280 -0.0375
 1311DEC      C 3933   2.235   2.887   5.576 -0.4677 -0.0870 -0.0655
 1312DEC      C 3934   4.954   1.485   5.386  0.0114  0.1924 -0.2005
 1312DEC      C 3935   4.898   1.543   5.875  0.1808  0.0601 -0.0367
 1312DEC      C 3936   4.869   1.949   6.154  0.2130 -0.1757  0.1357
 1313DEC      C 3937   2.215   1.627   2.279 -0.0773 -0.0019  0.0697
 1313DEC      C 3938   1.993   1.232   2.354 -0.2276 -0.4574  0.2414
 1313DEC      C 3939   1.606   1.020   2.299  0.2330  0.1585  0.3216
 1314DEC      C 3940   5.853   0.587   3.317 -0.0178 -0.2039  0.1095
 1314DEC      C 3941   6.223   0.459   3.271  0.0490 -0.1978 -0.2275
 1314DEC      C 3942   6.588   0.427   3.419 -0.0065 -0.2803  0.0619
 1315DEC      C 3943   0.202   6.527   6.735 -0.0184 -0.0329 -0.1176
 1315DEC      C 3944   0.251   6.127   6.411  0.0298 -0.3219  0.3244
 1315DEC      C 3945   0.498   5.974   5.996  0.0685  0.1704 -0.1075
 1316DEC      C 3946   0.647   6.378   5.635 -0.5061 -0.1335 -0.3702
 1316DEC      C 3947   0.995   6.192   5.426  0.0242 -0.0809  0.1406
 1316DEC      C 3948   1.312   6.093   5.214 -0.2047  0.0118 -0.0274
 1317DEC      C 3949   6.626   2.032   2.032  0.2940 -0.3726  0.2630
 1317DEC      C 3950   6.479   1.674   2.158 -0.0308  0.0784 -0.0025
 1317DEC      C 3951   6.088   1.690   2.426  0.2782  0.1578 -0.2720
 1318DEC      C 3952   7.431   2.785   1.416  0.0339  0.4396 -0.0394
 1318DEC      C 3953   7.094   2.521   1.565 -0.1199 -0.2398  0.0695
 1318DEC      C 3954   6.646   2.328   1.481  0.0262  0.1631  0.1964
 1319DEC      C 3955   3.661   0.404   4.268  0.1468 -0.0460  0.1007
 1319DEC      C 3956   3.887   0.740   4.174  0.0529  0.0352 -0.3962
 1319DEC      C 3957   3.828   1.121   4.084 -0.0850 -0.3816 -0.0516
 1320DEC      C 3958   2.544   6.141   3.588  0.1158  0.0410  0.0425
 1320DEC      C 3959   2.390   5.843   3.947 -0.2742 -0.1093 -0.0466
 1320DEC      C 3960   2.422   5.492   4.165  0.0148 -0.0864  0.0294
 1321DEC      C 3961   5.554   3.730   0.973  0.3790  0.0293  0.0095
 1321DEC      C 3962   5.860   4.032   0.957  0.2501 -0.0704  0.1952
 1321DEC      C 3963   5.847   4.433   0.781  0.0464  0.1807 -0.3679
 1322DEC      C 3964   2.383   2.833   2.758 -0.2881 -0.2382 -0.0622
 1322DEC      C 3965   2.298   2.622   3.099  0.1673  0.1033  0.1813
 1322DEC      C 3966   1.934   2.461   3.393 -0.1435  0.0839  0.4280
 1323DEC      C 3967   0.249   2.711   1.972  0.0724  0.0111  0.0579
 1323DEC      C 3968   0.001   2.497   1.798 -0.3099  0.0739 -0.1727
 1323DEC      C 3969  -0.356   2.546   1.959  0.1453 -0.1411  0.0810
 1324DEC      C 3970   2.064   6.045   3.646  0.1335  0.0215  0.2125
 1324DEC      C 3971   1.871   6.151   4.000 -0.1084 -0.0145  0.0419
 1324DEC      C 3972   1.750   5.934   4.473 -0.0210 -0.1272 -0.4808
 1325DEC      C 3973   5.233   1.557   4.051 -0.2750  0.2380  0.0107
 1325DEC      C 3974   5.559   1.644   3.946 -0.3223 -0.0713  0.0244
 1325DEC      C 3975   5.897   1.710   3.685  0.1993  0.2625  0.0196
 1326DEC      C 3976   4.593   1.174   2.016  0.2248  0.2135 -0.0498
 1326DEC      C 3977   4.357   0.885   2.280 -0.1020  0.0438  0.1855
 1326DEC      C 3978   3.944   0.905   2.394  0.3350 -0.2662 -0.1397
 1327DEC      C 3979   3.618   0.410   0.644  0.1943  0.3436  0.2733
 1327DEC      C 3980   3.999   0.723   0.447 -0.0488 -0.0790 -0.0836
 1327DEC      C 3981   4.346   0.672   0.132 -0.1514  0.0636  0.0816
 1328DEC      C 3982   2.712   5.591   7.272  0.2605  0.3893  0.1049
 1328DEC      C 3983   2.595   5.936   7.087  0.0269  0.0317  0.0665
 1328DEC      C 3984   2.687   6.339   7.224  0.0052  0.2714 -0.0281
 1329DEC      C 3985   0.915   7.022   5.714 -0.0231  0.1439 -0.0937
 1329DEC      C 3986   0.783   6.791   5.370  0.1690 -0.0679  0.0771
 1329DEC      C 3987   0.681   6.449   5.129 -0.1287 -0.0927  0.0892
 1330DEC      C 3988   2.625   5.273   1.816 -0.0314  0.2425 -0.0786
 1330DEC      C 3989   2.727   5.709   1.665  0.3872  0.2065  0.0640
 1330DEC      C 3990   2.908   6.079   1.573  0.2986 -0.3258 -0.0822
 1331DEC      C 3991   2.715   3.412   5.816 -0.0599  0.2010 -0.1971
 1331DEC      C 3992   2.443   3.765   5.990  0.0141 -0.1247  0.0266
 1331DEC      C 3993   2.055   3.645   6.245 -0.0493 -0.0787 -0.0485
 1332DEC      C 3994   4.565   3.221   6.090 -0.0432  0.0122 -0.1087
 1332DEC      C 3995   4.735   3.048   6.485  0.2351  0.0813  0.1463
 1332DEC      C 3996   4.607   2.871   6.903  0.0141 -0.0131 -0.0407
 1333DEC      C 3997   7.829   0.767   2.821  0.1844  0.0132 -0.0464
 1333DEC      C 3998   7.370   0.859   2.719 -0.0156  0.0575  0.0057
 1333DEC      C 3999   6.936   0.829   2.666 -0.0779  0.2599  0.1538
 1334DEC      C 4000   7.121   0.349   2.640 -0.0689  0.1829  0.1851
 1334DEC      C 4001   6.923   0.430   2.151 -0.0676  0.0608  0.1672
 1334DEC      C 4002   6.893   0.333   1.685 -0.0763 -0.3693 -0.1340
 1335DEC      C 4003   0.621   0.827   2.772  0.1973 -0.1019  0.1503
 1335DEC      C 4004   0.740   1.192   2.742 -0.3409 -0.2298  0.0241
 1335DEC      C 4005   0.739   1.610   2.906  0.2143 -0.0244 -0.2721
 1336DEC      C 4006   4.942   3.156   4.663  0.4180  0.1876 -0.0598
 1336DEC      C 4007   4.482   3.158   4.619  0.2669 -0.4601 -0.3321
 1336DEC      C 4008   4.097   3.230   4.786  0.2012  0.0284 -0.1015
 1337DEC      C 4009   0.235   1.255   4.446  0.0949  0.0018  0.0529
 1337DEC      C 4010   0.598   1.320   4.014 -0.1607 -0.0361 -0.0002
 1337DEC      C 4011   0.847   1.430   3.704 -0.0965 -0.1064  0.1051
 1338DEC      C 4012   8.046   6.052   6.551 -0.0009 -0.1117  0.0710
 1338DEC      C 4013   8.446   6.226   6.645  0.2126  0.2027  0.0429
 1338DEC      C 4014   8.737   6.066   6.895  0.0116 -0.2401 -0.2508
 1339DEC      C 4015   7.335   0.774   4.365 -0.0239 -0.5063 -0.1466
 1339DEC      C 4016   7.398   1.178   4.125 -0.2979  0.1853 -0.1969
 1339DEC      C 4017   7.029   1.351   3.807 -0.0299 -0.0861 -0.0358
 1340DEC      C 4018   0.502   5.971   5.412  0.0971 -0.0804  0.1284
 1340DEC      C 4019   0.757   5.744   5.695 -0.0307  0.1747  0.2590
 1340DEC      C 4020   1.058   5.816   5.991  0.0960 -0.0346  0.2393
 1341DEC      C 4021   2.684   1.047   4.323 -0.0938 -0.0935  0.0027
 1341DEC      C 4022   2.648   1.520   4.450 -0.1227  0.0288  0.1186
 1341DEC      C 4023   2.518   1.866   4.787  0.3111  0.0397  0.3232
 1342DEC      C 4024   0.286   5.080   6.059  0.0007  0.0306 -0.0214
 1342DEC      C 4025   0.189   4.734   5.935  0.0989 -0.1120 -0.2459
 1342DEC      C 4026   0.209   4.283   6.031  0.1369 -0.1481  0.3082
 1343DEC      C 4027   5.644   6.804   5.854  0.3940  0.2089  0.1250
 1343DEC      C 4028   6.054   7.038   5.994  0.3818  0.2167 -0.1867
 1343DEC      C 4029   6.402   6.860   5.671  0.1678 -0.5519 -0.1152
 1344DEC      C 4030   5.488   1.245   7.180  0.0232 -0.0733 -0.2955
 1344DEC      C 4031   5.185   1.524   7.384  0.1838 -0.0506  0.2642
 1344DEC      C 4032   4.716   1.703   7.340 -0.2575 -0.0355  0.1448
 1345DEC      C 4033   8.429   4.605   5.556 -0.0491  0.0268 -0.0418
 1345DEC      C 4034   8.361   4.954   5.944 -0.1284 -0.1030 -0.0561
 1345DEC      C 4035   8.504   5.323   6.132 -0.0737  0.1977  0.0791
 1346DEC      C 4036   8.580   1.120   0.989  0.1017 -0.0047 -0.0676
 1346DEC      C 4037   8.369   1.069   1.357 -0.2586 -0.1658  0.0915
 1346DEC      C 4038   8.268   0.798   1.746 -0.2867 -0.0721  0.0695
 1347DEC      C 4039   4.250   3.916   6.776  0.2489  0.0294  0.1917
 1347DEC      C 4040   3.918   4.262   6.655  0.2075  0.2947  0.1980
 1347DEC      C 4041   3.714   4.455   6.913  0.0021  0.0595  0.5254
 1348DEC      C 4042   5.690   0.826   3.741 -0.4016  0.0254 -0.1279
 1348DEC      C 4043   5.615   0.485   3.826  0.0207  0.1269 -0.1314
 1348DEC      C 4044   5.260   0.516   3.999  0.1465  0.0189 -0.2600
 1349DEC      C 4045   2.695   3.737   0.810 -0.0279  0.0415 -0.0173
 1349DEC      C 4046   2.325   3.677   0.998  0.2691 -0.1852 -0.2072
 1349DEC      C 4047   2.149   3.900   1.363  0.0100  0.2970  0.2696
 1350DEC      C 4048   6.422   4.510   1.333  0.4203 -0.0183  0.1339
 1350DEC      C 4049   6.202   4.145   1.396 -0.3614  0.3361 -0.1628
 1350DEC      C 4050   6.219   3.810   1.229  0.3265  0.2944  0.1671
   8.63884   7.27700   7.27700
