;;
;; Generated by CHARMM-GUI (http://www.charmm-gui.org) v1.7
;;
;; psf2itp_mol.py
;;
;; Correspondance:
;; jul316@lehigh.edu or wonpil@lehigh.edu
;;
;; GROMACS topology file for MMAS
;;


[ moleculetype ]
; name	nrexcl
MMAS	     3

[ atoms ]
; nr	type	resnr	residu	atom	cgnr	charge	mass
     1      CG331      1     MMAS     C1      1     -0.267    12.0110   ; qtot -0.267
     2       HGA3      1     MMAS     H1      2      0.090     1.0080   ; qtot -0.177
     3       HGA3      1     MMAS     H2      3      0.090     1.0080   ; qtot -0.087
     4       HGA3      1     MMAS     H3      4      0.090     1.0080   ; qtot  0.003
     5      CG311      1     MMAS     C2      5     -0.119    12.0110   ; qtot -0.116
     6       HGA1      1     MMAS     H4      6      0.090     1.0080   ; qtot -0.026
     7      CG2O2      1     MMAS     C3      7      0.871    12.0110   ; qtot  0.845
     8      OG302      1     MMAS     O1      8     -0.491    15.9994   ; qtot  0.354
     9      OG2D1      1     MMAS     O2      9     -0.617    15.9994   ; qtot -0.263
    10      CG331      1     MMAS     C4     10     -0.010    12.0110   ; qtot -0.273
    11       HGA3      1     MMAS     H5     11      0.090     1.0080   ; qtot -0.183
    12       HGA3      1     MMAS     H6     12      0.090     1.0080   ; qtot -0.093
    13       HGA3      1     MMAS     H7     13      0.090     1.0080   ; qtot -0.003
    14      CG331      1     MMAS     C5     14     -0.267    12.0110   ; qtot -0.270
    15       HGA3      1     MMAS     H8     15      0.090     1.0080   ; qtot -0.180
    16       HGA3      1     MMAS     H9     16      0.090     1.0080   ; qtot -0.090
    17       HGA3      1     MMAS    H10     17      0.090     1.0080   ; qtot -0.000

[ bonds ]
; ai	aj	funct	b0	Kb
    1     2     1
    1     3     1
    1     4     1
    1     5     1
    5     6     1
    5     7     1
    5    14     1
    7     8     1
    7     9     1
    8    10     1
   10    11     1
   10    12     1
   10    13     1
   14    15     1
   14    16     1
   14    17     1

[ pairs ]
; ai	aj	funct	c6	c12
    1     8     1 
    1     9     1 
    1    15     1 
    1    16     1 
    1    17     1 
    2     6     1 
    2     7     1 
    2    14     1 
    3     6     1 
    3     7     1 
    3    14     1 
    4     6     1 
    4     7     1 
    4    14     1 
    5    10     1 
    6     8     1 
    6     9     1 
    6    15     1 
    6    16     1 
    6    17     1 
    7    11     1 
    7    12     1 
    7    13     1 
    7    15     1 
    7    16     1 
    7    17     1 
    8    14     1 
    9    10     1 
    9    14     1 

[ angles ] 
; ai	aj	ak	funct	th0	cth	S0	Kub
    2     1     3     5
    2     1     4     5
    2     1     5     5
    3     1     4     5
    3     1     5     5
    4     1     5     5
    1     5     6     5
    1     5     7     5
    1     5    14     5
    6     5     7     5
    6     5    14     5
    7     5    14     5
    5     7     8     5
    5     7     9     5
    8     7     9     5
    7     8    10     5
    8    10    11     5
    8    10    12     5
    8    10    13     5
   11    10    12     5
   11    10    13     5
   12    10    13     5
    5    14    15     5
    5    14    16     5
    5    14    17     5
   15    14    16     5
   15    14    17     5
   16    14    17     5

[ dihedrals ]
; ai	aj	ak	al	funct	phi0	cp	mult
    2     1     5     6     9
    2     1     5     7     9
    2     1     5    14     9
    3     1     5     6     9
    3     1     5     7     9
    3     1     5    14     9
    4     1     5     6     9
    4     1     5     7     9
    4     1     5    14     9
    1     5     7     8     9
    1     5     7     9     9
    6     5     7     8     9
    6     5     7     9     9
    1     5    14    15     9
    1     5    14    16     9
    1     5    14    17     9
    6     5    14    15     9
    6     5    14    16     9
    6     5    14    17     9
    7     5    14    15     9
    7     5    14    16     9
    7     5    14    17     9
    8     7     5    14     9
    9     7     5    14     9
    5     7     8    10     9
    9     7     8    10     9
    7     8    10    11     9
    7     8    10    12     9
    7     8    10    13     9

[ dihedrals ]
; ai	aj	ak	al	funct	q0	cq
    7     5     9     8     2
