GROup of MAchos and Cynical Suckers
   17
    1MMA     C1    1  -0.113   0.142   0.018
    1MMA    H11    2  -0.213   0.178  -0.014
    1MMA    H12    3  -0.111   0.137   0.129
    1MMA    H13    4  -0.036   0.215  -0.016
    1MMA     C2    5  -0.086   0.002  -0.042
    1MMA    H22    6  -0.085   0.010  -0.153
    1MMA     C3    7   0.052  -0.045   0.006
    1MMA     O2    8   0.146   0.034  -0.045
    1MMA     O1    9   0.071  -0.141   0.079
    1MMA     C4   10   0.278  -0.004  -0.005
    1MMA    H41   11   0.352   0.065  -0.050
    1MMA    H42   12   0.288   0.001   0.106
    1MMA    H43   13   0.301  -0.107  -0.039
    1MMA     C5   14  -0.191  -0.102  -0.001
    1MMA    H51   15  -0.168  -0.201  -0.045
    1MMA    H52   16  -0.194  -0.112   0.110
    1MMA    H53   17  -0.292  -0.071  -0.036
   0.00000   0.00000   0.00000
