;;
;; Generated by CHARMM-GUI (http://www.charmm-gui.org) v1.7
;;
;; psf2itp_mol.py
;;
;; Correspondance:
;; jul316@lehigh.edu or wonpil@lehigh.edu
;;
;; GROMACS topology file for MEEF
;;


[ moleculetype ]
; name	nrexcl
MEEF	     3

[ atoms ]
; nr	type	resnr	residu	atom	cgnr	charge	mass
     1      CG331      1     MEEF     C1      1     -0.273    12.0110   ; qtot -0.273
     2       HGA3      1     MEEF     H1      2      0.090     1.0080   ; qtot -0.183
     3       HGA3      1     MEEF     H2      3      0.090     1.0080   ; qtot -0.093
     4       HGA3      1     MEEF     H3      4      0.090     1.0080   ; qtot -0.003
     5      CG311      1     MEEF     C2      5      0.165    12.0110   ; qtot  0.162
     6       HGA1      1     MEEF     H4      6      0.090     1.0080   ; qtot  0.252
     7      OG302      1     MEEF     O1      7     -0.480    15.9994   ; qtot -0.228
     8      CG2O2      1     MEEF     C3      8      0.918    12.0110   ; qtot  0.690
     9      OG2D1      1     MEEF     O2      9     -0.640    15.9994   ; qtot  0.050
    10      CG321      1     MEEF     C4     10     -0.231    12.0110   ; qtot -0.181
    11       HGA2      1     MEEF     H5     11      0.090     1.0080   ; qtot -0.091
    12       HGA2      1     MEEF     H6     12      0.090     1.0080   ; qtot -0.001
    13      CG321      1     MEEF     C5     13     -0.176    12.0110   ; qtot -0.177
    14       HGA2      1     MEEF     H7     14      0.090     1.0080   ; qtot -0.087
    15       HGA2      1     MEEF     H8     15      0.090     1.0080   ; qtot  0.003
    16      CG331      1     MEEF     C6     16     -0.270    12.0110   ; qtot -0.267
    17       HGA3      1     MEEF     H9     17      0.090     1.0080   ; qtot -0.177
    18       HGA3      1     MEEF    H10     18      0.090     1.0080   ; qtot -0.087
    19       HGA3      1     MEEF    H11     19      0.090     1.0080   ; qtot  0.003
    20      CG331      1     MEEF     C7     20     -0.273    12.0110   ; qtot -0.270
    21       HGA3      1     MEEF    H12     21      0.090     1.0080   ; qtot -0.180
    22       HGA3      1     MEEF    H13     22      0.090     1.0080   ; qtot -0.090
    23       HGA3      1     MEEF    H14     23      0.090     1.0080   ; qtot -0.000

[ bonds ]
; ai	aj	funct	b0	Kb
    1     2     1
    1     3     1
    1     4     1
    1     5     1
    5     6     1
    5     7     1
    5    20     1
    7     8     1
    8     9     1
    8    10     1
   10    11     1
   10    12     1
   10    13     1
   13    14     1
   13    15     1
   13    16     1
   16    17     1
   16    18     1
   16    19     1
   20    21     1
   20    22     1
   20    23     1

[ pairs ]
; ai	aj	funct	c6	c12
    1     8     1 
    1    21     1 
    1    22     1 
    1    23     1 
    2     6     1 
    2     7     1 
    2    20     1 
    3     6     1 
    3     7     1 
    3    20     1 
    4     6     1 
    4     7     1 
    4    20     1 
    5     9     1 
    5    10     1 
    6     8     1 
    6    21     1 
    6    22     1 
    6    23     1 
    7    11     1 
    7    12     1 
    7    13     1 
    7    21     1 
    7    22     1 
    7    23     1 
    8    14     1 
    8    15     1 
    8    16     1 
    8    20     1 
    9    11     1 
    9    12     1 
    9    13     1 
   10    17     1 
   10    18     1 
   10    19     1 
   11    14     1 
   11    15     1 
   11    16     1 
   12    14     1 
   12    15     1 
   12    16     1 
   14    17     1 
   14    18     1 
   14    19     1 
   15    17     1 
   15    18     1 
   15    19     1 

[ angles ] 
; ai	aj	ak	funct	th0	cth	S0	Kub
    2     1     3     5
    2     1     4     5
    2     1     5     5
    3     1     4     5
    3     1     5     5
    4     1     5     5
    1     5     6     5
    1     5     7     5
    1     5    20     5
    6     5     7     5
    6     5    20     5
    7     5    20     5
    5     7     8     5
    7     8     9     5
    7     8    10     5
    9     8    10     5
    8    10    11     5
    8    10    12     5
    8    10    13     5
   11    10    12     5
   11    10    13     5
   12    10    13     5
   10    13    14     5
   10    13    15     5
   10    13    16     5
   14    13    15     5
   14    13    16     5
   15    13    16     5
   13    16    17     5
   13    16    18     5
   13    16    19     5
   17    16    18     5
   17    16    19     5
   18    16    19     5
    5    20    21     5
    5    20    22     5
    5    20    23     5
   21    20    22     5
   21    20    23     5
   22    20    23     5

[ dihedrals ]
; ai	aj	ak	al	funct	phi0	cp	mult
    2     1     5     6     9
    2     1     5     7     9
    2     1     5    20     9
    3     1     5     6     9
    3     1     5     7     9
    3     1     5    20     9
    4     1     5     6     9
    4     1     5     7     9
    4     1     5    20     9
    1     5     7     8     9
    6     5     7     8     9
    1     5    20    21     9
    1     5    20    22     9
    1     5    20    23     9
    6     5    20    21     9
    6     5    20    22     9
    6     5    20    23     9
    7     5    20    21     9
    7     5    20    22     9
    7     5    20    23     9
    8     7     5    20     9
    5     7     8     9     9
    5     7     8    10     9
    7     8    10    11     9
    7     8    10    12     9
    7     8    10    13     9
    9     8    10    11     9
    9     8    10    12     9
    9     8    10    13     9
    8    10    13    14     9
    8    10    13    15     9
    8    10    13    16     9
   11    10    13    14     9
   11    10    13    15     9
   11    10    13    16     9
   12    10    13    14     9
   12    10    13    15     9
   12    10    13    16     9
   10    13    16    17     9
   10    13    16    18     9
   10    13    16    19     9
   14    13    16    17     9
   14    13    16    18     9
   14    13    16    19     9
   15    13    16    17     9
   15    13    16    18     9
   15    13    16    19     9

[ dihedrals ]
; ai	aj	ak	al	funct	q0	cq
    8    10     9     7     2
