GROup of MAchos and Cynical Suckers
   23
    1MEE     C1    1  -0.214   0.094   0.082
    1MEE     HA    2  -0.287   0.147   0.017
    1MEE     HB    3  -0.267   0.055   0.171
    1MEE     HC    4  -0.138   0.167   0.116
    1MEE     C2    5  -0.149  -0.023   0.004
    1MEE     HS    6  -0.075  -0.073   0.071
    1MEE    O21    7  -0.084   0.023  -0.115
    1MEE    C21    8   0.007   0.123  -0.109
    1MEE    O22    9   0.031   0.196  -0.204
    1MEE    C22   10   0.116   0.092  -0.004
    1MEE    H2R   11   0.075   0.084   0.098
    1MEE    H2S   12   0.187   0.178  -0.004
    1MEE    C23   13   0.194  -0.035  -0.043
    1MEE    H3R   14   0.235  -0.023  -0.146
    1MEE    H3S   15   0.126  -0.122  -0.043
    1MEE    C24   16   0.311  -0.065   0.052
    1MEE    H4R   17   0.384   0.019   0.052
    1MEE    H4S   18   0.274  -0.081   0.155
    1MEE    H4T   19   0.364  -0.157   0.019
    1MEE     C3   20  -0.253  -0.130  -0.035
    1MEE     HX   21  -0.203  -0.214  -0.088
    1MEE     HY   22  -0.303  -0.170   0.055
    1MEE     HZ   23  -0.330  -0.086  -0.102
   0.00000   0.00000   0.00000
