GROup of MAchos and Cynical Suckers
   11
    1MAS     C1    1  -0.182   0.017   0.000
    1MAS      C    2  -0.042  -0.041   0.000
    1MAS     OM    3   0.047   0.059   0.000
    1MAS     C2    4   0.183   0.016  -0.000
    1MAS      O    5  -0.015  -0.160  -0.000
    1MAS    H11    6  -0.257  -0.066   0.000
    1MAS    H12    7  -0.198   0.079  -0.090
    1MAS    H13    8  -0.198   0.079   0.090
    1MAS    H21    9   0.250   0.105   0.000
    1MAS    H22   10   0.206  -0.044   0.091
    1MAS    H23   11   0.206  -0.044  -0.091
   0.00000   0.00000   0.00000
