;;
;; Generated by CHARMM-GUI (http://www.charmm-gui.org) v1.7
;;
;; psf2itp_mol.py
;;
;; Correspondance:
;; jul316@lehigh.edu or wonpil@lehigh.edu
;;
;; GROMACS topology file for MAS
;;


[ moleculetype ]
; name	nrexcl
MAS	     3

[ atoms ]
; nr	type	resnr	residu	atom	cgnr	charge	mass
     1      CG331      1      MAS     C1      1     -0.312    12.0110   ; qtot -0.312
     2      CG2O2      1      MAS     C2      2      0.898    12.0110   ; qtot  0.586
     3      OG302      1      MAS     O1      3     -0.488    15.9994   ; qtot  0.098
     4      CG331      1      MAS     C3      4     -0.012    12.0110   ; qtot  0.086
     5      OG2D1      1      MAS     O2      5     -0.626    15.9994   ; qtot -0.540
     6       HGA3      1      MAS     H1      6      0.090     1.0080   ; qtot -0.450
     7       HGA3      1      MAS     H2      7      0.090     1.0080   ; qtot -0.360
     8       HGA3      1      MAS     H3      8      0.090     1.0080   ; qtot -0.270
     9       HGA3      1      MAS     H4      9      0.090     1.0080   ; qtot -0.180
    10       HGA3      1      MAS     H5     10      0.090     1.0080   ; qtot -0.090
    11       HGA3      1      MAS     H6     11      0.090     1.0080   ; qtot -0.000

[ bonds ]
; ai	aj	funct	b0	Kb
    1     2     1
    1     6     1
    1     7     1
    1     8     1
    2     3     1
    2     5     1
    3     4     1
    4     9     1
    4    10     1
    4    11     1

[ pairs ]
; ai	aj	funct	c6	c12
    1     4     1 
    2     9     1 
    2    10     1 
    2    11     1 
    3     6     1 
    3     7     1 
    3     8     1 
    4     5     1 
    5     6     1 
    5     7     1 
    5     8     1 

[ angles ] 
; ai	aj	ak	funct	th0	cth	S0	Kub
    2     1     6     5
    2     1     7     5
    2     1     8     5
    6     1     7     5
    6     1     8     5
    7     1     8     5
    1     2     3     5
    1     2     5     5
    3     2     5     5
    2     3     4     5
    3     4     9     5
    3     4    10     5
    3     4    11     5
    9     4    10     5
    9     4    11     5
   10     4    11     5

[ dihedrals ]
; ai	aj	ak	al	funct	phi0	cp	mult
    3     2     1     6     9
    3     2     1     7     9
    3     2     1     8     9
    5     2     1     6     9
    5     2     1     7     9
    5     2     1     8     9
    1     2     3     4     9
    4     3     2     5     9
    2     3     4     9     9
    2     3     4    10     9
    2     3     4    11     9

[ dihedrals ]
; ai	aj	ak	al	funct	q0	cq
    2     1     5     3     2
