Split from step5_input.gro (molecule=PDOPC)
136
    1PDOPC    N    1   1.002   1.453   7.227
    1PDOPC  C12    2   1.019   1.598   7.271
    1PDOPC H12A    3   1.116   1.631   7.238
    1PDOPC H12B    4   1.006   1.607   7.378
    1PDOPC  C13    5   1.046   1.436   7.084
    1PDOPC H13A    6   1.133   1.498   7.068
    1PDOPC H13B    7   1.068   1.333   7.063
    1PDOPC H13C    8   0.972   1.479   7.016
    1PDOPC  C14    9   1.099   1.375   7.307
    1PDOPC H14A   10   1.102   1.273   7.273
    1PDOPC H14B   11   1.078   1.380   7.413
    1PDOPC H14C   12   1.199   1.417   7.292
    1PDOPC  C15   13   0.860   1.407   7.248
    1PDOPC H15A   14   0.846   1.300   7.248
    1PDOPC H15B   15   0.826   1.441   7.346
    1PDOPC H15C   16   0.792   1.453   7.177
    1PDOPC  C11   17   0.928   1.699   7.209
    1PDOPC H11A   18   0.941   1.802   7.254
    1PDOPC H11B   19   0.832   1.660   7.245
    1PDOPC    P   20   0.860   1.790   6.983
    1PDOPC  O13   21   0.842   1.901   7.076
    1PDOPC  O14   22   0.745   1.713   6.938
    1PDOPC  O12   23   0.947   1.692   7.066
    1PDOPC  O11   24   0.940   1.835   6.856
    1PDOPC   C1   25   0.991   1.722   6.782
    1PDOPC   HA   26   1.007   1.629   6.841
    1PDOPC   HB   27   1.092   1.754   6.750
    1PDOPC   C2   28   0.908   1.683   6.655
    1PDOPC   HS   29   0.985   1.663   6.576
    1PDOPC  O21   30   0.815   1.785   6.616
    1PDOPC  C21   31   0.874   1.874   6.542
    1PDOPC  O22   32   0.993   1.883   6.519
    1PDOPC  C22   33   0.773   1.956   6.470
    1PDOPC  H2R   34   0.708   2.007   6.545
    1PDOPC  H2S   35   0.707   1.898   6.406
    1PDOPC   C3   36   0.826   1.552   6.662
    1PDOPC   HX   37   0.754   1.558   6.746
    1PDOPC   HY   38   0.895   1.468   6.683
    1PDOPC  O31   39   0.753   1.531   6.538
    1PDOPC  C31   40   0.829   1.488   6.437
    1PDOPC  O32   41   0.948   1.462   6.444
    1PDOPC  C32   42   0.752   1.461   6.310
    1PDOPC  H2X   43   0.644   1.470   6.318
    1PDOPC  H2Y   44   0.745   1.352   6.299
    1PDOPC  C23   45   0.862   2.042   6.379
    1PDOPC  H3R   46   0.932   1.992   6.311
    1PDOPC  H3S   47   0.912   2.113   6.450
    1PDOPC  C24   48   0.770   2.114   6.297
    1PDOPC  H4R   49   0.793   2.213   6.337
    1PDOPC  C25   50   0.714   2.125   6.176
    1PDOPC  H5R   51   0.618   2.183   6.166
    1PDOPC  C26   52   0.740   2.043   6.061
    1PDOPC  H6R   53   0.663   1.964   6.058
    1PDOPC  H6S   54   0.841   2.008   6.084
    1PDOPC  C27   55   0.738   2.143   5.948
    1PDOPC  H7R   56   0.805   2.230   5.957
    1PDOPC  C28   57   0.654   2.141   5.844
    1PDOPC  H8R   58   0.668   2.214   5.764
    1PDOPC  C29   59   0.548   2.038   5.822
    1PDOPC  H9R   60   0.470   2.079   5.755
    1PDOPC  H9S   61   0.497   2.014   5.918
    1PDOPC C210   62   0.610   1.912   5.770
    1PDOPC H10R   63   0.705   1.883   5.818
    1PDOPC C211   64   0.551   1.830   5.683
    1PDOPC H11R   65   0.595   1.730   5.663
    1PDOPC C212   66   0.415   1.856   5.627
    1PDOPC H12R   67   0.431   1.906   5.529
    1PDOPC H12S   68   0.355   1.929   5.683
    1PDOPC C213   69   0.327   1.737   5.608
    1PDOPC H13R   70   0.268   1.689   5.686
    1PDOPC C214   71   0.329   1.664   5.505
    1PDOPC H14R   72   0.266   1.573   5.503
    1PDOPC C215   73   0.426   1.696   5.401
    1PDOPC H15R   74   0.493   1.624   5.443
    1PDOPC H15S   75   0.508   1.770   5.406
    1PDOPC C216   76   0.358   1.686   5.269
    1PDOPC H16R   77   0.286   1.602   5.258
    1PDOPC C217   78   0.422   1.724   5.160
    1PDOPC H17R   79   0.377   1.683   5.067
    1PDOPC C218   80   0.568   1.775   5.154
    1PDOPC H18R   81   0.615   1.747   5.058
    1PDOPC H18S   82   0.630   1.716   5.225
    1PDOPC C219   83   0.635   1.902   5.179
    1PDOPC H19R   84   0.618   1.936   5.281
    1PDOPC C220   85   0.659   1.997   5.088
    1PDOPC H20R   86   0.687   2.099   5.109
    1PDOPC C221   87   0.626   2.005   4.952
    1PDOPC H21R   88   0.550   2.085   4.947
    1PDOPC H21S   89   0.553   1.925   4.944
    1PDOPC C222   90   0.749   2.038   4.862
    1PDOPC H22R   91   0.837   1.984   4.895
    1PDOPC H22S   92   0.775   2.146   4.861
    1PDOPC H22T   93   0.745   2.016   4.754
    1PDOPC  C33   94   0.822   1.529   6.186
    1PDOPC  H3X   95   0.763   1.496   6.098
    1PDOPC  H3Y   96   0.916   1.476   6.166
    1PDOPC  C34   97   0.852   1.686   6.182
    1PDOPC  H4X   98   0.930   1.712   6.254
    1PDOPC  H4Y   99   0.774   1.756   6.214
    1PDOPC  C35  100   0.866   1.745   6.036
    1PDOPC  H5X  101   0.912   1.844   6.039
    1PDOPC  H5Y  102   0.773   1.764   5.979
    1PDOPC  C36  103   0.941   1.648   5.952
    1PDOPC  H6X  104   0.896   1.548   5.942
    1PDOPC  H6Y  105   1.019   1.631   6.028
    1PDOPC  C37  106   0.982   1.703   5.814
    1PDOPC  H7X  107   1.083   1.667   5.787
    1PDOPC  H7Y  108   0.985   1.814   5.812
    1PDOPC  C38  109   0.908   1.637   5.700
    1PDOPC  H8X  110   0.801   1.663   5.705
    1PDOPC  H8Y  111   0.919   1.527   5.719
    1PDOPC  C39  112   0.967   1.667   5.561
    1PDOPC  H9X  113   1.074   1.633   5.556
    1PDOPC  H9Y  114   0.966   1.776   5.543
    1PDOPC C310  115   0.884   1.589   5.458
    1PDOPC H10X  116   0.778   1.620   5.470
    1PDOPC H10Y  117   0.888   1.482   5.490
    1PDOPC C311  118   0.927   1.598   5.310
    1PDOPC H11X  119   1.037   1.609   5.300
    1PDOPC H11Y  120   0.880   1.689   5.267
    1PDOPC C312  121   0.887   1.469   5.233
    1PDOPC H12X  122   0.778   1.470   5.242
    1PDOPC H12Y  123   0.924   1.376   5.277
    1PDOPC C313  124   0.907   1.468   5.081
    1PDOPC H13X  125   0.912   1.573   5.064
    1PDOPC H13Y  126   0.815   1.436   5.027
    1PDOPC C314  127   1.027   1.394   5.017
    1PDOPC H14X  128   1.015   1.397   4.906
    1PDOPC H14Y  129   1.015   1.289   5.049
    1PDOPC C315  130   1.171   1.436   5.052
    1PDOPC H15X  131   1.230   1.344   5.065
    1PDOPC H15Y  132   1.167   1.487   5.151
    1PDOPC C316  133   1.251   1.520   4.949
    1PDOPC H16X  134   1.178   1.579   4.891
    1PDOPC H16Y  135   1.295   1.478   4.860
    1PDOPC H16Z  136   1.322   1.589   5.002
  10.00000  10.00000  10.00000
