;;
;; Generated by CHARMM-GUI (http://www.charmm-gui.org) v1.7
;;
;; psf2itp_mol.py
;;
;; Correspondance:
;; jul316@lehigh.edu or wonpil@lehigh.edu
;;
;; GROMACS topology file for ETAC
;;


[ moleculetype ]
; name	nrexcl
ETAC	     3

[ atoms ]
; nr	type	resnr	residu	atom	cgnr	charge	mass
     1      CG331      1     ETAC     C1      1     -0.313    12.0110   ; qtot -0.313
     2      CG2O2      1     ETAC     C2      2      0.895    12.0110   ; qtot  0.582
     3      OG302      1     ETAC     O1      3     -0.492    15.9994   ; qtot  0.090
     4      CG321      1     ETAC     C3      4      0.078    12.0110   ; qtot  0.168
     5      OG2D1      1     ETAC     O2      5     -0.617    15.9994   ; qtot -0.449
     6       HGA3      1     ETAC     H1      6      0.090     1.0080   ; qtot -0.359
     7       HGA3      1     ETAC     H2      7      0.090     1.0080   ; qtot -0.269
     8       HGA3      1     ETAC     H3      8      0.090     1.0080   ; qtot -0.179
     9       HGA2      1     ETAC     H4      9      0.090     1.0080   ; qtot -0.089
    10       HGA2      1     ETAC     H5     10      0.090     1.0080   ; qtot  0.001
    11      CG331      1     ETAC     C4     11     -0.271    12.0110   ; qtot -0.270
    12       HGA3      1     ETAC     H6     12      0.090     1.0080   ; qtot -0.180
    13       HGA3      1     ETAC     H7     13      0.090     1.0080   ; qtot -0.090
    14       HGA3      1     ETAC     H8     14      0.090     1.0080   ; qtot  0.000

[ bonds ]
; ai	aj	funct	b0	Kb
    1     2     1
    1     6     1
    1     7     1
    1     8     1
    2     3     1
    2     5     1
    3     4     1
    4     9     1
    4    10     1
    4    11     1
   11    12     1
   11    13     1
   11    14     1

[ pairs ]
; ai	aj	funct	c6	c12
    1     4     1 
    2     9     1 
    2    10     1 
    2    11     1 
    3     6     1 
    3     7     1 
    3     8     1 
    3    12     1 
    3    13     1 
    3    14     1 
    4     5     1 
    5     6     1 
    5     7     1 
    5     8     1 
    9    12     1 
    9    13     1 
    9    14     1 
   10    12     1 
   10    13     1 
   10    14     1 

[ angles ] 
; ai	aj	ak	funct	th0	cth	S0	Kub
    2     1     6     5
    2     1     7     5
    2     1     8     5
    6     1     7     5
    6     1     8     5
    7     1     8     5
    1     2     3     5
    1     2     5     5
    3     2     5     5
    2     3     4     5
    3     4     9     5
    3     4    10     5
    3     4    11     5
    9     4    10     5
    9     4    11     5
   10     4    11     5
    4    11    12     5
    4    11    13     5
    4    11    14     5
   12    11    13     5
   12    11    14     5
   13    11    14     5

[ dihedrals ]
; ai	aj	ak	al	funct	phi0	cp	mult
    3     2     1     6     9
    3     2     1     7     9
    3     2     1     8     9
    5     2     1     6     9
    5     2     1     7     9
    5     2     1     8     9
    1     2     3     4     9
    4     3     2     5     9
    2     3     4     9     9
    2     3     4    10     9
    2     3     4    11     9
    3     4    11    12     9
    3     4    11    13     9
    3     4    11    14     9
    9     4    11    12     9
    9     4    11    13     9
    9     4    11    14     9
   10     4    11    12     9
   10     4    11    13     9
   10     4    11    14     9

[ dihedrals ]
; ai	aj	ak	al	funct	q0	cq
    2     1     5     3     2
