GROup of MAchos and Cynical Suckers
   14
    1ETA     C1    1  -0.246   0.039   0.000
    1ETA      C    2  -0.123  -0.051  -0.000
    1ETA     OM    3  -0.014   0.024   0.000
    1ETA     C2    4   0.109  -0.051   0.000
    1ETA      O    5  -0.127  -0.173  -0.000
    1ETA    H11    6  -0.338  -0.023  -0.000
    1ETA    H12    7  -0.246   0.104  -0.090
    1ETA    H13    8  -0.246   0.104   0.090
    1ETA    H22    9   0.115  -0.115   0.091
    1ETA    H23   10   0.115  -0.115  -0.091
    1ETA    C21   11   0.228   0.046  -0.000
    1ETA   H211   12   0.323  -0.010  -0.000
    1ETA   H212   13   0.225   0.111  -0.090
    1ETA   H213   14   0.225   0.111   0.090
   0.00000   0.00000   0.00000
