;;
;; Generated by CHARMM-GUI (http://www.charmm-gui.org) v1.7
;;
;; psf2itp_mol.py
;;
;; Correspondance:
;; jul316@lehigh.edu or wonpil@lehigh.edu
;;
;; GROMACS topology file for GH2F
;;


[ moleculetype ]
; name	nrexcl
GH2F	     3

[ atoms ]
; nr	type	resnr	residu	atom	cgnr	charge	mass
     1       CTL3      1     GH2F     C1      1     -0.270    12.0110   ; qtot -0.270
     2       HAL3      1     GH2F     HA      2      0.090     1.0080   ; qtot -0.180
     3       HAL3      1     GH2F     HB      3      0.090     1.0080   ; qtot -0.090
     4       HAL3      1     GH2F     HC      4      0.090     1.0080   ; qtot -0.000
     5       CTL1      1     GH2F     C2      5      0.170    12.0110   ; qtot  0.170
     6       HAL1      1     GH2F     HS      6      0.090     1.0080   ; qtot  0.260
     7        OSL      1     GH2F    O21      7     -0.490    15.9994   ; qtot -0.230
     8         CL      1     GH2F    C21      8      0.900    12.0110   ; qtot  0.670
     9        OBL      1     GH2F    O22      9     -0.630    15.9994   ; qtot  0.040
    10       CTL2      1     GH2F    C22     10     -0.220    12.0110   ; qtot -0.180
    11       HAL2      1     GH2F    H2R     11      0.090     1.0080   ; qtot -0.090
    12       HAL2      1     GH2F    H2S     12      0.090     1.0080   ; qtot  0.000
    13       CTL3      1     GH2F    C23     13     -0.270    12.0110   ; qtot -0.270
    14       HAL3      1     GH2F    H3R     14      0.090     1.0080   ; qtot -0.180
    15       HAL3      1     GH2F    H3S     15      0.090     1.0080   ; qtot -0.090
    16       HAL3      1     GH2F    H3T     16      0.090     1.0080   ; qtot -0.000
    17       CTL2      1     GH2F     C3     17      0.080    12.0110   ; qtot  0.080
    18       HAL2      1     GH2F     HX     18      0.090     1.0080   ; qtot  0.170
    19       HAL2      1     GH2F     HY     19      0.090     1.0080   ; qtot  0.260
    20        OSL      1     GH2F    O31     20     -0.490    15.9994   ; qtot -0.230
    21         CL      1     GH2F    C31     21      0.900    12.0110   ; qtot  0.670
    22        OBL      1     GH2F    O32     22     -0.630    15.9994   ; qtot  0.040
    23       CTL2      1     GH2F    C32     23     -0.220    12.0110   ; qtot -0.180
    24       HAL2      1     GH2F    H2X     24      0.090     1.0080   ; qtot -0.090
    25       HAL2      1     GH2F    H2Y     25      0.090     1.0080   ; qtot  0.000
    26       CTL3      1     GH2F    C33     26     -0.270    12.0110   ; qtot -0.270
    27       HAL3      1     GH2F    H3X     27      0.090     1.0080   ; qtot -0.180
    28       HAL3      1     GH2F    H3Y     28      0.090     1.0080   ; qtot -0.090
    29       HAL3      1     GH2F    H3Z     29      0.090     1.0080   ; qtot -0.000

[ bonds ]
; ai	aj	funct	b0	Kb
    1     2     1
    1     3     1
    1     4     1
    1     5     1
    5     6     1
    5     7     1
    5    17     1
    7     8     1
    8     9     1
    8    10     1
   10    11     1
   10    12     1
   10    13     1
   13    14     1
   13    15     1
   13    16     1
   17    18     1
   17    19     1
   17    20     1
   20    21     1
   21    22     1
   21    23     1
   23    24     1
   23    25     1
   23    26     1
   26    27     1
   26    28     1
   26    29     1

[ pairs ]
; ai	aj	funct	c6	c12
    1     8     1 
    1    18     1 
    1    19     1 
    1    20     1 
    2     6     1 
    2     7     1 
    2    17     1 
    3     6     1 
    3     7     1 
    3    17     1 
    4     6     1 
    4     7     1 
    4    17     1 
    5     9     1 
    5    10     1 
    5    21     1 
    6     8     1 
    6    18     1 
    6    19     1 
    6    20     1 
    7    11     1 
    7    12     1 
    7    13     1 
    7    18     1 
    7    19     1 
    7    20     1 
    8    14     1 
    8    15     1 
    8    16     1 
    8    17     1 
    9    11     1 
    9    12     1 
    9    13     1 
   11    14     1 
   11    15     1 
   11    16     1 
   12    14     1 
   12    15     1 
   12    16     1 
   17    22     1 
   17    23     1 
   18    21     1 
   19    21     1 
   20    24     1 
   20    25     1 
   20    26     1 
   21    27     1 
   21    28     1 
   21    29     1 
   22    24     1 
   22    25     1 
   22    26     1 
   24    27     1 
   24    28     1 
   24    29     1 
   25    27     1 
   25    28     1 
   25    29     1 

[ angles ] 
; ai	aj	ak	funct	th0	cth	S0	Kub
    2     1     3     5
    2     1     4     5
    2     1     5     5
    3     1     4     5
    3     1     5     5
    4     1     5     5
    1     5     6     5
    1     5     7     5
    1     5    17     5
    6     5     7     5
    6     5    17     5
    7     5    17     5
    5     7     8     5
    7     8     9     5
    7     8    10     5
    9     8    10     5
    8    10    11     5
    8    10    12     5
    8    10    13     5
   11    10    12     5
   11    10    13     5
   12    10    13     5
   10    13    14     5
   10    13    15     5
   10    13    16     5
   14    13    15     5
   14    13    16     5
   15    13    16     5
    5    17    18     5
    5    17    19     5
    5    17    20     5
   18    17    19     5
   18    17    20     5
   19    17    20     5
   17    20    21     5
   20    21    22     5
   20    21    23     5
   22    21    23     5
   21    23    24     5
   21    23    25     5
   21    23    26     5
   24    23    25     5
   24    23    26     5
   25    23    26     5
   23    26    27     5
   23    26    28     5
   23    26    29     5
   27    26    28     5
   27    26    29     5
   28    26    29     5

[ dihedrals ]
; ai	aj	ak	al	funct	phi0	cp	mult
    2     1     5     6     9
    2     1     5     7     9
    2     1     5    17     9
    3     1     5     6     9
    3     1     5     7     9
    3     1     5    17     9
    4     1     5     6     9
    4     1     5     7     9
    4     1     5    17     9
    1     5     7     8     9
    6     5     7     8     9
    1     5    17    18     9
    1     5    17    19     9
    1     5    17    20     9
    6     5    17    18     9
    6     5    17    19     9
    6     5    17    20     9
    7     5    17    18     9
    7     5    17    19     9
    7     5    17    20     9
    8     7     5    17     9
    5     7     8     9     9
    5     7     8    10     9
    7     8    10    11     9
    7     8    10    12     9
    7     8    10    13     9
    9     8    10    11     9
    9     8    10    12     9
    9     8    10    13     9
    8    10    13    14     9
    8    10    13    15     9
    8    10    13    16     9
   11    10    13    14     9
   11    10    13    15     9
   11    10    13    16     9
   12    10    13    14     9
   12    10    13    15     9
   12    10    13    16     9
    5    17    20    21     9
   18    17    20    21     9
   19    17    20    21     9
   17    20    21    22     9
   17    20    21    23     9
   20    21    23    24     9
   20    21    23    25     9
   20    21    23    26     9
   22    21    23    24     9
   22    21    23    25     9
   22    21    23    26     9
   21    23    26    27     9
   21    23    26    28     9
   21    23    26    29     9
   24    23    26    27     9
   24    23    26    28     9
   24    23    26    29     9
   25    23    26    27     9
   25    23    26    28     9
   25    23    26    29     9
