Great Red Owns Many ACres of Sand 
   29
    1GH2     C1    1  -0.201   0.296   0.001
    1GH2     HA    2  -0.307   0.289  -0.034
    1GH2     HB    3  -0.201   0.312   0.111
    1GH2     HC    4  -0.154   0.384  -0.048
    1GH2     C2    5  -0.124   0.168  -0.035
    1GH2     HS    6  -0.127   0.158  -0.146
    1GH2    O21    7  -0.190   0.057   0.029
    1GH2    C21    8  -0.181  -0.061  -0.031
    1GH2    O22    9  -0.126  -0.084  -0.137
    1GH2    C22   10  -0.251  -0.166   0.056
    1GH2    H2R   11  -0.204  -0.167   0.157
    1GH2    H2S   12  -0.358  -0.139   0.067
    1GH2    C23   13  -0.238  -0.304  -0.009
    1GH2    H3R   14  -0.289  -0.380   0.055
    1GH2    H3S   15  -0.286  -0.306  -0.109
    1GH2    H3T   16  -0.132  -0.334  -0.019
    1GH2     C3   17   0.023   0.178   0.011
    1GH2     HX   18   0.025   0.190   0.122
    1GH2     HY   19   0.069   0.268  -0.036
    1GH2    O31   20   0.097   0.061  -0.028
    1GH2    C31   21   0.223   0.059   0.013
    1GH2    O32   22   0.279   0.146   0.078
    1GH2    C32   23   0.289  -0.072  -0.033
    1GH2    H2X   24   0.285  -0.078  -0.144
    1GH2    H2Y   25   0.232  -0.158   0.009
    1GH2    C33   26   0.434  -0.078   0.015
    1GH2    H3X   27   0.440  -0.074   0.126
    1GH2    H3Y   28   0.481  -0.173  -0.018
    1GH2    H3Z   29   0.493   0.007  -0.026
   0.00000   0.00000   0.00000
