;;
;; Generated by CHARMM-GUI (http://www.charmm-gui.org) v1.7
;;
;; psf2itp_mol.py
;;
;; Correspondance:
;; jul316@lehigh.edu or wonpil@lehigh.edu
;;
;; GROMACS topology file for ACT
;;


[ moleculetype ]
; name	nrexcl
ACT	     3

[ atoms ]
; nr	type	resnr	residu	atom	cgnr	charge	mass
     1      OG2D3      1      ACT      O      1     -0.484    15.9994   ; qtot -0.484
     2      CG2O5      1      ACT     C1      2      0.402    12.0110   ; qtot -0.082
     3      CG331      1      ACT     C2      3     -0.229    12.0110   ; qtot -0.311
     4      CG331      1      ACT     C3      4     -0.229    12.0110   ; qtot -0.540
     5       HGA3      1      ACT     H1      5      0.090     1.0080   ; qtot -0.450
     6       HGA3      1      ACT     H2      6      0.090     1.0080   ; qtot -0.360
     7       HGA3      1      ACT     H3      7      0.090     1.0080   ; qtot -0.270
     8       HGA3      1      ACT     H4      8      0.090     1.0080   ; qtot -0.180
     9       HGA3      1      ACT     H5      9      0.090     1.0080   ; qtot -0.090
    10       HGA3      1      ACT     H6     10      0.090     1.0080   ; qtot -0.000

[ bonds ]
; ai	aj	funct	b0	Kb
    1     2     1
    2     3     1
    2     4     1
    3     5     1
    3     6     1
    3     7     1
    4     8     1
    4     9     1
    4    10     1

[ pairs ]
; ai	aj	funct	c6	c12
    1     5     1 
    1     6     1 
    1     7     1 
    1     8     1 
    1     9     1 
    1    10     1 
    3     8     1 
    3     9     1 
    3    10     1 
    4     5     1 
    4     6     1 
    4     7     1 

[ angles ] 
; ai	aj	ak	funct	th0	cth	S0	Kub
    1     2     3     5
    1     2     4     5
    3     2     4     5
    2     3     5     5
    2     3     6     5
    2     3     7     5
    5     3     6     5
    5     3     7     5
    6     3     7     5
    2     4     8     5
    2     4     9     5
    2     4    10     5
    8     4     9     5
    8     4    10     5
    9     4    10     5

[ dihedrals ]
; ai	aj	ak	al	funct	phi0	cp	mult
    1     2     3     5     9
    1     2     3     6     9
    1     2     3     7     9
    4     2     3     5     9
    4     2     3     6     9
    4     2     3     7     9
    1     2     4     8     9
    1     2     4     9     9
    1     2     4    10     9
    3     2     4     8     9
    3     2     4     9     9
    3     2     4    10     9

[ dihedrals ]
; ai	aj	ak	al	funct	q0	cq
    2     3     4     1     2
