Good ROcking Metal Altar for Chronical Sinners
   10
    1ACT     O1    1  -0.000   0.187   0.000
    1ACT     C1    2  -0.000   0.064  -0.000
    1ACT     C2    3  -0.127  -0.016   0.000
    1ACT     C3    4   0.127  -0.016  -0.000
    1ACT    H21    5  -0.215   0.052   0.000
    1ACT    H22    6  -0.132  -0.080  -0.090
    1ACT    H23    7  -0.132  -0.080   0.090
    1ACT    H31    8   0.132  -0.080  -0.090
    1ACT    H32    9   0.215   0.052  -0.000
    1ACT    H33   10   0.132  -0.080   0.090
   0.00000   0.00000   0.00000
