GROup of MAchos and Cynical Suckers
   14
    1MPR     C1    1  -0.104   0.065   0.000
    1MPR      C    2   0.025  -0.017   0.000
    1MPR     OM    3   0.129   0.066  -0.000
    1MPR     C2    4   0.256   0.000  -0.000
    1MPR      O    5   0.031  -0.139   0.000
    1MPR    H12    6  -0.107   0.130  -0.090
    1MPR    H13    7  -0.107   0.130   0.090
    1MPR    H21    8   0.337   0.076  -0.000
    1MPR    H22    9   0.268  -0.063   0.091
    1MPR    H23   10   0.268  -0.063  -0.091
    1MPR    C11   11  -0.226  -0.029  -0.000
    1MPR   H111   12  -0.319   0.031  -0.000
    1MPR   H112   13  -0.226  -0.093   0.090
    1MPR   H113   14  -0.226  -0.093  -0.090
   0.00000   0.00000   0.00000
