;;
;; Generated by CHARMM-GUI (http://www.charmm-gui.org) v1.7
;;
;; psf2itp_mol.py
;;
;; Correspondance:
;; jul316@lehigh.edu or wonpil@lehigh.edu
;;
;; GROMACS topology file for MPRO
;;


[ moleculetype ]
; name	nrexcl
MPRO	     3

[ atoms ]
; nr	type	resnr	residu	atom	cgnr	charge	mass
     1      CG321      1     MPRO     C1      1     -0.244    12.0110   ; qtot -0.244
     2      CG2O2      1     MPRO     C2      2      0.894    12.0110   ; qtot  0.650
     3      OG302      1     MPRO     O1      3     -0.484    15.9994   ; qtot  0.166
     4      CG331      1     MPRO     C3      4     -0.011    12.0110   ; qtot  0.155
     5      OG2D1      1     MPRO     O2      5     -0.607    15.9994   ; qtot -0.452
     6       HGA2      1     MPRO     H1      6      0.090     1.0080   ; qtot -0.362
     7       HGA2      1     MPRO     H2      7      0.090     1.0080   ; qtot -0.272
     8       HGA3      1     MPRO     H3      8      0.090     1.0080   ; qtot -0.182
     9       HGA3      1     MPRO     H4      9      0.090     1.0080   ; qtot -0.092
    10       HGA3      1     MPRO     H5     10      0.090     1.0080   ; qtot -0.002
    11      CG331      1     MPRO     C4     11     -0.268    12.0110   ; qtot -0.270
    12       HGA3      1     MPRO     H6     12      0.090     1.0080   ; qtot -0.180
    13       HGA3      1     MPRO     H7     13      0.090     1.0080   ; qtot -0.090
    14       HGA3      1     MPRO     H8     14      0.090     1.0080   ; qtot -0.000

[ bonds ]
; ai	aj	funct	b0	Kb
    1     2     1
    1     6     1
    1     7     1
    1    11     1
    2     3     1
    2     5     1
    3     4     1
    4     8     1
    4     9     1
    4    10     1
   11    12     1
   11    13     1
   11    14     1

[ pairs ]
; ai	aj	funct	c6	c12
    1     4     1 
    2     8     1 
    2     9     1 
    2    10     1 
    2    12     1 
    2    13     1 
    2    14     1 
    3     6     1 
    3     7     1 
    3    11     1 
    4     5     1 
    5     6     1 
    5     7     1 
    5    11     1 
    6    12     1 
    6    13     1 
    6    14     1 
    7    12     1 
    7    13     1 
    7    14     1 

[ angles ] 
; ai	aj	ak	funct	th0	cth	S0	Kub
    2     1     6     5
    2     1     7     5
    2     1    11     5
    6     1     7     5
    6     1    11     5
    7     1    11     5
    1     2     3     5
    1     2     5     5
    3     2     5     5
    2     3     4     5
    3     4     8     5
    3     4     9     5
    3     4    10     5
    8     4     9     5
    8     4    10     5
    9     4    10     5
    1    11    12     5
    1    11    13     5
    1    11    14     5
   12    11    13     5
   12    11    14     5
   13    11    14     5

[ dihedrals ]
; ai	aj	ak	al	funct	phi0	cp	mult
    2     1    11    12     9
    2     1    11    13     9
    2     1    11    14     9
    6     1    11    12     9
    6     1    11    13     9
    6     1    11    14     9
    7     1    11    12     9
    7     1    11    13     9
    7     1    11    14     9
    3     2     1     6     9
    3     2     1     7     9
    3     2     1    11     9
    5     2     1     6     9
    5     2     1     7     9
    5     2     1    11     9
    1     2     3     4     9
    4     3     2     5     9
    2     3     4     8     9
    2     3     4     9     9
    2     3     4    10     9

[ dihedrals ]
; ai	aj	ak	al	funct	q0	cq
    2     1     5     3     2
