Hexadecane box
 3600
    1HD       C    1   3.517   6.395   3.560 -0.1853  0.1799  0.2925
    1HD       C    2   3.695   6.168   3.207  0.3281 -0.3580  0.0334
    1HD       C    3   3.748   6.133   2.799  0.3164  0.2854  0.0857
    1HD       C    4   3.715   6.372   2.387  0.0910 -0.2028 -0.1850
    2HD       C    5   5.953   6.502   3.810 -0.0199 -0.0272 -0.0596
    2HD       C    6   5.853   6.690   4.044 -0.0115  0.1443  0.1313
    2HD       C    7   5.897   7.003   4.433 -0.0524  0.0295  0.1261
    2HD       C    8   5.771   7.472   4.746  0.0542  0.0933 -0.1993
    3HD       C    9   2.342   0.908   3.854  0.0761 -0.2637 -0.1126
    3HD       C   10   2.200   0.543   4.053 -0.1025  0.2300 -0.1333
    3HD       C   11   2.355   0.393   4.559  0.2377  0.0943  0.0671
    3HD       C   12   2.184   0.549   4.972 -0.0681  0.2897 -0.0193
    4HD       C   13   4.584   0.748   7.187  0.0049  0.1793 -0.2091
    4HD       C   14   4.779   0.291   7.012 -0.0994  0.0502  0.0360
    4HD       C   15   5.062   0.036   6.792 -0.3688 -0.2966 -0.2312
    4HD       C   16   5.233  -0.325   6.636 -0.0207 -0.0301  0.0363
    5HD       C   17   5.702   0.060   5.581  0.1002  0.0066 -0.2722
    5HD       C   18   5.684  -0.023   5.223  0.2246  0.1056 -0.3109
    5HD       C   19   5.633  -0.234   4.825 -0.0985 -0.0205  0.1608
    5HD       C   20   5.432  -0.529   4.316 -0.0738  0.2128  0.0527
    6HD       C   21   2.122   5.407   2.147  0.0123  0.2199 -0.0686
    6HD       C   22   1.792   5.112   2.093  0.1162  0.0030  0.1972
    6HD       C   23   1.420   4.969   2.071  0.2497 -0.1110 -0.0498
    6HD       C   24   1.219   4.733   2.287  0.1409  0.1362 -0.2542
    7HD       C   25   5.308   4.368   4.236 -0.0705  0.2596 -0.0706
    7HD       C   26   5.134   4.015   4.484 -0.1445 -0.1358  0.1346
    7HD       C   27   4.855   3.721   4.544  0.0943  0.2150 -0.3569
    7HD       C   28   4.701   3.407   4.357 -0.1872 -0.0858 -0.2085
    8HD       C   29   4.919   7.222   1.156  0.1684 -0.1569  0.1859
    8HD       C   30   5.099   6.987   1.339  0.1692 -0.0952  0.0786
    8HD       C   31   4.942   6.505   1.388  0.0937  0.0133 -0.2139
    8HD       C   32   4.921   6.183   1.780 -0.0585 -0.1122 -0.1926
    9HD       C   33   3.191   0.797   4.921  0.0146 -0.3596 -0.1792
    9HD       C   34   3.484   0.762   5.064 -0.0370 -0.1253  0.2288
    9HD       C   35   3.693   1.129   5.286  0.0146  0.0590 -0.0299
    9HD       C   36   3.766   1.472   5.530  0.1416  0.1004  0.0197
   10HD       C   37   6.314   4.979   0.912  0.1282  0.4467  0.0056
   10HD       C   38   6.721   4.952   0.561  0.0616  0.0895  0.1583
   10HD       C   39   6.911   4.641   0.293 -0.0302  0.0370 -0.0553
   10HD       C   40   6.928   4.400  -0.139  0.1444 -0.0416  0.1931
   11HD       C   41   1.610   2.714   0.649 -0.1139  0.3007  0.0956
   11HD       C   42   1.830   3.030   0.473 -0.0901 -0.1727 -0.4738
   11HD       C   43   1.872   3.327   0.272 -0.3474 -0.0789  0.1476
   11HD       C   44   1.787   3.357  -0.152 -0.0511 -0.1053 -0.0605
   12HD       C   45   2.513   5.490   1.169  0.1659 -0.2986  0.0177
   12HD       C   46   2.297   5.043   1.083  0.2901 -0.0206 -0.1209
   12HD       C   47   2.345   4.708   1.358  0.0391 -0.2333  0.1025
   12HD       C   48   2.293   4.364   1.611  0.1383  0.1403 -0.1402
   13HD       C   49   4.570   1.807   0.092  0.2219  0.2133  0.0154
   13HD       C   50   4.541   1.717   0.526  0.0230 -0.1090 -0.0123
   13HD       C   51   4.692   1.535   0.985 -0.0893 -0.0692  0.2086
   13HD       C   52   5.128   1.437   1.264  0.1685  0.0244  0.1521
   14HD       C   53   1.597   1.987   2.858 -0.0164 -0.0286 -0.0455
   14HD       C   54   1.613   1.646   3.272 -0.0043 -0.0304 -0.2330
   14HD       C   55   1.579   1.483   3.665 -0.3034 -0.1652  0.2644
   14HD       C   56   1.568   1.380   4.083  0.2453  0.2238 -0.0990
   15HD       C   57   2.778   1.994   0.916 -0.1091 -0.2715  0.0411
   15HD       C   58   3.022   2.346   0.981 -0.0524  0.0594  0.0330
   15HD       C   59   3.161   2.759   1.072 -0.4049 -0.3720 -0.0363
   15HD       C   60   3.244   3.222   1.062  0.0367  0.1227  0.2816
   16HD       C   61   5.691   5.410   6.037 -0.0718  0.0770 -0.2117
   16HD       C   62   5.808   5.806   5.835  0.2006 -0.2516  0.3605
   16HD       C   63   5.927   6.173   5.539  0.0696 -0.1981  0.1538
   16HD       C   64   6.238   6.491   5.520 -0.2522 -0.1757  0.0457
   17HD       C   65   1.591   3.889   3.528  0.1152  0.0986  0.0160
   17HD       C   66   1.753   3.738   4.016 -0.0432  0.4331  0.2302
   17HD       C   67   1.927   3.586   4.408  0.2553 -0.0006  0.2019
   17HD       C   68   1.808   3.051   4.531  0.1634  0.1064 -0.1760
   18HD       C   69   6.825   3.588   4.276  0.2000  0.0258 -0.2412
   18HD       C   70   6.776   3.325   4.611 -0.0367  0.2491 -0.4600
   18HD       C   71   7.030   2.956   4.740 -0.0810  0.0601 -0.1192
   18HD       C   72   7.111   2.654   4.428 -0.1277 -0.0423  0.0174
   19HD       C   73   0.587   0.689   2.985 -0.1077  0.1844 -0.0590
   19HD       C   74   0.703   0.292   2.886 -0.1385 -0.1261 -0.5279
   19HD       C   75   0.695  -0.035   2.713  0.1200 -0.0468  0.0247
   19HD       C   76   0.558  -0.265   2.376 -0.0879 -0.1663  0.0275
   20HD       C   77   0.097   3.991   6.925  0.2096 -0.0361  0.0380
   20HD       C   78  -0.185   4.053   6.615  0.1001  0.1338 -0.0877
   20HD       C   79  -0.333   4.307   6.438  0.2911  0.3083 -0.1459
   20HD       C   80  -0.631   4.569   6.610  0.1485  0.0727 -0.0864
   21HD       C   81   6.133   1.380   1.039 -0.5312 -0.6237 -0.2464
   21HD       C   82   6.481   1.358   1.308  0.1503 -0.0014  0.1340
   21HD       C   83   6.915   1.188   1.334  0.2609 -0.1529 -0.3167
   21HD       C   84   7.291   1.134   1.373  0.1888 -0.2423  0.0636
   22HD       C   85   6.444   6.343   3.676 -0.1636 -0.1737  0.0347
   22HD       C   86   6.780   6.048   3.743 -0.1621 -0.1748 -0.1656
   22HD       C   87   7.132   6.088   3.943  0.2542  0.1086 -0.1910
   22HD       C   88   7.641   6.163   4.134  0.1025  0.0056  0.2168
   23HD       C   89   0.489   0.554   5.784 -0.0896 -0.0656 -0.2446
   23HD       C   90   0.218   0.682   6.034  0.3881 -0.0673  0.1741
   23HD       C   91  -0.171   0.499   6.143  0.1401  0.0891  0.0210
   23HD       C   92  -0.717   0.472   6.335 -0.0025  0.0865  0.3999
   24HD       C   93   0.379   4.861   4.658 -0.2383 -0.0416 -0.2664
   24HD       C   94   0.479   4.409   4.719 -0.0532 -0.2217  0.0389
   24HD       C   95   0.543   3.999   4.663  0.0008 -0.1961  0.0932
   24HD       C   96   0.713   3.532   4.613  0.0347  0.0059  0.3496
   25HD       C   97   6.196   0.131   5.146  0.0558  0.4689 -0.0226
   25HD       C   98   6.072  -0.259   5.058 -0.3673 -0.0017  0.0668
   25HD       C   99   6.081  -0.628   4.951  0.1977  0.2788  0.0405
   25HD       C  100   6.103  -1.061   4.951  0.2226  0.0395 -0.1644
   26HD       C  101   3.505   3.283   3.419 -0.0340 -0.2534 -0.0742
   26HD       C  102   3.644   3.017   3.590  0.0690  0.0933 -0.1010
   26HD       C  103   3.399   2.728   3.513  0.1218  0.0454  0.0773
   26HD       C  104   3.113   2.759   3.307 -0.2172  0.0949 -0.2587
   27HD       C  105   1.843   4.808   1.204  0.0068  0.1685 -0.0981
   27HD       C  106   1.731   5.046   1.447  0.2361  0.1449  0.0453
   27HD       C  107   1.868   5.290   1.665  0.2115 -0.0221  0.0283
   27HD       C  108   2.088   5.580   1.546  0.0709  0.1655  0.0937
   28HD       C  109   4.473   4.586   4.556  0.2285 -0.0887  0.0700
   28HD       C  110   4.250   4.779   4.864 -0.0689 -0.0314 -0.1418
   28HD       C  111   3.855   4.945   5.132  0.1675 -0.0408  0.0549
   28HD       C  112   3.571   5.235   5.095  0.0851  0.2886 -0.1469
   29HD       C  113   4.259   0.756   6.360 -0.0321  0.0736  0.4082
   29HD       C  114   4.540   0.849   6.642  0.5719 -0.1856  0.0548
   29HD       C  115   4.539   1.171   6.849  0.2846 -0.0605 -0.1394
   29HD       C  116   4.627   1.303   7.239 -0.0980  0.1702 -0.0536
   30HD       C  117   0.707   5.502   1.792  0.0087  0.0248 -0.1669
   30HD       C  118   0.923   5.401   1.500 -0.1982  0.2362  0.2718
   30HD       C  119   1.203   5.048   1.433  0.3216 -0.2696  0.1035
   30HD       C  120   1.448   4.561   1.360 -0.0828 -0.2435 -0.0934
   31HD       C  121   7.391   2.859   6.124 -0.1260 -0.2223  0.1021
   31HD       C  122   7.329   3.272   6.123  0.1033  0.0235 -0.5369
   31HD       C  123   7.210   3.457   5.835  0.1466 -0.0482 -0.0785
   31HD       C  124   6.902   3.784   5.579 -0.0214 -0.0544  0.2347
   32HD       C  125   5.423   2.077   3.687 -0.0945 -0.1098  0.1206
   32HD       C  126   5.192   1.882   4.090 -0.2867  0.0310  0.0366
   32HD       C  127   5.381   1.696   4.386 -0.0274  0.0333 -0.0631
   32HD       C  128   5.333   1.357   4.622 -0.2300  0.2108  0.1224
   33HD       C  129   0.780   1.839   4.934  0.1336  0.0282  0.1405
   33HD       C  130   0.626   2.154   4.641  0.1161  0.2268  0.0702
   33HD       C  131   0.753   2.529   4.507 -0.1696  0.0089 -0.2341
   33HD       C  132   0.782   3.021   4.553 -0.1545 -0.1825  0.0750
   34HD       C  133   1.879   3.260   5.475  0.0866  0.3575  0.0838
   34HD       C  134   1.694   3.627   5.461  0.1768 -0.1717 -0.1169
   34HD       C  135   1.283   3.704   5.299  0.1711  0.0393 -0.0375
   34HD       C  136   0.941   3.702   5.592 -0.0650 -0.1838  0.2162
   35HD       C  137   0.136   6.617   1.881  0.2168  0.0401 -0.0940
   35HD       C  138   0.544   6.429   1.826  0.3870 -0.0448  0.0035
   35HD       C  139   0.512   5.968   1.773  0.3787 -0.0604  0.1095
   35HD       C  140   0.977   5.844   1.671 -0.0172  0.2336  0.2104
   36HD       C  141   6.978   5.668   2.990 -0.0586 -0.0050  0.2296
   36HD       C  142   7.288   5.412   3.178  0.3118  0.1053  0.4504
   36HD       C  143   7.606   5.122   3.244  0.1656  0.0053  0.0138
   36HD       C  144   7.860   4.832   2.838  0.1644  0.0712  0.2845
   37HD       C  145   1.658   2.309   3.933  0.1710  0.1200  0.2249
   37HD       C  146   1.824   1.840   3.915 -0.0627  0.0972  0.2672
   37HD       C  147   2.067   1.382   3.805  0.1568  0.1532 -0.3652
   37HD       C  148   2.275   1.187   3.449 -0.2175 -0.1063  0.4822
   38HD       C  149   5.556   1.262   3.316  0.2452 -0.0472  0.0428
   38HD       C  150   5.587   1.563   3.549  0.0200  0.3269  0.0095
   38HD       C  151   5.765   1.742   3.981 -0.0742  0.3165  0.2697
   38HD       C  152   5.841   1.505   4.294 -0.1129  0.3173 -0.0428
   39HD       C  153   4.524   5.066   6.341  0.0491  0.1804  0.0238
   39HD       C  154   4.716   5.414   6.359  0.2100  0.1024  0.1143
   39HD       C  155   4.688   5.768   6.187  0.4816 -0.0273 -0.1622
   39HD       C  156   4.477   6.152   6.199 -0.0357  0.5154  0.1455
   40HD       C  157   2.191   0.809   0.891  0.1830  0.1098  0.1392
   40HD       C  158   2.506   0.528   0.602  0.2376 -0.2880  0.1780
   40HD       C  159   2.493   0.061   0.682 -0.1467  0.3380 -0.1777
   40HD       C  160   2.498  -0.272   0.716  0.1022  0.0495  0.0728
   41HD       C  161   0.126   2.696   5.945  0.0077 -0.1344 -0.1897
   41HD       C  162   0.169   3.145   6.212  0.1934 -0.0846  0.1431
   41HD       C  163   0.073   3.549   6.298 -0.0909 -0.2007  0.0911
   41HD       C  164  -0.029   3.902   6.025 -0.1058  0.1013 -0.1629
   42HD       C  165   1.685   1.628   5.949 -0.1075 -0.1019  0.0255
   42HD       C  166   2.191   1.589   5.944  0.2302  0.1514  0.2226
   42HD       C  167   2.478   1.942   5.925 -0.0395 -0.1492  0.3940
   42HD       C  168   2.659   2.278   5.744 -0.2334 -0.0189  0.2548
   43HD       C  169   1.085   2.284   5.238  0.1494  0.0003  0.0419
   43HD       C  170   1.538   2.289   5.049 -0.2168 -0.0165 -0.0517
   43HD       C  171   2.089   2.242   5.082  0.1821  0.2575  0.1921
   43HD       C  172   2.529   2.333   5.271 -0.1363 -0.0085  0.0614
   44HD       C  173   3.637   5.175   5.587  0.0761 -0.0702 -0.0905
   44HD       C  174   3.636   5.660   5.558 -0.1859  0.2551  0.0957
   44HD       C  175   3.687   6.086   5.631 -0.0529 -0.0857 -0.0161
   44HD       C  176   3.657   6.412   5.373  0.0139  0.3353  0.4414
   45HD       C  177   1.992   1.140   6.875  0.0840 -0.0506  0.2002
   45HD       C  178   2.267   1.460   6.485 -0.1431 -0.2787  0.3293
   45HD       C  179   2.633   1.620   6.284  0.0875 -0.0133  0.1182
   45HD       C  180   2.858   2.018   6.367 -0.1029  0.0282  0.1854
   46HD       C  181   2.317   3.688   0.223 -0.5323 -0.0084 -0.1166
   46HD       C  182   1.909   3.802   0.163 -0.1408  0.5213  0.3011
   46HD       C  183   1.529   3.931  -0.003 -0.2926  0.0162  0.2771
   46HD       C  184   1.118   4.199  -0.171  0.5455 -0.0571  0.0297
   47HD       C  185   2.399   0.427   7.056 -0.1348 -0.0327 -0.2383
   47HD       C  186   1.997   0.657   6.772 -0.0350  0.2362 -0.0445
   47HD       C  187   1.675   0.973   6.453 -0.0664  0.2417 -0.0608
   47HD       C  188   1.224   0.985   6.423  0.1111 -0.2332  0.0200
   48HD       C  189   5.017   4.278   5.433  0.0975  0.0492  0.0883
   48HD       C  190   4.671   4.206   5.283  0.0758 -0.2782 -0.0835
   48HD       C  191   4.293   4.346   5.214  0.4143 -0.0638  0.0515
   48HD       C  192   3.974   4.400   5.537  0.1055  0.1661 -0.3238
   49HD       C  193   1.451   6.018   6.103 -0.2131  0.2529 -0.1062
   49HD       C  194   1.756   5.866   5.884 -0.2546  0.1490 -0.0262
   49HD       C  195   1.933   5.445   5.846  0.3408  0.0258  0.0101
   49HD       C  196   2.064   5.056   5.852  0.1073 -0.1125  0.0243
   50HD       C  197   3.480   2.180   2.227  0.2661  0.0170 -0.1502
   50HD       C  198   3.502   2.566   2.447 -0.0973  0.0223 -0.0020
   50HD       C  199   3.540   2.865   2.785  0.1847  0.2170  0.1997
   50HD       C  200   3.384   3.051   3.008 -0.1027 -0.0677 -0.0519
   51HD       C  201   2.244   3.532   1.661  0.1674  0.0723  0.2078
   51HD       C  202   2.256   3.901   1.799  0.0977 -0.1549  0.0560
   51HD       C  203   2.135   4.246   2.048 -0.3590  0.1579  0.0068
   51HD       C  204   2.483   4.520   2.041  0.1066  0.2666  0.0051
   52HD       C  205   5.963   3.965   1.325 -0.1813  0.0746  0.0897
   52HD       C  206   5.734   3.786   1.654  0.0573  0.4216  0.3774
   52HD       C  207   5.322   3.692   1.768  0.1660 -0.1885  0.0787
   52HD       C  208   4.978   3.363   1.756 -0.1726 -0.1036 -0.0700
   53HD       C  209   0.059   0.786   0.570  0.0625  0.1689  0.1140
   53HD       C  210  -0.196   0.698   0.757 -0.0032 -0.2157  0.2171
   53HD       C  211  -0.509   0.733   1.048 -0.2756  0.2229  0.1321
   53HD       C  212  -0.924   0.754   1.190 -0.3463 -0.2923  0.2337
   54HD       C  213   2.798   4.235   0.201  0.4620  0.0125  0.1738
   54HD       C  214   2.857   4.381  -0.242 -0.1033 -0.3579 -0.0307
   54HD       C  215   2.907   4.731  -0.580  0.0057  0.4292 -0.1935
   54HD       C  216   2.843   5.122  -0.578  0.2959 -0.1296 -0.1440
   55HD       C  217   5.375   0.473   2.134 -0.0196  0.0403  0.1373
   55HD       C  218   5.464   0.088   2.422 -0.3005  0.0554 -0.1478
   55HD       C  219   5.763  -0.078   2.619  0.1403  0.1910 -0.2189
   55HD       C  220   6.019  -0.452   2.514  0.2497  0.2177  0.1598
   56HD       C  221   3.753   3.915   5.864 -0.0454  0.0000  0.1388
   56HD       C  222   3.582   3.971   5.517  0.3840  0.1603 -0.0430
   56HD       C  223   3.573   4.287   5.277  0.0813 -0.0018  0.0376
   56HD       C  224   3.465   4.596   4.936  0.1788 -0.1330 -0.1935
   57HD       C  225   2.938   6.901   1.438 -0.2678  0.2150 -0.1878
   57HD       C  226   2.938   6.876   0.939 -0.1880 -0.1625  0.1041
   57HD       C  227   2.906   6.582   0.576 -0.1197 -0.0464 -0.0581
   57HD       C  228   3.001   6.463   0.088  0.1077 -0.0604 -0.1268
   58HD       C  229   4.868   2.825   5.175  0.3090  0.0998  0.1403
   58HD       C  230   4.534   3.152   5.163 -0.2209 -0.0061 -0.3248
   58HD       C  231   4.081   3.446   5.195 -0.3014  0.4285 -0.0700
   58HD       C  232   3.815   3.522   5.529 -0.2489  0.1058  0.3903
   59HD       C  233   0.857   5.856   2.186 -0.2482 -0.1372 -0.1334
   59HD       C  234   0.480   6.094   2.227 -0.0486 -0.1047 -0.0451
   59HD       C  235   0.100   5.972   2.081 -0.2788 -0.1800  0.2152
   59HD       C  236  -0.412   5.958   2.198 -0.0311  0.1691  0.1081
   60HD       C  237   2.717   1.183   3.611 -0.0725  0.0302  0.1101
   60HD       C  238   2.875   0.866   3.797 -0.2213  0.3195  0.0641
   60HD       C  239   3.076   0.531   3.621 -0.0197  0.0896  0.1412
   60HD       C  240   2.855   0.124   3.518 -0.0925 -0.4330 -0.0961
   61HD       C  241   1.627   1.404   1.799 -0.3007 -0.1321  0.0695
   61HD       C  242   1.564   1.362   1.351 -0.1152 -0.0446  0.1097
   61HD       C  243   1.973   1.503   1.057 -0.0081  0.0923 -0.0928
   61HD       C  244   2.333   1.309   1.079  0.1098 -0.0529 -0.1081
   62HD       C  245   5.289   4.812   2.786 -0.0060  0.1111 -0.1169
   62HD       C  246   5.692   4.814   3.023  0.1660 -0.1913  0.1968
   62HD       C  247   6.127   4.895   3.011 -0.1450 -0.2383  0.1729
   62HD       C  248   6.373   5.108   3.305 -0.0660  0.2192 -0.0619
   63HD       C  249   1.499   4.764   3.121 -0.1925  0.0145  0.0417
   63HD       C  250   1.451   4.407   3.464  0.1733  0.1161 -0.1762
   63HD       C  251   1.121   4.079   3.455  0.1414 -0.0541 -0.1617
   63HD       C  252   0.752   4.001   3.188 -0.1902 -0.1370 -0.2137
   64HD       C  253   5.218   4.808   1.919 -0.1401  0.0222  0.0686
   64HD       C  254   5.282   5.154   2.187 -0.1450 -0.1525  0.1535
   64HD       C  255   5.594   5.374   2.266  0.2413  0.0340 -0.1203
   64HD       C  256   5.937   5.403   2.210  0.0366 -0.0325 -0.1148
   65HD       C  257   5.686   4.419   1.695 -0.1834 -0.2621  0.0089
   65HD       C  258   5.373   4.137   1.527  0.1067 -0.0864 -0.2448
   65HD       C  259   5.010   4.047   1.184  0.1402  0.0736  0.0417
   65HD       C  260   4.723   3.978   0.887  0.3691 -0.2596  0.1560
   66HD       C  261   2.164   1.863   1.992 -0.0804  0.0129 -0.0097
   66HD       C  262   1.729   1.761   2.163 -0.3165  0.0991  0.3022
   66HD       C  263   1.446   1.874   2.385 -0.0316 -0.0410 -0.0875
   66HD       C  264   1.014   1.825   2.648 -0.2283 -0.0595  0.1754
   67HD       C  265   4.965   3.360   4.855 -0.1068 -0.0497  0.1539
   67HD       C  266   5.108   3.379   5.230 -0.0731  0.2128  0.0567
   67HD       C  267   5.434   3.237   5.426 -0.1736 -0.1591  0.1588
   67HD       C  268   5.863   3.088   5.440  0.2326 -0.1290 -0.3543
   68HD       C  269   5.125   2.474   0.717  0.1255 -0.2884  0.2068
   68HD       C  270   5.386   2.335   0.439  0.1672  0.0615 -0.0963
   68HD       C  271   5.411   2.289  -0.056 -0.1894 -0.0566 -0.0687
   68HD       C  272   5.517   2.294  -0.496 -0.2565 -0.1543  0.0519
   69HD       C  273   4.569   2.151   1.288  0.1978  0.3169  0.0829
   69HD       C  274   4.383   2.283   0.912 -0.0464  0.2197  0.1375
   69HD       C  275   4.133   2.346   0.622 -0.0645 -0.0499 -0.0076
   69HD       C  276   4.347   2.144   0.375  0.0132 -0.2930 -0.3382
   70HD       C  277   7.363   4.257   2.293 -0.1508 -0.2551 -0.2142
   70HD       C  278   7.540   3.946   2.471 -0.3145  0.0964 -0.2896
   70HD       C  279   7.638   3.770   2.874  0.0378  0.0859  0.2164
   70HD       C  280   7.953   3.671   3.085 -0.1611 -0.1087  0.0957
   71HD       C  281   3.955   5.418   0.267 -0.0014 -0.0971 -0.0654
   71HD       C  282   3.666   5.101   0.204  0.2796  0.0149  0.1381
   71HD       C  283   3.560   4.858  -0.052  0.2111 -0.1867 -0.0200
   71HD       C  284   3.842   4.614  -0.290  0.2363  0.2152  0.0998
   72HD       C  285   1.463   5.576   3.509  0.0236 -0.2287  0.0344
   72HD       C  286   1.036   5.781   3.718 -0.2273 -0.0506 -0.0933
   72HD       C  287   0.656   5.484   3.760 -0.3207 -0.0058  0.1097
   72HD       C  288   0.232   5.439   3.670  0.1198  0.1661 -0.1358
   73HD       C  289   7.050   5.627   3.617  0.1405 -0.1615 -0.0004
   73HD       C  290   7.489   5.689   3.514  0.2606  0.1991 -0.0591
   73HD       C  291   7.871   5.771   3.337 -0.0639  0.0089 -0.1176
   73HD       C  292   8.255   5.801   3.405 -0.0766  0.0528 -0.2062
   74HD       C  293   6.062   4.420   6.449 -0.1556 -0.0441  0.2792
   74HD       C  294   6.017   4.870   6.337 -0.0774 -0.4225  0.1091
   74HD       C  295   6.138   5.205   6.030 -0.0227  0.3932 -0.0948
   74HD       C  296   6.576   5.192   5.781  0.0867  0.2018 -0.2157
   75HD       C  297   3.254   1.290   4.324 -0.0531 -0.0977 -0.2254
   75HD       C  298   3.392   0.926   4.434 -0.0210  0.0291  0.1784
   75HD       C  299   3.208   0.503   4.510  0.0566 -0.3867  0.0572
   75HD       C  300   2.854   0.176   4.493  0.1853  0.0774 -0.0945
   76HD       C  301   0.660   2.447   5.759  0.0802  0.1361  0.5438
   76HD       C  302   0.875   2.106   5.817 -0.1766 -0.1871  0.2622
   76HD       C  303   1.284   1.915   5.985 -0.0101 -0.1201  0.0186
   76HD       C  304   1.536   2.029   6.327 -0.0380  0.1661  0.1906
   77HD       C  305   1.303   6.311   4.627  0.2097  0.1341  0.0317
   77HD       C  306   1.253   6.612   4.693 -0.0796  0.1693  0.1058
   77HD       C  307   1.555   6.824   4.903 -0.0606  0.0006 -0.4881
   77HD       C  308   1.570   7.098   5.203  0.0075 -0.1275  0.0640
   78HD       C  309   5.819   3.323   1.897  0.1030  0.0956  0.1067
   78HD       C  310   6.058   2.933   2.039 -0.0251  0.4136 -0.3130
   78HD       C  311   6.023   2.572   1.728  0.5468  0.1985 -0.1740
   78HD       C  312   6.123   2.424   1.252  0.0638 -0.0298 -0.0298
   79HD       C  313   4.988   5.398   5.837 -0.0419  0.0218 -0.1106
   79HD       C  314   5.258   5.765   6.031 -0.3859  0.0486  0.0757
   79HD       C  315   5.386   6.207   5.912 -0.0126  0.2777  0.1128
   79HD       C  316   5.183   6.584   6.098  0.1081  0.1512 -0.2355
   80HD       C  317   3.561   5.126   4.187  0.0496  0.0622 -0.2222
   80HD       C  318   3.258   5.267   3.925  0.0900 -0.2207 -0.4476
   80HD       C  319   3.043   5.655   3.908  0.1120  0.1567  0.1295
   80HD       C  320   2.694   5.820   3.970 -0.2428 -0.2417  0.1298
   81HD       C  321   4.577   5.867   3.165  0.0160  0.1284 -0.1179
   81HD       C  322   4.878   5.907   3.438  0.1255 -0.0307 -0.0786
   81HD       C  323   5.169   6.244   3.337  0.0695  0.0265  0.3252
   81HD       C  324   5.330   6.702   3.252  0.0056 -0.2855 -0.5993
   82HD       C  325   0.079   3.172   0.269 -0.1047  0.1101 -0.0863
   82HD       C  326   0.088   3.549  -0.025 -0.1335  0.1014  0.2357
   82HD       C  327   0.480   3.837  -0.017  0.0933 -0.2356  0.0925
   82HD       C  328   0.807   3.873   0.047 -0.0927  0.1824 -0.1149
   83HD       C  329   2.071   7.099   5.609  0.1504 -0.3707  0.0389
   83HD       C  330   2.031   7.016   5.948  0.2810 -0.1086 -0.1066
   83HD       C  331   1.777   6.746   6.073  0.1106 -0.0810  0.0258
   83HD       C  332   1.388   6.844   6.359 -0.1318 -0.3114 -0.2784
   84HD       C  333   5.307   4.970   4.374  0.3962 -0.0110  0.2749
   84HD       C  334   5.648   5.154   4.618  0.0551 -0.2577  0.3017
   84HD       C  335   5.974   5.440   4.747 -0.0942  0.0424  0.0784
   84HD       C  336   6.265   5.649   4.964 -0.1514 -0.3161  0.0318
   85HD       C  337   3.041   1.661   6.017 -0.0028  0.0180  0.1367
   85HD       C  338   3.399   1.632   5.945  0.1404  0.0433  0.0988
   85HD       C  339   3.742   1.404   6.039  0.0732  0.0320  0.5100
   85HD       C  340   4.156   1.349   5.756 -0.0323  0.1782 -0.2628
   86HD       C  341   2.660   5.502   2.901 -0.0746  0.1921 -0.0220
   86HD       C  342   2.720   5.885   3.028  0.1983 -0.1221 -0.1351
   86HD       C  343   2.841   6.077   3.395  0.0755 -0.3811  0.1315
   86HD       C  344   2.952   6.521   3.403  0.1441 -0.1352 -0.0555
   87HD       C  345   4.943   1.593   3.839 -0.1269  0.3209  0.0862
   87HD       C  346   5.161   1.242   3.692  0.0329  0.2199 -0.0667
   87HD       C  347   5.474   0.902   3.716  0.1875 -0.0309 -0.0865
   87HD       C  348   5.556   0.409   3.741  0.0285  0.0653 -0.2289
   88HD       C  349   2.744   3.997   3.295 -0.1443  0.0922  0.0497
   88HD       C  350   2.650   3.588   3.031  0.0557 -0.2908  0.3535
   88HD       C  351   2.462   3.413   2.642 -0.0543 -0.1096 -0.0487
   88HD       C  352   2.641   3.256   2.289  0.2378  0.1525  0.2519
   89HD       C  353   0.153   0.864   6.993  0.3434  0.0978  0.0262
   89HD       C  354   0.512   1.073   6.981  0.0640  0.1312  0.1571
   89HD       C  355   0.601   1.466   6.980  0.1362 -0.2126  0.1152
   89HD       C  356   0.563   1.988   6.992 -0.0861 -0.0396  0.0639
   90HD       C  357   0.934   0.099   1.066 -0.1821 -0.0535  0.2852
   90HD       C  358   0.711   0.303   1.475  0.0120  0.1013 -0.1296
   90HD       C  359   0.480   0.502   1.794  0.3013  0.0226 -0.0843
   90HD       C  360   0.353   0.830   1.945  0.0258 -0.0081  0.2252
   91HD       C  361   5.989   5.957   6.269  0.2822 -0.3099 -0.0133
   91HD       C  362   6.195   5.859   6.520  0.1312 -0.1899 -0.0496
   91HD       C  363   6.372   5.730   6.906 -0.0857  0.2477 -0.1144
   91HD       C  364   6.456   5.586   7.300 -0.2799  0.0419 -0.0468
   92HD       C  365   6.789   5.416   4.038  0.2514 -0.1337 -0.1022
   92HD       C  366   6.917   5.815   4.247  0.2336 -0.0448  0.0798
   92HD       C  367   7.234   5.890   4.445 -0.1829  0.0538  0.2479
   92HD       C  368   7.571   6.111   4.610 -0.2030  0.0336 -0.0178
   93HD       C  369   6.776   0.036   0.020 -0.1988  0.0562 -0.1819
   93HD       C  370   6.620  -0.179   0.269  0.2619 -0.0812  0.1260
   93HD       C  371   6.710  -0.583   0.443 -0.2426  0.4003  0.3487
   93HD       C  372   6.768  -0.995   0.298  0.1546 -0.2411 -0.2564
   94HD       C  373   0.338   2.689   3.199 -0.0086 -0.0993  0.0135
   94HD       C  374   0.688   2.842   2.940 -0.0633  0.0547  0.0610
   94HD       C  375   1.089   2.829   2.670 -0.2873  0.0816  0.0743
   94HD       C  376   1.485   3.087   2.554  0.0156 -0.0183 -0.1119
   95HD       C  377   1.380   4.182   1.992 -0.2657 -0.1050 -0.3761
   95HD       C  378   1.617   4.461   2.143  0.0924  0.0248  0.0221
   95HD       C  379   1.956   4.687   2.321 -0.1230 -0.1526  0.2950
   95HD       C  380   2.264   4.981   2.376  0.0228 -0.0304 -0.2721
   96HD       C  381   5.749   6.539   5.886 -0.0306 -0.0749  0.0268
   96HD       C  382   6.077   6.879   5.814  0.0899  0.2085 -0.0593
   96HD       C  383   6.344   7.015   6.005 -0.2313  0.1741  0.2280
   96HD       C  384   6.697   7.344   5.933  0.1693  0.0293 -0.1450
   97HD       C  385   5.916   4.506   0.191  0.1769  0.1037 -0.1639
   97HD       C  386   5.713   4.203   0.430 -0.1201 -0.1672 -0.0591
   97HD       C  387   5.928   3.795   0.431 -0.1734  0.2438 -0.0639
   97HD       C  388   5.932   3.380   0.604 -0.3190 -0.3086  0.3567
   98HD       C  389   7.367   7.054   3.023  0.2747 -0.0797 -0.2308
   98HD       C  390   7.449   6.727   2.736  0.0575  0.1575  0.2407
   98HD       C  391   7.299   6.273   2.865 -0.0808  0.0257  0.1542
   98HD       C  392   7.458   5.929   3.067 -0.1221  0.3889 -0.0103
   99HD       C  393   7.075   1.715   5.892  0.0651 -0.1032  0.2150
   99HD       C  394   7.392   1.554   6.313  0.0857  0.0804 -0.2921
   99HD       C  395   7.468   1.729   6.655 -0.0395  0.0377 -0.1114
   99HD       C  396   7.692   1.929   6.956  0.0683  0.3034  0.2225
  100HD       C  397   7.336   5.864   5.380 -0.1011 -0.0669  0.1738
  100HD       C  398   7.177   5.992   5.005 -0.0550  0.1300  0.1712
  100HD       C  399   6.774   5.820   4.796 -0.0718  0.0235  0.1293
  100HD       C  400   6.708   5.493   4.522  0.3445 -0.1099  0.0263
  101HD       C  401   5.599   0.242   1.705 -0.0777  0.1244 -0.1694
  101HD       C  402   5.700   0.740   1.866 -0.0122  0.1199  0.2583
  101HD       C  403   5.551   1.139   1.931  0.0386 -0.0293  0.0096
  101HD       C  404   5.494   1.499   1.628  0.0018 -0.2369 -0.1836
  102HD       C  405   7.359   2.646   3.339  0.0175 -0.0531 -0.4514
  102HD       C  406   6.928   2.530   3.245 -0.3291  0.1274 -0.0201
  102HD       C  407   6.540   2.529   3.248 -0.0593  0.0914  0.2034
  102HD       C  408   6.179   2.521   3.308  0.0020  0.0476  0.3144
  103HD       C  409   1.887   0.205   1.333  0.1888 -0.0287  0.1980
  103HD       C  410   2.285   0.456   1.183 -0.1765 -0.0926  0.0734
  103HD       C  411   2.644   0.636   1.063 -0.0036  0.2515  0.0336
  103HD       C  412   2.672   1.013   0.769  0.1941 -0.2788  0.3065
  104HD       C  413   3.092   4.112   6.562  0.3147 -0.1176  0.1497
  104HD       C  414   2.884   4.376   6.282 -0.1701  0.0804  0.0900
  104HD       C  415   2.537   4.629   6.305  0.0162 -0.1320  0.0034
  104HD       C  416   2.420   5.057   6.376  0.1412 -0.1006 -0.1496
  105HD       C  417   7.640   5.363   7.101  0.1432  0.0455  0.3077
  105HD       C  418   7.283   5.527   7.326 -0.0634  0.1337  0.1021
  105HD       C  419   7.226   5.794   7.633  0.1022 -0.0750  0.0108
  105HD       C  420   7.005   5.893   8.007 -0.2273 -0.3206 -0.0463
  106HD       C  421   3.994   4.609   3.618 -0.2087 -0.1684  0.3794
  106HD       C  422   3.957   4.464   4.044  0.1200 -0.0456 -0.0763
  106HD       C  423   4.031   4.318   4.449  0.1620  0.2326 -0.3293
  106HD       C  424   3.900   4.421   4.940 -0.1036  0.1395  0.1976
  107HD       C  425   3.469   4.955   2.700  0.0624  0.1386  0.0516
  107HD       C  426   3.721   4.941   2.363  0.1867  0.0099 -0.0346
  107HD       C  427   4.149   4.928   2.369 -0.1418  0.0867 -0.0397
  107HD       C  428   4.560   5.055   2.529 -0.0349 -0.0554 -0.1948
  108HD       C  429   4.935   1.301   3.243 -0.0632 -0.3073  0.0866
  108HD       C  430   5.084   1.647   3.355 -0.0112  0.2991  0.1303
  108HD       C  431   5.143   2.069   3.197 -0.2757 -0.0132  0.0219
  108HD       C  432   5.180   2.433   3.475  0.0656  0.4154  0.0073
  109HD       C  433   7.456   3.487   3.419 -0.1408  0.1810 -0.1170
  109HD       C  434   7.550   3.865   3.450  0.2327  0.1485 -0.0698
  109HD       C  435   7.795   4.185   3.323  0.1699  0.1454 -0.1478
  109HD       C  436   7.813   4.619   3.268 -0.3434 -0.4409  0.0120
  110HD       C  437   3.809   6.324   4.784  0.1753 -0.0345  0.1090
  110HD       C  438   3.351   6.348   4.860  0.1572  0.1768 -0.1776
  110HD       C  439   2.864   6.377   4.860  0.1997 -0.1875  0.1924
  110HD       C  440   2.504   6.649   5.109 -0.1095  0.1730  0.1481
  111HD       C  441   4.598   4.501   5.754 -0.0158  0.3010  0.0403
  111HD       C  442   4.709   4.869   5.811  0.3045 -0.3184 -0.1887
  111HD       C  443   4.642   5.278   5.517 -0.1857 -0.0812  0.1966
  111HD       C  444   4.534   5.651   5.263  0.2537  0.0585  0.2220
  112HD       C  445   1.970   0.262   7.118 -0.1252 -0.0802 -0.0401
  112HD       C  446   2.103   0.140   6.750  0.3156 -0.3115  0.2448
  112HD       C  447   2.378   0.098   6.319  0.1214  0.3136  0.0412
  112HD       C  448   2.632   0.269   6.070  0.1242 -0.1893 -0.1954
  113HD       C  449   6.519   1.305   6.944 -0.0275 -0.1791 -0.1828
  113HD       C  450   6.445   1.298   7.359 -0.2228 -0.5040  0.1941
  113HD       C  451   6.522   1.407   7.763 -0.2914  0.2458  0.1189
  113HD       C  452   6.525   1.156   8.088 -0.1638  0.3778 -0.3650
  114HD       C  453   3.189   0.130   2.919  0.0726 -0.2819 -0.0053
  114HD       C  454   2.910   0.438   3.158  0.0067  0.0730  0.1943
  114HD       C  455   2.820   0.809   2.846 -0.1651  0.1369 -0.1835
  114HD       C  456   2.728   0.963   2.439 -0.1315  0.0203 -0.2555
  115HD       C  457   3.095   6.071   0.574 -0.1001  0.0227 -0.1648
  115HD       C  458   3.178   6.100   1.055 -0.1057  0.2661  0.0439
  115HD       C  459   3.310   5.991   1.489 -0.3212  0.1577  0.0246
  115HD       C  460   3.744   5.978   1.572  0.1988 -0.4334  0.0427
  116HD       C  461   5.805   5.662   2.621  0.0073 -0.0787  0.0048
  116HD       C  462   5.694   6.146   2.552  0.0329 -0.2958  0.1663
  116HD       C  463   5.602   6.549   2.366  0.1882 -0.1064  0.0217
  116HD       C  464   5.454   6.889   2.062 -0.0502  0.3748  0.0931
  117HD       C  465   4.283   4.233   3.446 -0.1973  0.2298  0.0435
  117HD       C  466   4.390   4.679   3.244  0.0190  0.2765 -0.1252
  117HD       C  467   4.472   5.039   3.053  0.2695 -0.3256 -0.1508
  117HD       C  468   4.189   5.229   2.852  0.0527  0.1832 -0.0856
  118HD       C  469   1.322   0.955   4.244 -0.2736 -0.0846 -0.0640
  118HD       C  470   1.662   0.898   4.439  0.3297 -0.1814 -0.1101
  118HD       C  471   2.021   0.779   4.528 -0.0940 -0.1210 -0.0960
  118HD       C  472   2.441   0.923   4.576  0.0222 -0.0992 -0.2344
  119HD       C  473   5.945   3.823   5.212  0.0774 -0.3436  0.2772
  119HD       C  474   5.726   3.428   5.071  0.1588 -0.1156 -0.3119
  119HD       C  475   5.419   3.118   4.968 -0.1193 -0.2675 -0.2729
  119HD       C  476   5.361   2.726   5.237 -0.0961  0.2320 -0.3296
  120HD       C  477   7.122   3.562   2.384 -0.0024 -0.0365 -0.0136
  120HD       C  478   6.720   3.378   2.205  0.0245  0.0066 -0.0934
  120HD       C  479   6.376   3.332   2.054  0.0065 -0.0112  0.0640
  120HD       C  480   6.364   3.124   1.647 -0.1834 -0.1051 -0.0994
  121HD       C  481   3.992   3.339   3.232  0.1026  0.0342 -0.0149
  121HD       C  482   3.698   3.381   2.845  0.2710 -0.0811 -0.0052
  121HD       C  483   3.880   3.630   2.476  0.0871  0.0506  0.2429
  121HD       C  484   4.334   3.857   2.496 -0.1188 -0.0536  0.1752
  122HD       C  485   4.438   0.745   4.444 -0.0617  0.1008 -0.0443
  122HD       C  486   4.282   0.354   4.666  0.1387 -0.2456 -0.0661
  122HD       C  487   4.183   0.183   5.067  0.1122  0.0933 -0.1038
  122HD       C  488   3.908  -0.138   5.281  0.1104 -0.2191 -0.2449
  123HD       C  489   3.219   6.877   3.614  0.0106 -0.1713  0.0660
  123HD       C  490   3.531   6.894   3.879 -0.1360 -0.2224  0.2060
  123HD       C  491   3.851   6.658   3.819 -0.0138  0.1766  0.2558
  123HD       C  492   4.191   6.474   3.764 -0.0080  0.1237  0.3411
  124HD       C  493   0.221   6.618   4.658  0.0883  0.2726  0.2690
  124HD       C  494   0.724   6.654   4.601 -0.0593 -0.2017  0.3196
  124HD       C  495   1.030   6.553   4.265 -0.2018  0.0531 -0.2076
  124HD       C  496   1.314   6.801   3.912 -0.0147 -0.2709 -0.1508
  125HD       C  497   6.180   3.743   3.620  0.2009  0.2699  0.2185
  125HD       C  498   6.340   3.377   3.836 -0.0387 -0.1433  0.0040
  125HD       C  499   6.155   3.191   4.258  0.1421  0.1400  0.1230
  125HD       C  500   5.794   3.198   4.571 -0.3854 -0.0308 -0.2415
  126HD       C  501   3.363   3.482   5.309  0.0219  0.3218 -0.0148
  126HD       C  502   3.586   3.243   5.034  0.1187  0.2212 -0.1026
  126HD       C  503   3.842   3.219   4.587  0.5220  0.0865  0.0274
  126HD       C  504   4.130   2.954   4.483  0.1216  0.0403 -0.1439
  127HD       C  505   7.403   2.498   4.873  0.1779 -0.1182  0.0218
  127HD       C  506   6.970   2.504   4.952 -0.1523 -0.1170  0.2155
  127HD       C  507   6.606   2.558   5.032 -0.0368 -0.2741 -0.2331
  127HD       C  508   6.434   2.312   5.205 -0.2942 -0.1054 -0.2903
  128HD       C  509   7.627   4.158   1.885  0.0301  0.3790  0.1313
  128HD       C  510   7.969   4.009   2.017  0.3094  0.1013  0.1493
  128HD       C  511   8.369   4.012   2.195  0.0840 -0.2669  0.0253
  128HD       C  512   8.695   3.804   2.268  0.1528  0.0757  0.1955
  129HD       C  513   0.334   2.233   6.102 -0.0564  0.1553 -0.0755
  129HD       C  514   0.278   2.046   6.537  0.2383 -0.4325 -0.0460
  129HD       C  515   0.176   2.417   6.803 -0.3160  0.0745  0.0437
  129HD       C  516   0.301   2.300   7.280 -0.1487  0.0548  0.2669
  130HD       C  517   0.856   6.326   2.555  0.1612 -0.2365  0.0322
  130HD       C  518   0.521   6.453   2.518  0.1046  0.0368 -0.0072
  130HD       C  519   0.115   6.429   2.344 -0.2618  0.3280 -0.1319
  130HD       C  520  -0.309   6.472   2.077  0.1285  0.1798  0.0057
  131HD       C  521   1.493   0.839   0.540 -0.1917 -0.0050  0.0173
  131HD       C  522   1.103   0.993   0.592  0.0134 -0.0917 -0.0195
  131HD       C  523   0.681   0.794   0.519 -0.1849 -0.3637  0.0514
  131HD       C  524   0.372   0.667   0.188 -0.0456 -0.1746 -0.2472
  132HD       C  525   7.167   2.577   5.827  0.0748 -0.1856 -0.0220
  132HD       C  526   7.384   2.387   6.192 -0.2096  0.1429 -0.0212
  132HD       C  527   7.446   2.075   6.286 -0.1689 -0.2013  0.1052
  132HD       C  528   7.824   1.672   6.129  0.1372  0.3931  0.0703
  133HD       C  529   1.041   0.879   3.688 -0.2258  0.2242 -0.0653
  133HD       C  530   1.319   1.083   3.469  0.1249  0.3018  0.5914
  133HD       C  531   1.236   1.353   3.108 -0.1223 -0.0243  0.2347
  133HD       C  532   1.552   1.500   2.758  0.1990 -0.3624 -0.2232
  134HD       C  533   7.113   3.720   1.107 -0.1628 -0.2030  0.0783
  134HD       C  534   7.045   4.048   1.361 -0.1271  0.0109  0.0231
  134HD       C  535   6.707   4.137   1.602 -0.0185 -0.1679  0.1262
  134HD       C  536   6.527   4.356   1.981 -0.1599  0.2300  0.1423
  135HD       C  537   6.421   4.071   6.264 -0.2640 -0.1220 -0.1044
  135HD       C  538   6.157   3.925   5.948  0.0760 -0.1338 -0.2375
  135HD       C  539   6.310   3.716   5.586 -0.0342  0.3011 -0.3575
  135HD       C  540   6.269   3.418   5.350  0.3811  0.1863  0.0038
  136HD       C  541   2.159   5.715   4.928  0.0982 -0.2446  0.0804
  136HD       C  542   2.080   5.406   5.272 -0.1704 -0.2086 -0.1500
  136HD       C  543   1.789   5.156   5.424  0.0456  0.1618 -0.1461
  136HD       C  544   1.322   4.987   5.413 -0.1257  0.1583 -0.1272
  137HD       C  545   1.972   0.588   0.514 -0.0011  0.2724  0.1453
  137HD       C  546   1.758   0.546   0.950 -0.0590  0.1976  0.1170
  137HD       C  547   1.808   0.762   1.251  0.1936  0.3229 -0.0461
  137HD       C  548   1.993   1.088   1.346  0.1962  0.2539  0.1973
  138HD       C  549   4.910   6.530   5.318 -0.0130  0.0503 -0.0439
  138HD       C  550   5.200   6.171   5.399 -0.0291  0.1554 -0.2441
  138HD       C  551   5.342   5.772   5.350 -0.2283  0.0418  0.1678
  138HD       C  552   5.352   5.328   5.449 -0.0000 -0.0685 -0.1246
  139HD       C  553   2.149   5.808   0.753  0.0809  0.3636  0.2203
  139HD       C  554   2.126   5.855   1.099 -0.0220 -0.3368  0.0463
  139HD       C  555   2.199   6.239   1.285 -0.0464 -0.2973  0.0383
  139HD       C  556   2.232   6.367   1.671  0.1055 -0.0111 -0.1986
  140HD       C  557   1.799   4.914   4.496 -0.0151  0.2513  0.2077
  140HD       C  558   1.740   5.180   4.162 -0.1940 -0.0609 -0.1660
  140HD       C  559   1.901   5.455   3.869 -0.1343  0.0889  0.0584
  140HD       C  560   1.950   5.853   3.584  0.1099  0.1525 -0.3193
  141HD       C  561   4.335   6.185   4.252  0.0250  0.2407 -0.1583
  141HD       C  562   4.187   6.586   4.459 -0.1399  0.1517 -0.1375
  141HD       C  563   4.262   6.980   4.687 -0.2632 -0.0774  0.0585
  141HD       C  564   4.674   7.316   4.463  0.2035 -0.0798 -0.0336
  142HD       C  565   3.743   1.629   4.760  0.1636 -0.1123 -0.1985
  142HD       C  566   4.027   1.499   5.097  0.0925  0.1035 -0.0657
  142HD       C  567   4.461   1.543   5.383  0.6086 -0.0689  0.1517
  142HD       C  568   4.538   1.701   5.878 -0.1283  0.1289 -0.0709
  143HD       C  569   0.984   3.503   6.857  0.0307  0.2326 -0.3653
  143HD       C  570   1.097   3.422   7.274  0.0508 -0.1144 -0.1623
  143HD       C  571   1.247   3.623   7.577  0.0335 -0.1051  0.2655
  143HD       C  572   1.562   3.717   7.688  0.1599  0.0424  0.3431
  144HD       C  573   4.789   0.966   6.201 -0.1649 -0.2949  0.0603
  144HD       C  574   4.482   1.245   6.218  0.0377 -0.1908 -0.1259
  144HD       C  575   4.519   1.583   6.388 -0.2331  0.0608 -0.1244
  144HD       C  576   4.902   1.770   6.712  0.1252  0.1733 -0.0630
  145HD       C  577   0.328   6.848   2.808  0.0323 -0.0422 -0.2312
  145HD       C  578   0.261   6.990   3.249  0.1812  0.0793  0.3477
  145HD       C  579   0.001   7.005   3.585  0.1621  0.0461 -0.1775
  145HD       C  580  -0.457   6.952   3.466 -0.1452  0.1941 -0.3144
  146HD       C  581   5.187   0.057   4.792 -0.1116 -0.0450  0.1669
  146HD       C  582   5.370  -0.056   4.395 -0.0511 -0.0942  0.2077
  146HD       C  583   5.646   0.152   4.231 -0.0259  0.0891 -0.0043
  146HD       C  584   6.102   0.277   4.346  0.1457 -0.1911 -0.1464
  147HD       C  585   4.907   4.638   6.912 -0.2762  0.2753  0.0396
  147HD       C  586   4.781   4.648   6.452 -0.3555 -0.0726 -0.2197
  147HD       C  587   4.779   4.370   6.170  0.2847  0.0401 -0.0369
  147HD       C  588   4.835   4.107   5.864 -0.2258 -0.0180 -0.2217
  148HD       C  589   6.001   6.093   1.703  0.3163 -0.1346 -0.3601
  148HD       C  590   5.660   6.286   1.958  0.0676  0.1548 -0.0703
  148HD       C  591   5.222   6.300   2.187 -0.1348  0.2053 -0.0879
  148HD       C  592   4.862   6.284   2.301  0.0751  0.0563 -0.3822
  149HD       C  593   0.394   1.130   6.074 -0.0432  0.2013  0.2690
  149HD       C  594   0.137   1.117   6.475  0.1152 -0.0097 -0.2762
  149HD       C  595   0.115   1.390   6.883  0.2791  0.1837  0.0415
  149HD       C  596  -0.180   1.591   7.189  0.0597  0.1373  0.2005
  150HD       C  597   5.750   4.062   6.265 -0.0583 -0.4383  0.1504
  150HD       C  598   5.540   4.218   6.517  0.1889  0.2050 -0.0655
  150HD       C  599   5.450   4.389   6.978  0.1493  0.2163 -0.2161
  150HD       C  600   5.449   4.589   7.243  0.0886 -0.1864 -0.1610
  151HD       C  601   7.273   2.132   2.178 -0.1446  0.1655  0.1424
  151HD       C  602   7.038   1.806   1.960 -0.2062 -0.0546 -0.3372
  151HD       C  603   7.184   1.394   1.982  0.1535 -0.2974 -0.2547
  151HD       C  604   7.242   0.973   2.287  0.1179  0.0436 -0.0473
  152HD       C  605   3.244   0.772   3.223 -0.1000  0.1459 -0.0011
  152HD       C  606   3.575   0.583   3.505 -0.1428 -0.2880 -0.1868
  152HD       C  607   3.972   0.518   3.659 -0.0343 -0.1553 -0.0861
  152HD       C  608   4.290   0.721   3.931  0.0165 -0.0901  0.1558
  153HD       C  609   5.453   4.756   1.007 -0.0521 -0.1435  0.0052
  153HD       C  610   5.242   5.044   1.177  0.1629 -0.2427  0.2096
  153HD       C  611   5.128   5.291   1.483  0.2508 -0.0786 -0.1044
  153HD       C  612   4.927   5.278   1.852 -0.2004  0.1152 -0.1086
  154HD       C  613   1.256   4.946   4.177 -0.1625  0.2379  0.0305
  154HD       C  614   1.338   5.313   4.513 -0.0030  0.0445 -0.4082
  154HD       C  615   1.332   5.853   4.409  0.0522  0.2472 -0.1185
  154HD       C  616   1.045   5.957   4.172  0.1838 -0.1677 -0.1612
  155HD       C  617   0.040   4.831   3.677  0.1544 -0.1496 -0.0158
  155HD       C  618   0.466   5.039   3.915 -0.0908  0.2145 -0.0259
  155HD       C  619   0.533   5.364   4.228 -0.1901 -0.3275 -0.2054
  155HD       C  620   0.833   5.579   4.506 -0.1623 -0.0212 -0.0632
  156HD       C  621   6.416   3.859   6.810 -0.1004  0.1166 -0.0052
  156HD       C  622   6.722   3.762   7.125 -0.1413 -0.1147  0.1908
  156HD       C  623   6.890   3.279   7.095 -0.0861 -0.1324 -0.1103
  156HD       C  624   7.122   3.102   7.462  0.4136  0.3187  0.0933
  157HD       C  625   0.412   1.569   6.545  0.2798  0.0502 -0.2257
  157HD       C  626   0.850   1.778   6.674  0.0183 -0.0604  0.0178
  157HD       C  627   1.285   1.543   6.525  0.0208 -0.0035 -0.1503
  157HD       C  628   1.735   1.450   6.459  0.0319  0.2099  0.3145
  158HD       C  629   6.796   2.551   5.475 -0.1158  0.0480  0.0676
  158HD       C  630   6.973   2.982   5.281 -0.0051  0.1100 -0.4637
  158HD       C  631   6.704   3.236   5.184  0.1052  0.1219  0.1004
  158HD       C  632   6.737   3.606   5.161  0.0491  0.0761 -0.2468
  159HD       C  633   3.561   0.972   2.533 -0.1772 -0.0231 -0.2589
  159HD       C  634   3.239   1.107   2.607 -0.0034 -0.0410 -0.0367
  159HD       C  635   2.868   1.376   2.677 -0.0410 -0.0186 -0.0757
  159HD       C  636   2.441   1.584   2.610 -0.0477 -0.1107 -0.0758
  160HD       C  637   3.488   6.390   6.529  0.0592 -0.1768 -0.1307
  160HD       C  638   3.109   6.659   6.662 -0.2596 -0.1537  0.1430
  160HD       C  639   2.716   6.830   6.792 -0.0035  0.0630  0.1000
  160HD       C  640   2.343   6.907   6.699  0.0466  0.1759  0.0382
  161HD       C  641   4.167   4.914   1.508 -0.1510 -0.2604 -0.3394
  161HD       C  642   4.360   4.581   1.791  0.2280  0.1010  0.2360
  161HD       C  643   4.443   4.083   2.000  0.1859  0.2115 -0.1654
  161HD       C  644   4.816   3.872   1.857 -0.3650  0.0700  0.1788
  162HD       C  645   6.616   4.820   5.416  0.0550 -0.0902  0.0691
  162HD       C  646   6.797   4.547   5.659  0.1249  0.2367  0.0876
  162HD       C  647   6.894   4.310   5.397  0.0725  0.1683 -0.1346
  162HD       C  648   6.766   4.099   4.959 -0.1646  0.1392  0.1711
  163HD       C  649   0.286   3.229   1.982 -0.1352 -0.0302  0.1962
  163HD       C  650   0.012   2.988   1.727  0.1911  0.4808 -0.1104
  163HD       C  651   0.021   2.624   1.530  0.1035 -0.2810  0.2544
  163HD       C  652  -0.080   2.207   1.522 -0.1016 -0.0407  0.2144
  164HD       C  653   1.801   0.279   5.313  0.2353  0.1528  0.1994
  164HD       C  654   1.870   0.138   4.853  0.3340  0.0457  0.2382
  164HD       C  655   1.810   0.329   4.573  0.3392  0.0621 -0.2756
  164HD       C  656   1.758   0.365   4.116 -0.0583  0.0464 -0.2371
  165HD       C  657   2.345   3.105   5.936 -0.0292  0.1737 -0.1514
  165HD       C  658   2.401   2.673   5.834  0.1596 -0.0341  0.1653
  165HD       C  659   2.489   2.349   6.193 -0.1553  0.2127 -0.1722
  165HD       C  660   2.524   2.425   6.674 -0.1916  0.2540 -0.1443
  166HD       C  661   6.837   1.299   6.061 -0.0690  0.0563  0.2186
  166HD       C  662   6.623   1.534   5.684 -0.1966 -0.1053  0.1251
  166HD       C  663   6.648   1.886   5.421  0.1240  0.1509 -0.2441
  166HD       C  664   7.056   2.071   5.373  0.1581  0.2290 -0.4717
  167HD       C  665   0.850   0.214   6.730  0.0457 -0.2185  0.0394
  167HD       C  666   0.417   0.447   6.967 -0.0753 -0.0053 -0.1054
  167HD       C  667  -0.048   0.427   6.912  0.2440 -0.2329 -0.0618
  167HD       C  668  -0.325   0.386   6.592 -0.0591 -0.1305 -0.4656
  168HD       C  669   0.461   3.759   4.206  0.2761 -0.2564  0.0325
  168HD       C  670   0.895   3.910   4.284 -0.2104  0.1276 -0.3266
  168HD       C  671   1.334   4.081   4.262 -0.0085  0.2623  0.0043
  168HD       C  672   1.801   4.080   4.412 -0.0469 -0.3080  0.1811
  169HD       C  673   1.226   4.455   3.918 -0.2724 -0.0571 -0.4504
  169HD       C  674   1.672   4.738   3.858 -0.0169 -0.1402  0.2728
  169HD       C  675   2.085   4.863   3.832  0.2230 -0.3210  0.0934
  169HD       C  676   2.304   5.031   4.190 -0.2082  0.3211 -0.2561
  170HD       C  677   2.696   4.499   4.489 -0.2649  0.0176  0.5051
  170HD       C  678   3.031   4.718   4.713  0.1563  0.1375 -0.4268
  170HD       C  679   2.978   5.042   4.998 -0.1271  0.3804 -0.0536
  170HD       C  680   3.093   5.421   5.100  0.1579 -0.0731  0.1544
  171HD       C  681   0.554   4.212   5.168  0.0781  0.1675  0.1330
  171HD       C  682   0.609   4.095   5.529 -0.0908  0.0060  0.3219
  171HD       C  683   0.467   4.023   5.914  0.0669  0.1330 -0.0430
  171HD       C  684   0.335   4.082   6.358  0.4282 -0.2132  0.2427
  172HD       C  685   7.463   1.112   0.328 -0.0399 -0.0053  0.0560
  172HD       C  686   7.109   0.909   0.506 -0.0888  0.5278 -0.0905
  172HD       C  687   6.828   0.660   0.697  0.1271 -0.0293 -0.1226
  172HD       C  688   6.425   0.489   0.877  0.1561  0.2413  0.1460
  173HD       C  689   5.970   4.395   6.923 -0.3532  0.2573  0.0666
  173HD       C  690   5.943   4.019   6.706 -0.3490 -0.2323 -0.2520
  173HD       C  691   6.093   3.683   6.410 -0.0589 -0.0642 -0.1815
  173HD       C  692   6.371   3.522   6.165 -0.1254 -0.0091  0.4153
  174HD       C  693   5.960   1.569   3.165 -0.0108 -0.3721  0.1868
  174HD       C  694   6.147   1.618   2.833 -0.0180 -0.3096 -0.1084
  174HD       C  695   6.355   1.332   2.502  0.1457 -0.4119 -0.2316
  174HD       C  696   6.688   0.995   2.294  0.1675 -0.2090  0.1756
  175HD       C  697   4.383   2.251   1.734  0.0442  0.2952 -0.0680
  175HD       C  698   4.826   2.104   1.752  0.1832 -0.1981 -0.0191
  175HD       C  699   5.131   2.465   1.680  0.0524 -0.1510  0.1138
  175HD       C  700   5.466   2.481   1.410  0.1223  0.0242  0.2169
  176HD       C  701   4.323   0.702   0.673 -0.1629  0.2742  0.3190
  176HD       C  702   4.349   1.071   0.322 -0.0268 -0.1809 -0.2918
  176HD       C  703   4.142   1.563   0.277 -0.1057  0.1824  0.1836
  176HD       C  704   3.948   1.899   0.135 -0.3758  0.1689  0.0808
  177HD       C  705   1.110   3.305   2.313  0.1393  0.3814  0.0344
  177HD       C  706   0.902   3.297   2.714  0.0976 -0.1095  0.1315
  177HD       C  707   0.441   3.265   2.700 -0.0409 -0.0370 -0.1281
  177HD       C  708   0.165   2.965   2.402  0.3328  0.0657 -0.1688
  178HD       C  709   7.536   5.774   0.857 -0.0488  0.0032 -0.0728
  178HD       C  710   7.416   6.190   0.972  0.3793 -0.0650 -0.1720
  178HD       C  711   7.163   6.594   1.068  0.2063  0.0977  0.2116
  178HD       C  712   6.941   6.712   1.484 -0.0008  0.0656 -0.0944
  179HD       C  713   4.276   5.452   3.417 -0.0237  0.0082 -0.0724
  179HD       C  714   4.455   5.816   3.683 -0.1509 -0.1242 -0.1821
  179HD       C  715   4.615   6.260   3.807 -0.2747 -0.1178  0.1078
  179HD       C  716   4.696   6.628   3.646  0.1859  0.2686  0.0353
  180HD       C  717   6.174   3.499   1.004  0.0705  0.0042 -0.3154
  180HD       C  718   6.421   3.648   0.646  0.3198 -0.0683  0.1167
  180HD       C  719   6.349   3.562   0.214  0.0532 -0.1040 -0.0743
  180HD       C  720   6.162   3.493  -0.142  0.2018  0.1927 -0.2592
  181HD       C  721   5.747   2.657   2.398  0.0458 -0.2782  0.1211
  181HD       C  722   5.438   2.440   2.122 -0.0701 -0.0184  0.2894
  181HD       C  723   5.317   2.015   1.829  0.3220  0.1415 -0.0291
  181HD       C  724   5.657   1.969   1.475 -0.1717  0.0257  0.1181
  182HD       C  725   5.959   2.215   2.961 -0.2534 -0.0131 -0.3127
  182HD       C  726   5.555   2.313   2.743 -0.1340 -0.0406  0.2148
  182HD       C  727   5.315   2.639   2.539  0.0565  0.2451 -0.1962
  182HD       C  728   5.009   2.789   2.624 -0.1204 -0.1353 -0.3388
  183HD       C  729   5.038   1.035   0.108  0.2011  0.0558  0.1963
  183HD       C  730   5.102   0.577   0.177  0.1832 -0.1356  0.2776
  183HD       C  731   4.830   0.126   0.215 -0.2483 -0.2232 -0.3206
  183HD       C  732   4.598  -0.230  -0.110 -0.2290 -0.0652  0.2376
  184HD       C  733   6.462   0.829   0.344  0.1107 -0.1410  0.2429
  184HD       C  734   6.596   0.391   0.382 -0.3026 -0.2441  0.0516
  184HD       C  735   6.832   0.065   0.672  0.3720 -0.1026  0.1110
  184HD       C  736   6.710  -0.327   0.855  0.0102  0.1138  0.1179
  185HD       C  737   5.510   6.235   0.706 -0.0022 -0.0749  0.1205
  185HD       C  738   5.826   6.372   0.393 -0.2205  0.1559 -0.0688
  185HD       C  739   5.691   6.595   0.090 -0.2057  0.1797  0.0559
  185HD       C  740   5.446   6.550  -0.309 -0.0800  0.1282  0.3323
  186HD       C  741   1.539   0.042   2.835 -0.0002 -0.2333  0.1844
  186HD       C  742   1.654   0.168   3.236 -0.3646 -0.1696 -0.3037
  186HD       C  743   1.687   0.044   3.667 -0.0509 -0.1445 -0.2603
  186HD       C  744   1.745  -0.190   4.049 -0.1290  0.2271  0.2064
  187HD       C  745   1.619   2.223   3.471  0.0567  0.2481 -0.1406
  187HD       C  746   1.367   2.141   3.284  0.1217  0.2009 -0.0818
  187HD       C  747   1.035   1.887   3.200  0.0830 -0.0220 -0.1342
  187HD       C  748   0.703   1.544   2.996 -0.0797  0.3747  0.0448
  188HD       C  749   6.834   6.682   3.894 -0.0628  0.5639 -0.1522
  188HD       C  750   6.921   6.519   3.481 -0.0673  0.0373  0.0661
  188HD       C  751   7.150   6.174   3.344 -0.1034  0.0796  0.3044
  188HD       C  752   7.549   6.187   3.538  0.1002 -0.1132  0.1889
  189HD       C  753   2.275   3.710   4.034 -0.0597  0.0264 -0.2380
  189HD       C  754   2.100   4.075   3.928  0.1569 -0.2786 -0.2429
  189HD       C  755   1.734   4.229   3.902 -0.1182  0.0292 -0.1920
  189HD       C  756   1.547   4.543   4.275  0.1133  0.0016 -0.2115
  190HD       C  757   4.192   5.106   4.502 -0.1542  0.0893 -0.0482
  190HD       C  758   4.370   4.833   4.144  0.1925  0.1054  0.0874
  190HD       C  759   4.786   4.912   4.218 -0.2118  0.0804  0.2794
  190HD       C  760   4.951   5.317   4.276  0.0617  0.3123 -0.0054
  191HD       C  761   2.307   1.546   0.608 -0.1017  0.2434 -0.1749
  191HD       C  762   2.301   1.928   0.742  0.0938  0.2806  0.1715
  191HD       C  763   2.467   2.264   0.673 -0.0449 -0.2008  0.0346
  191HD       C  764   2.603   2.626   0.649 -0.3294  0.2402 -0.2958
  192HD       C  765   7.505   4.554   0.255 -0.1889 -0.1197 -0.0483
  192HD       C  766   7.652   4.499   0.716 -0.0432 -0.0791 -0.1166
  192HD       C  767   7.889   4.269   0.851 -0.2558 -0.2355  0.1396
  192HD       C  768   8.168   4.035   0.694 -0.1469 -0.0919  0.1472
  193HD       C  769   0.988   6.939   2.085  0.1038  0.0382  0.3117
  193HD       C  770   0.688   6.865   1.735 -0.4722 -0.1809 -0.0392
  193HD       C  771   0.366   6.664   1.454 -0.0155 -0.2164 -0.4548
  193HD       C  772   0.259   6.231   1.400  0.2683  0.0186 -0.0151
  194HD       C  773   4.605   5.309   1.400 -0.2004 -0.0065  0.0448
  194HD       C  774   4.256   5.612   1.468 -0.0279 -0.0441 -0.0975
  194HD       C  775   4.021   5.762   1.183  0.0276  0.0267  0.2056
  194HD       C  776   3.991   5.571   0.735  0.1593  0.1274 -0.3635
  195HD       C  777   3.839   1.387   2.229 -0.0254 -0.2532 -0.0941
  195HD       C  778   4.283   1.347   2.171 -0.2526  0.2657  0.1589
  195HD       C  779   4.399   0.877   2.094 -0.0187  0.0837 -0.0020
  195HD       C  780   4.358   0.661   1.776 -0.0458  0.1662 -0.1682
  196HD       C  781   6.914   1.721   6.414  0.3220 -0.0335  0.0332
  196HD       C  782   6.653   1.789   6.681  0.1291 -0.0957 -0.1585
  196HD       C  783   6.646   1.782   7.171 -0.0925  0.3354  0.1269
  196HD       C  784   6.259   1.827   7.484  0.0626 -0.0897  0.2817
  197HD       C  785   2.207   1.432   0.167 -0.0803 -0.0796  0.1150
  197HD       C  786   2.627   1.340   0.252  0.3778 -0.1630 -0.1561
  197HD       C  787   2.869   0.931   0.297  0.3032 -0.0108 -0.2347
  197HD       C  788   2.988   0.677   0.632 -0.2427 -0.1188 -0.0709
  198HD       C  789   3.676   1.107   3.465 -0.1044 -0.0876  0.1659
  198HD       C  790   3.541   1.214   3.135  0.1330  0.0375 -0.0040
  198HD       C  791   3.270   1.462   2.979  0.0759 -0.0292 -0.0175
  198HD       C  792   3.270   1.854   3.214  0.2146 -0.0380  0.2396
  199HD       C  793   3.936   6.334   0.334 -0.1862  0.1433  0.1331
  199HD       C  794   3.736   5.951   0.189 -0.1916  0.0236  0.1593
  199HD       C  795   3.499   5.542   0.203  0.2475  0.1414  0.1207
  199HD       C  796   3.001   5.579   0.422  0.1834 -0.0473 -0.1422
  200HD       C  797   3.929   2.364   5.208 -0.0504 -0.0811 -0.3521
  200HD       C  798   3.899   2.525   5.653 -0.1745  0.2658  0.1559
  200HD       C  799   4.080   2.779   5.915 -0.1648 -0.2123  0.3706
  200HD       C  800   4.031   2.946   6.253  0.0660  0.0041 -0.4523
  201HD       C  801   0.466   1.872   3.530  0.0866  0.1480  0.1725
  201HD       C  802   0.917   1.993   3.674  0.0560  0.1610  0.1001
  201HD       C  803   1.301   1.881   3.869 -0.3566  0.0469 -0.2844
  201HD       C  804   1.506   1.936   4.301 -0.0618  0.2234 -0.5326
  202HD       C  805   3.685   5.304   6.998 -0.1037 -0.0076 -0.2774
  202HD       C  806   3.544   5.746   6.943 -0.0255 -0.0606 -0.1459
  202HD       C  807   3.469   5.918   6.564 -0.3533 -0.1894 -0.2180
  202HD       C  808   3.394   5.919   6.096  0.1282 -0.1486 -0.1037
  203HD       C  809   6.526   4.390   4.533  0.2355  0.0789 -0.0505
  203HD       C  810   6.514   3.953   4.300 -0.0524 -0.0359  0.0997
  203HD       C  811   6.209   3.818   4.116 -0.0952  0.1512 -0.0818
  203HD       C  812   5.807   3.547   4.057 -0.2337 -0.0400  0.2818
  204HD       C  813   1.451   3.041   5.563 -0.1948  0.1129  0.3413
  204HD       C  814   1.362   3.417   5.774  0.0560  0.2032 -0.1661
  204HD       C  815   1.126   3.670   6.098  0.2733 -0.2128  0.1720
  204HD       C  816   1.246   3.520   6.384  0.1864 -0.2541  0.1385
  205HD       C  817   3.804   2.779   3.211  0.1467  0.2279  0.2015
  205HD       C  818   4.237   2.592   3.197 -0.1891 -0.1021  0.0626
  205HD       C  819   4.354   2.274   3.421 -0.1599  0.0313  0.3228
  205HD       C  820   4.184   1.864   3.557 -0.2797  0.3163 -0.1675
  206HD       C  821   6.308   0.428   6.167  0.2432  0.0445  0.0331
  206HD       C  822   6.396   0.096   6.328 -0.0829 -0.2555  0.0256
  206HD       C  823   6.844  -0.044   6.410  0.2102 -0.0230 -0.1971
  206HD       C  824   7.025  -0.049   6.759  0.1520 -0.1787 -0.0119
  207HD       C  825   0.538   0.812   3.808 -0.2563 -0.0320 -0.1226
  207HD       C  826   0.395   0.816   3.408  0.1166 -0.1571  0.2254
  207HD       C  827   0.172   0.465   3.186  0.0622  0.2005 -0.2302
  207HD       C  828  -0.133   0.154   3.305 -0.1083 -0.0499 -0.0852
  208HD       C  829   0.434   7.208   6.908 -0.0998 -0.2437 -0.0219
  208HD       C  830   0.202   6.942   7.047  0.0275 -0.0433 -0.0684
  208HD       C  831   0.184   6.565   7.141 -0.0636  0.1852 -0.3297
  208HD       C  832  -0.072   6.387   7.445 -0.1387 -0.1616  0.1088
  209HD       C  833   2.775   0.328   6.564  0.0652  0.0274 -0.0592
  209HD       C  834   2.567   0.065   6.831 -0.2620  0.0331 -0.0143
  209HD       C  835   2.461  -0.139   7.203  0.1473 -0.1829 -0.0218
  209HD       C  836   2.607  -0.432   7.495  0.0559 -0.0276  0.3493
  210HD       C  837   0.093   1.430   1.469 -0.0951 -0.2056 -0.0377
  210HD       C  838   0.208   1.309   1.798 -0.0038  0.1188  0.0631
  210HD       C  839   0.662   1.245   2.040 -0.0208 -0.0685 -0.0320
  210HD       C  840   0.941   1.605   2.130  0.1393  0.2210  0.0755
  211HD       C  841   5.903   4.263   5.496 -0.0735 -0.0642 -0.1636
  211HD       C  842   5.932   4.421   5.860  0.0874  0.0496 -0.2554
  211HD       C  843   5.596   4.509   6.015 -0.2195  0.2042  0.0100
  211HD       C  844   5.144   4.548   5.923 -0.3296  0.0875 -0.0580
  212HD       C  845   2.071   2.736   4.091  0.3255 -0.0981 -0.2019
  212HD       C  846   2.377   2.657   3.861  0.0917  0.1031 -0.1896
  212HD       C  847   2.583   2.971   3.575  0.3438  0.0384 -0.1335
  212HD       C  848   2.834   3.179   3.289  0.1504 -0.3387  0.1899
  213HD       C  849   5.507   2.479   4.828 -0.0861  0.0968  0.2709
  213HD       C  850   5.481   2.758   4.427  0.0515  0.0995  0.1197
  213HD       C  851   5.745   2.895   4.168  0.3383  0.0307  0.3835
  213HD       C  852   6.126   2.710   3.977 -0.0734  0.0230 -0.0207
  214HD       C  853   3.720   5.478   6.499  0.0986 -0.1382 -0.1282
  214HD       C  854   3.700   5.486   6.079 -0.3479  0.1933 -0.1560
  214HD       C  855   4.021   5.640   5.825  0.0139 -0.0926 -0.3310
  214HD       C  856   4.424   5.726   5.733  0.1754  0.1470  0.0441
  215HD       C  857   0.437   6.752   5.100 -0.3965 -0.1764 -0.1426
  215HD       C  858   0.851   6.533   5.089 -0.1945  0.1729 -0.1415
  215HD       C  859   1.061   6.078   5.068 -0.3291 -0.1073  0.2224
  215HD       C  860   1.288   5.843   4.856  0.2122 -0.0496 -0.2489
  216HD       C  861   2.420   5.289   3.740  0.2371  0.4347  0.3940
  216HD       C  862   2.300   5.474   4.104  0.1055 -0.0284 -0.0773
  216HD       C  863   1.862   5.577   4.392 -0.1325 -0.1185 -0.0064
  216HD       C  864   1.746   5.918   4.674 -0.1144  0.0227  0.1411
  217HD       C  865   3.103   3.733   1.654 -0.1234  0.3298 -0.3911
  217HD       C  866   2.930   3.451   1.424 -0.1471 -0.2415 -0.0646
  217HD       C  867   2.748   3.309   1.034 -0.0138  0.1565  0.0890
  217HD       C  868   2.876   3.104   0.663  0.2419 -0.2800  0.1910
  218HD       C  869   3.325   4.576   6.397 -0.1888 -0.1734 -0.1012
  218HD       C  870   3.541   4.279   6.530 -0.1777 -0.1896 -0.1530
  218HD       C  871   3.605   3.803   6.699 -0.0253 -0.0971 -0.3301
  218HD       C  872   3.668   3.449   6.955 -0.1470 -0.0526  0.0246
  219HD       C  873   7.486   2.078   0.356  0.3609 -0.0341  0.3139
  219HD       C  874   7.377   2.293  -0.039 -0.1239  0.4282 -0.1940
  219HD       C  875   6.838   2.329  -0.086 -0.1501 -0.1009  0.2173
  219HD       C  876   6.454   2.216   0.017  0.2826 -0.0337 -0.0574
  220HD       C  877   0.138   6.397   6.043  0.0387  0.3228 -0.0618
  220HD       C  878   0.055   6.126   5.652 -0.3141 -0.2762  0.1517
  220HD       C  879   0.282   5.804   5.511 -0.1384  0.3526  0.0038
  220HD       C  880   0.153   5.673   5.153 -0.0209 -0.2418 -0.3331
  221HD       C  881   3.841   5.339   1.424  0.0098  0.0159 -0.0325
  221HD       C  882   3.642   4.954   1.380 -0.0612  0.2578 -0.4287
  221HD       C  883   3.402   4.551   1.467  0.0149 -0.1498  0.0242
  221HD       C  884   3.366   4.271   1.211 -0.1464 -0.0513 -0.1071
  222HD       C  885   6.926   6.738   6.914  0.1215 -0.0068 -0.1587
  222HD       C  886   6.693   6.408   7.054  0.0914 -0.0993  0.0883
  222HD       C  887   6.697   6.088   6.805 -0.1046 -0.2307  0.0639
  222HD       C  888   7.033   5.928   6.709  0.2559  0.0026 -0.2924
  223HD       C  889   5.893   1.170   3.955 -0.2191 -0.0545  0.2763
  223HD       C  890   6.040   1.244   3.557 -0.2211 -0.3926  0.0604
  223HD       C  891   6.238   1.134   3.094 -0.4522 -0.1362  0.1142
  223HD       C  892   6.534   0.938   2.768 -0.0960 -0.1643 -0.0090
  224HD       C  893   0.536   6.114   3.084 -0.0337  0.1021 -0.0169
  224HD       C  894   0.891   6.196   3.309  0.0079 -0.0471 -0.0314
  224HD       C  895   1.071   6.404   3.596  0.1797 -0.1996  0.1006
  224HD       C  896   1.298   6.309   3.932  0.1835  0.0337 -0.0480
  225HD       C  897   2.146   6.382   2.791  0.1400 -0.1143 -0.1106
  225HD       C  898   2.169   6.201   2.441 -0.1205  0.0231  0.0674
  225HD       C  899   1.774   5.971   2.320  0.2551 -0.0467  0.1180
  225HD       C  900   1.646   5.577   2.144  0.3293 -0.3907 -0.3464
  226HD       C  901   1.812   6.189   0.911 -0.1549 -0.0156  0.0951
  226HD       C  902   1.651   6.656   0.978  0.2469 -0.3649  0.2115
  226HD       C  903   1.501   7.002   1.242 -0.1837  0.1599 -0.1933
  226HD       C  904   1.066   7.213   1.486  0.0541 -0.0444 -0.4035
  227HD       C  905   5.893   6.970   6.936  0.3152 -0.1040  0.0328
  227HD       C  906   5.565   7.292   6.730 -0.2949 -0.1909  0.1865
  227HD       C  907   5.488   7.550   6.301  0.3541 -0.2114  0.0125
  227HD       C  908   5.136   7.580   6.073 -0.2229 -0.1407  0.0994
  228HD       C  909   3.417   6.326   0.337 -0.0174 -0.1791  0.1021
  228HD       C  910   3.317   6.808   0.355  0.1856  0.0892 -0.0350
  228HD       C  911   3.135   7.166   0.435  0.4796  0.0684 -0.0701
  228HD       C  912   2.776   7.416   0.308  0.1011  0.0517 -0.1110
  229HD       C  913   7.503   0.567   0.137 -0.1916 -0.4533  0.4039
  229HD       C  914   7.299   0.821  -0.237 -0.0309 -0.0768 -0.0313
  229HD       C  915   7.295   1.237  -0.348 -0.1446 -0.3178 -0.1773
  229HD       C  916   7.008   1.519  -0.342 -0.2287  0.1898  0.0226
  230HD       C  917   0.548   6.935   6.404 -0.3860  0.1171 -0.0911
  230HD       C  918   0.665   7.052   5.969  0.2115 -0.0387 -0.1356
  230HD       C  919   0.671   7.295   5.618  0.1479  0.4142  0.3071
  230HD       C  920   0.634   7.674   5.354 -0.0658  0.0984 -0.1464
  231HD       C  921   7.221   0.211   2.074 -0.0549  0.2654  0.1953
  231HD       C  922   7.218   0.477   2.428  0.0229  0.0256  0.2666
  231HD       C  923   6.832   0.558   2.676  0.2166 -0.2196  0.0126
  231HD       C  924   6.368   0.481   2.906 -0.0260 -0.0619 -0.4002
  232HD       C  925   5.860   0.976   6.102  0.0707  0.0207  0.1777
  232HD       C  926   5.898   1.258   6.487 -0.0225 -0.0955  0.0472
  232HD       C  927   5.974   1.251   6.861 -0.1997  0.2128  0.1212
  232HD       C  928   5.941   1.540   7.247  0.0171 -0.1431  0.1962
  233HD       C  929   1.768   2.409   2.958 -0.1119 -0.3068  0.3178
  233HD       C  930   2.255   2.529   2.830  0.1485 -0.0856  0.2790
  233HD       C  931   2.543   2.562   2.635  0.0058 -0.0737 -0.1124
  233HD       C  932   2.776   2.821   2.478 -0.0981 -0.0054 -0.1462
  234HD       C  933   4.089   3.797   7.024 -0.0103  0.1172 -0.0071
  234HD       C  934   4.137   3.636   7.409  0.1827  0.1674 -0.0820
  234HD       C  935   4.075   3.479   7.787 -0.2889  0.0367 -0.1228
  234HD       C  936   4.146   3.256   8.080  0.2369 -0.2083  0.0069
  235HD       C  937   3.991   5.680   6.880 -0.2079  0.3114 -0.0442
  235HD       C  938   4.110   6.024   7.033 -0.3902 -0.0983  0.1070
  235HD       C  939   4.487   6.156   7.266  0.0556  0.0665 -0.0788
  235HD       C  940   4.538   6.308   7.687 -0.2009 -0.0375  0.2471
  236HD       C  941   4.074   5.038   3.337  0.0281 -0.1646 -0.1082
  236HD       C  942   3.916   4.835   2.977 -0.2092 -0.1573  0.2361
  236HD       C  943   3.916   4.595   2.649  0.1731 -0.0877  0.0056
  236HD       C  944   4.003   4.438   2.313 -0.0940  0.0305  0.0746
  237HD       C  945   5.093   3.635   0.204 -0.1723  0.1561  0.0120
  237HD       C  946   4.852   4.018   0.382 -0.4449 -0.1724  0.0849
  237HD       C  947   5.010   4.371   0.673  0.3242  0.2303  0.0091
  237HD       C  948   5.329   4.515   0.542 -0.0291 -0.1522  0.1427
  238HD       C  949   5.337   5.818   2.445 -0.0611 -0.1911 -0.1897
  238HD       C  950   5.145   5.764   1.991  0.0370 -0.1811  0.1862
  238HD       C  951   4.783   5.738   1.801 -0.2373 -0.0890 -0.0076
  238HD       C  952   4.456   5.991   1.897  0.2102  0.3529  0.3557
  239HD       C  953   5.068   4.167   2.876  0.1571 -0.0357  0.1810
  239HD       C  954   5.228   4.424   3.217  0.1609  0.0846  0.0739
  239HD       C  955   5.459   4.703   3.487 -0.1552  0.0547 -0.0484
  239HD       C  956   5.837   5.048   3.434  0.0120 -0.1705 -0.0466
  240HD       C  957   6.104   4.587   4.705 -0.1734  0.2013 -0.3054
  240HD       C  958   6.090   4.293   4.304 -0.1376 -0.3591 -0.0850
  240HD       C  959   5.778   4.056   4.145 -0.4244  0.1998  0.1480
  240HD       C  960   5.426   3.883   4.154 -0.1598 -0.1155 -0.0235
  241HD       C  961   2.532   5.821   2.540 -0.2085  0.1596  0.0181
  241HD       C  962   2.200   5.888   2.936  0.1521  0.2363 -0.1582
  241HD       C  963   1.891   6.141   3.147  0.2483 -0.2713  0.2746
  241HD       C  964   2.081   6.601   3.286 -0.1601 -0.0084  0.0377
  242HD       C  965   0.127   5.385   4.586 -0.2154 -0.3126 -0.1317
  242HD       C  966   0.387   5.790   4.720  0.0413 -0.0096  0.0505
  242HD       C  967   0.604   5.847   5.095 -0.3142 -0.1285 -0.0955
  242HD       C  968   0.657   6.139   5.346  0.1356 -0.1323  0.1073
  243HD       C  969   3.700   2.617   2.027 -0.1255 -0.0339  0.0558
  243HD       C  970   4.079   2.419   2.018  0.2223 -0.0593 -0.0916
  243HD       C  971   4.482   2.639   2.027  0.3935 -0.0923  0.1699
  243HD       C  972   4.373   3.010   1.910  0.0253  0.1495 -0.2470
  244HD       C  973   4.656   2.667   0.550 -0.0948  0.1460 -0.1201
  244HD       C  974   4.424   3.050   0.401  0.0187 -0.1536  0.1857
  244HD       C  975   4.077   3.075   0.257  0.1413 -0.4096 -0.0173
  244HD       C  976   3.694   3.309   0.233 -0.0517  0.1318 -0.0987
  245HD       C  977   3.200   6.114   5.688  0.1724  0.0551  0.0749
  245HD       C  978   2.859   6.251   5.410 -0.2195 -0.0552 -0.5049
  245HD       C  979   2.537   6.168   5.511 -0.3541  0.2192  0.0029
  245HD       C  980   2.225   5.861   5.438 -0.1263 -0.3070 -0.1951
  246HD       C  981   4.961   4.853   0.620 -0.0070 -0.1168  0.2636
  246HD       C  982   5.310   5.101   0.655  0.1807 -0.3987  0.1067
  246HD       C  983   5.478   5.412   0.854  0.0278 -0.2201  0.3666
  246HD       C  984   5.658   5.472   1.299 -0.0391  0.1036 -0.1357
  247HD       C  985   6.768   2.067   2.261 -0.1948 -0.1380 -0.0034
  247HD       C  986   6.612   2.009   1.826 -0.2798 -0.2626 -0.0201
  247HD       C  987   6.173   2.068   1.609 -0.0621 -0.3629  0.1817
  247HD       C  988   6.092   1.952   1.225  0.1562  0.1736  0.0516
  248HD       C  989   6.542   4.881   4.579 -0.0663 -0.0053  0.4242
  248HD       C  990   6.404   5.101   4.879 -0.4133 -0.1482  0.0553
  248HD       C  991   6.368   5.252   5.324 -0.1387 -0.1249  0.1013
  248HD       C  992   6.189   5.514   5.578 -0.2757 -0.0939 -0.1698
  249HD       C  993   2.912   3.752   0.115 -0.0023  0.1933 -0.3752
  249HD       C  994   3.218   3.412   0.205 -0.0993 -0.0830 -0.1296
  249HD       C  995   3.309   2.990   0.484 -0.0942  0.1550  0.0641
  249HD       C  996   3.231   2.577   0.577  0.0439 -0.0466  0.2928
  250HD       C  997   4.513   5.788   6.720  0.2975  0.0567  0.0241
  250HD       C  998   4.852   6.025   6.801  0.3404 -0.2984  0.0510
  250HD       C  999   4.931   6.475   6.576  0.2873  0.0217 -0.2456
  250HD       C 1000   4.679   6.585   6.217 -0.2364  0.2567  0.1408
  251HD       C 1001   2.475   4.589   4.006  0.0478  0.0643  0.0701
  251HD       C 1002   2.882   4.272   4.027 -0.2632 -0.1053 -0.0731
  251HD       C 1003   3.227   4.575   3.825  0.1233  0.2713 -0.4136
  251HD       C 1004   3.547   4.767   3.886  0.4908  0.3556  0.0829
  252HD       C 1005   4.879   5.860   5.658 -0.0541  0.0116 -0.1200
  252HD       C 1006   4.647   6.121   5.359  0.2004  0.1845 -0.1070
  252HD       C 1007   4.447   6.427   5.185  0.0888 -0.2005  0.0853
  252HD       C 1008   4.469   6.910   5.178 -0.0589  0.1333  0.0821
  253HD       C 1009   4.024   6.549   6.859 -0.0664 -0.1234 -0.3403
  253HD       C 1010   3.992   7.021   7.033  0.0918  0.0347  0.1800
  253HD       C 1011   4.093   7.293   7.323 -0.0586  0.2658 -0.1450
  253HD       C 1012   4.374   7.546   7.533 -0.1184  0.0411  0.0670
  254HD       C 1013   1.828   6.546   1.412 -0.0137  0.0208 -0.0698
  254HD       C 1014   2.021   6.904   1.604 -0.1721  0.2436 -0.1021
  254HD       C 1015   1.971   7.097   1.979 -0.0582  0.2276  0.1300
  254HD       C 1016   1.769   7.369   2.172  0.2831 -0.1458  0.1798
  255HD       C 1017   7.520   4.699   5.563 -0.0194 -0.1241 -0.0231
  255HD       C 1018   7.844   4.888   5.254 -0.1239 -0.1123  0.2580
  255HD       C 1019   8.262   4.810   5.088  0.2701  0.1411 -0.3165
  255HD       C 1020   8.625   4.928   5.020  0.0877 -0.2474 -0.0650
  256HD       C 1021   2.740   4.495   2.603  0.2364  0.0486 -0.2635
  256HD       C 1022   2.316   4.382   2.514 -0.5921 -0.3218 -0.3871
  256HD       C 1023   1.976   4.176   2.529 -0.0399 -0.0731 -0.4298
  256HD       C 1024   1.782   3.870   2.713  0.0918  0.0756  0.1272
  257HD       C 1025   6.322   4.689   3.540 -0.1282 -0.4688  0.3596
  257HD       C 1026   5.900   4.549   3.415  0.1946  0.0327  0.0038
  257HD       C 1027   5.954   4.174   3.597 -0.3279 -0.2156  0.2189
  257HD       C 1028   5.681   3.862   3.658  0.2925  0.2840 -0.0749
  258HD       C 1029   6.717   6.620   5.448 -0.0170 -0.2606  0.2963
  258HD       C 1030   6.648   6.289   5.047 -0.2200 -0.0477  0.1051
  258HD       C 1031   6.921   6.231   4.619 -0.0316 -0.1282  0.0350
  258HD       C 1032   7.172   6.395   4.368  0.0270  0.2691  0.2916
  259HD       C 1033   1.219   5.186   7.071 -0.0767 -0.0542 -0.1320
  259HD       C 1034   1.519   4.961   7.037  0.1937  0.0201  0.1069
  259HD       C 1035   1.912   4.709   6.936  0.2191  0.0795  0.1422
  259HD       C 1036   2.342   4.806   6.862  0.0695 -0.2433  0.3143
  260HD       C 1037   1.809   2.263   2.380  0.2485  0.0377 -0.1170
  260HD       C 1038   2.141   2.168   2.523 -0.0567 -0.1298 -0.4516
  260HD       C 1039   2.527   2.075   2.778  0.0712 -0.2758  0.4014
  260HD       C 1040   2.785   2.032   3.142  0.3353  0.1847 -0.1350
  261HD       C 1041   7.374   2.597   5.369 -0.0761  0.1780  0.2950
  261HD       C 1042   7.549   2.961   5.146 -0.0590  0.2118 -0.0173
  261HD       C 1043   7.419   3.334   4.841  0.0326  0.0905 -0.0586
  261HD       C 1044   7.238   3.263   4.432  0.2434  0.2830  0.0977
  262HD       C 1045   6.104   4.915   2.370 -0.0909 -0.3675 -0.0466
  262HD       C 1046   6.358   4.578   2.443  0.1060 -0.0229 -0.2475
  262HD       C 1047   6.686   4.272   2.462  0.0263  0.0269  0.1786
  262HD       C 1048   7.106   4.181   2.692 -0.4269 -0.1052  0.2505
  263HD       C 1049   3.935   0.987   0.700  0.0671 -0.1942  0.2323
  263HD       C 1050   4.200   1.292   0.795 -0.2319  0.2243 -0.1325
  263HD       C 1051   4.191   1.576   1.191  0.0924 -0.0541 -0.1756
  263HD       C 1052   4.504   1.686   1.538 -0.0796  0.1267 -0.1064
  264HD       C 1053   7.603   3.058   3.639  0.0207 -0.1736  0.3158
  264HD       C 1054   7.942   2.781   3.756  0.0649 -0.3151  0.1145
  264HD       C 1055   8.310   2.792   3.935 -0.0362 -0.2380 -0.0149
  264HD       C 1056   8.657   2.784   4.119 -0.0429  0.1575  0.0350
  265HD       C 1057   0.578   5.962   6.428  0.1536 -0.0902  0.0903
  265HD       C 1058   0.567   6.001   5.953 -0.3590 -0.4308  0.2288
  265HD       C 1059   0.493   6.342   5.716  0.0496 -0.0425 -0.1930
  265HD       C 1060   0.650   6.718   5.623  0.2989  0.4654 -0.1368
  266HD       C 1061   4.042   1.960   2.059 -0.0052 -0.1883  0.3656
  266HD       C 1062   4.016   1.608   1.738 -0.1955  0.0566  0.0149
  266HD       C 1063   3.709   1.539   1.465  0.1572 -0.0110 -0.2485
  266HD       C 1064   3.504   1.807   1.297 -0.4106 -0.3683  0.1157
  267HD       C 1065   1.441   2.071   5.480 -0.1055  0.0483  0.4417
  267HD       C 1066   1.654   2.149   5.833  0.3548 -0.1095  0.2364
  267HD       C 1067   1.949   2.160   6.072 -0.2979 -0.0292  0.0796
  267HD       C 1068   2.263   1.972   6.494 -0.1200 -0.2604  0.0985
  268HD       C 1069   1.136   0.874   0.081 -0.1687 -0.4195  0.1642
  268HD       C 1070   1.118   0.522   0.337 -0.1250  0.0479  0.3640
  268HD       C 1071   1.018   0.134   0.560 -0.1276  0.0275  0.0674
  268HD       C 1072   1.232  -0.229   0.785  0.3666  0.1387 -0.0657
  269HD       C 1073   4.953   0.939   6.862 -0.2653  0.1878 -0.1402
  269HD       C 1074   4.969   1.304   6.593  0.5572  0.1342  0.1277
  269HD       C 1075   4.962   1.461   6.159 -0.0835 -0.2556 -0.0060
  269HD       C 1076   4.749   1.207   5.767 -0.0013  0.0421 -0.0716
  270HD       C 1077   1.892   6.344   6.373 -0.0431  0.0624  0.0388
  270HD       C 1078   2.213   6.601   6.220 -0.0691  0.0094  0.0445
  270HD       C 1079   2.566   6.947   5.959  0.2231  0.4018  0.1134
  270HD       C 1080   2.710   7.197   5.664 -0.0230 -0.4542 -0.2515
  271HD       C 1081   2.717   1.237   6.543  0.0882  0.0316 -0.0456
  271HD       C 1082   2.462   1.277   6.911  0.0632 -0.1167  0.0067
  271HD       C 1083   2.413   0.922   7.163 -0.2037  0.3214  0.1663
  271HD       C 1084   2.225   0.967   7.629 -0.2245  0.0794 -0.0475
  272HD       C 1085   0.395   5.674   2.401  0.3596 -0.0259  0.1422
  272HD       C 1086   0.184   6.004   2.663 -0.0564 -0.0898  0.0152
  272HD       C 1087   0.100   6.367   3.000  0.0399  0.3984 -0.1090
  272HD       C 1088  -0.162   6.590   3.250 -0.1135 -0.2161  0.0823
  273HD       C 1089   2.443   0.701   5.899  0.0153 -0.3131  0.2253
  273HD       C 1090   2.299   1.092   5.626 -0.0086 -0.0218 -0.2087
  273HD       C 1091   2.403   1.294   5.368  0.1680 -0.0148 -0.1705
  273HD       C 1092   2.531   1.130   5.020 -0.1443 -0.0471  0.1665
  274HD       C 1093   2.930   6.980   3.065 -0.0228  0.0926  0.0013
  274HD       C 1094   3.347   6.823   3.085  0.0672  0.0002  0.2722
  274HD       C 1095   3.639   6.640   2.834  0.0870 -0.0772  0.2627
  274HD       C 1096   4.050   6.528   2.778 -0.2604  0.1302 -0.0742
  275HD       C 1097   6.277   0.223   5.711  0.0717  0.3603  0.0661
  275HD       C 1098   6.432  -0.178   5.465  0.0255  0.2250  0.0505
  275HD       C 1099   6.574  -0.319   5.037  0.1138  0.1835 -0.1278
  275HD       C 1100   6.999  -0.489   4.829 -0.0027 -0.1564 -0.0374
  276HD       C 1101   2.105   3.690   3.559 -0.2340 -0.1954  0.0496
  276HD       C 1102   2.281   3.907   3.167 -0.0299 -0.1113 -0.2710
  276HD       C 1103   2.293   3.885   2.743  0.0432  0.0352  0.0590
  276HD       C 1104   2.356   3.884   2.367 -0.2201 -0.0377 -0.0636
  277HD       C 1105   5.462   6.561   3.724 -0.4540 -0.0492  0.0498
  277HD       C 1106   5.674   6.116   3.633 -0.0148  0.0522 -0.0480
  277HD       C 1107   5.928   5.831   3.194 -0.1557 -0.0435  0.0426
  277HD       C 1108   6.310   5.892   2.941 -0.0068  0.1942 -0.0667
  278HD       C 1109   7.442   2.899   0.720 -0.0375  0.3403 -0.1191
  278HD       C 1110   7.801   2.562   0.661 -0.2702  0.1504 -0.2518
  278HD       C 1111   8.235   2.468   0.460  0.2163  0.2745  0.1010
  278HD       C 1112   8.554   2.265   0.389 -0.0223 -0.1795 -0.3098
  279HD       C 1113   5.967   0.944   0.111  0.0174  0.0605  0.0164
  279HD       C 1114   5.601   1.086   0.289  0.1608 -0.0939  0.4076
  279HD       C 1115   5.257   0.880   0.557  0.1460 -0.1137  0.0577
  279HD       C 1116   4.864   0.644   0.686 -0.1528  0.0596  0.2208
  280HD       C 1117   0.719   2.778   3.481 -0.0278 -0.1266  0.1355
  280HD       C 1118   0.970   3.054   3.697  0.2492  0.0352 -0.1809
  280HD       C 1119   1.308   3.194   4.054  0.5375 -0.0748  0.0411
  280HD       C 1120   1.691   3.218   4.023  0.0878  0.0631 -0.1200
  281HD       C 1121   4.860   6.754   1.845  0.1957  0.2653 -0.0049
  281HD       C 1122   5.313   6.647   1.682 -0.1599 -0.0382  0.0824
  281HD       C 1123   5.642   6.963   1.514 -0.1002 -0.3440  0.2700
  281HD       C 1124   5.962   6.951   1.219 -0.1112 -0.0333 -0.1746
  282HD       C 1125   5.064   2.313   5.063  0.3333  0.3050 -0.1473
  282HD       C 1126   4.684   2.415   4.931  0.1222  0.0191  0.1383
  282HD       C 1127   4.335   2.580   4.765 -0.1586  0.2180  0.0283
  282HD       C 1128   4.099   2.941   4.966  0.4426 -0.1635  0.0014
  283HD       C 1129   0.454   1.350   3.392 -0.0974 -0.0033  0.0780
  283HD       C 1130   0.825   1.078   3.286  0.0221 -0.1052 -0.0959
  283HD       C 1131   1.112   0.711   3.130  0.0637 -0.1189  0.0420
  283HD       C 1132   1.160   0.286   3.035  0.1362 -0.2122 -0.0098
  284HD       C 1133   4.567   3.907   6.259  0.1114 -0.1550  0.1924
  284HD       C 1134   4.677   3.611   6.011 -0.3378 -0.1014  0.1665
  284HD       C 1135   4.721   3.294   5.601  0.2841  0.1688  0.3164
  284HD       C 1136   5.098   2.998   5.612 -0.0200 -0.1115  0.0238
  285HD       C 1137   3.221   1.017   6.678  0.0168  0.2769  0.0236
  285HD       C 1138   3.217   0.548   6.757 -0.2439 -0.0513 -0.0294
  285HD       C 1139   3.051   0.112   6.996  0.1611  0.1799  0.0578
  285HD       C 1140   2.995  -0.242   7.185  0.1044 -0.0550 -0.3309
  286HD       C 1141   5.224   6.961   2.855  0.2828 -0.1106 -0.5432
  286HD       C 1142   5.019   7.227   2.550 -0.1685 -0.1754 -0.1542
  286HD       C 1143   4.996   7.628   2.544 -0.0682  0.0050  0.2264
  286HD       C 1144   4.655   7.968   2.715  0.2816  0.2176 -0.2445
  287HD       C 1145   4.944   0.443   4.643  0.4075  0.0589  0.2054
  287HD       C 1146   5.202   0.625   4.380 -0.0736  0.1219  0.0668
  287HD       C 1147   5.468   1.001   4.245  0.1154 -0.1351  0.1086
  287HD       C 1148   5.422   1.344   4.070 -0.0463 -0.2194  0.0161
  288HD       C 1149   7.464   3.579   0.392  0.0790 -0.0978  0.0417
  288HD       C 1150   7.211   3.307   0.672 -0.1130 -0.1782 -0.3305
  288HD       C 1151   6.879   3.308   0.926  0.1373  0.1657  0.0507
  288HD       C 1152   6.449   3.135   1.060 -0.0094  0.2462  0.1966
  289HD       C 1153   7.437   4.812   6.136 -0.1424  0.0719  0.0829
  289HD       C 1154   7.395   5.223   5.909  0.0450  0.1120  0.1083
  289HD       C 1155   7.586   5.616   5.858 -0.0795 -0.0171 -0.0671
  289HD       C 1156   7.797   5.825   6.210  0.2209  0.0034  0.0344
  290HD       C 1157   4.216   1.359   2.657  0.0389 -0.1216 -0.0198
  290HD       C 1158   4.476   1.114   2.948 -0.0528 -0.2029  0.0974
  290HD       C 1159   4.626   0.834   3.259 -0.0425 -0.2038  0.0588
  290HD       C 1160   4.725   1.045   3.675 -0.0854 -0.0617 -0.0818
  291HD       C 1161   0.250   4.431   2.334  0.1758 -0.1357 -0.0502
  291HD       C 1162   0.439   4.561   2.004  0.2350 -0.0439  0.1816
  291HD       C 1163   0.859   4.520   1.903  0.0552  0.0907  0.0135
  291HD       C 1164   1.263   4.607   1.834  0.0106  0.2986  0.2239
  292HD       C 1165   1.440   4.677   0.886 -0.0655 -0.0436 -0.0212
  292HD       C 1166   1.092   4.868   0.990 -0.2096  0.0021  0.2618
  292HD       C 1167   0.842   4.713   1.386  0.4189  0.1789 -0.0756
  292HD       C 1168   0.485   4.477   1.497 -0.3017 -0.3711  0.1315
  293HD       C 1169   7.461   4.463   5.177  0.3845  0.1550 -0.1488
  293HD       C 1170   7.601   4.571   4.770 -0.1022  0.1238  0.0932
  293HD       C 1171   7.484   4.919   4.547  0.1383 -0.0290  0.0907
  293HD       C 1172   7.656   5.134   4.172  0.1342 -0.2741  0.1483
  294HD       C 1173   2.386   0.116   4.112 -0.1319 -0.0631 -0.2341
  294HD       C 1174   2.026  -0.100   4.479  0.0820  0.0450  0.1268
  294HD       C 1175   1.539  -0.141   4.482 -0.1204  0.0529  0.3005
  294HD       C 1176   1.222  -0.276   4.346 -0.0469 -0.2108 -0.2606
  295HD       C 1177   4.668   1.017   0.981 -0.0112  0.1527 -0.0130
  295HD       C 1178   5.094   1.043   1.016 -0.0471 -0.0125  0.2906
  295HD       C 1179   5.347   0.674   1.011 -0.1085 -0.1074  0.0168
  295HD       C 1180   5.762   0.534   0.915  0.4051 -0.1432  0.4668
  296HD       C 1181   6.636   2.709   6.920 -0.1717  0.0508 -0.0192
  296HD       C 1182   6.724   2.348   6.623 -0.2066 -0.1534  0.0253
  296HD       C 1183   6.930   2.145   6.218 -0.0659 -0.0149 -0.1621
  296HD       C 1184   6.865   2.152   5.818  0.5304 -0.0614  0.1120
  297HD       C 1185   6.910   4.698   2.620  0.0036 -0.2080  0.1392
  297HD       C 1186   6.525   4.975   2.706 -0.0850 -0.2558  0.1278
  297HD       C 1187   6.308   5.323   2.512 -0.1627  0.2121 -0.4492
  297HD       C 1188   6.437   5.444   2.042 -0.0294  0.0441  0.0811
  298HD       C 1189   6.637   2.809   4.452  0.3304  0.2793 -0.1545
  298HD       C 1190   6.635   3.071   4.116  0.2161  0.2035  0.3555
  298HD       C 1191   6.811   3.340   3.784 -0.0235 -0.1983 -0.1026
  298HD       C 1192   6.982   3.611   3.458 -0.0022 -0.0932  0.2884
  299HD       C 1193   2.115   6.144   3.965 -0.0447  0.1538 -0.0205
  299HD       C 1194   2.492   6.290   4.138  0.1889 -0.1071  0.0623
  299HD       C 1195   2.780   6.662   4.084 -0.0026  0.1461 -0.3621
  299HD       C 1196   3.204   6.561   4.067  0.1994  0.1036  0.3378
  300HD       C 1197   3.017   3.185   5.013 -0.1028  0.1127  0.1883
  300HD       C 1198   3.325   3.051   4.670 -0.2187 -0.1592  0.2606
  300HD       C 1199   3.673   2.787   4.486  0.1505 -0.3164  0.1611
  300HD       C 1200   4.019   2.531   4.252 -0.1381 -0.1874  0.0434
  301HD       C 1201   3.129   3.237   3.729  0.0819 -0.1476 -0.1582
  301HD       C 1202   3.024   3.616   4.016  0.2946  0.0240  0.0465
  301HD       C 1203   2.707   3.825   4.279 -0.1055  0.0829  0.4709
  301HD       C 1204   2.414   4.089   4.321 -0.0793 -0.0368 -0.0726
  302HD       C 1205   3.729   1.653   3.183  0.0089  0.0808  0.0994
  302HD       C 1206   3.528   1.640   3.546 -0.1839 -0.1609 -0.0576
  302HD       C 1207   3.575   1.469   4.003  0.2346 -0.2128  0.1000
  302HD       C 1208   3.778   1.355   4.330 -0.1521 -0.1019 -0.1368
  303HD       C 1209   5.425   1.084   6.771  0.1362 -0.3707 -0.1228
  303HD       C 1210   5.614   0.809   7.052 -0.1843 -0.1930  0.3871
  303HD       C 1211   5.669   0.398   7.117  0.1903  0.0894  0.0483
  303HD       C 1212   5.344   0.079   7.210  0.0836 -0.1566 -0.0780
  304HD       C 1213   5.681   6.687   2.890 -0.0028  0.1064 -0.1659
  304HD       C 1214   5.259   6.423   2.737  0.0403 -0.2476 -0.0686
  304HD       C 1215   4.801   6.597   2.775 -0.0311 -0.2332 -0.0914
  304HD       C 1216   4.676   7.056   2.895 -0.2169 -0.0746  0.1396
  305HD       C 1217   7.157   6.716   0.133 -0.2044  0.0487  0.1803
  305HD       C 1218   7.138   6.860   0.558  0.2330  0.0650  0.2508
  305HD       C 1219   7.474   6.850   0.741 -0.2229 -0.0097  0.0511
  305HD       C 1220   7.813   7.051   0.813  0.0708  0.1886 -0.1612
  306HD       C 1221   1.821   1.202   3.233 -0.0906  0.4047  0.4481
  306HD       C 1222   2.074   0.851   3.103  0.2804 -0.1966 -0.1890
  306HD       C 1223   1.981   0.466   2.862 -0.3406 -0.0063 -0.2324
  306HD       C 1224   2.075   0.064   2.672 -0.0534  0.1876 -0.2681
  307HD       C 1225   4.315   6.927   6.083 -0.0041  0.0058 -0.0189
  307HD       C 1226   4.250   7.231   5.714  0.2867 -0.1539 -0.0186
  307HD       C 1227   4.574   7.438   5.485 -0.0435  0.0277 -0.2360
  307HD       C 1228   4.687   7.410   4.978  0.1164  0.3753  0.0834
  308HD       C 1229   3.096   0.383   6.164  0.2941  0.0885  0.1000
  308HD       C 1230   3.335   0.716   6.315  0.1355 -0.0634 -0.3549
  308HD       C 1231   3.690   0.992   6.384 -0.1694  0.1744 -0.1530
  308HD       C 1232   4.036   1.181   6.432 -0.1055  0.0715 -0.3912
  309HD       C 1233   2.932   4.799   0.535 -0.0689  0.1394 -0.1848
  309HD       C 1234   3.120   4.377   0.691  0.2040 -0.0838  0.1816
  309HD       C 1235   3.052   4.021   0.735  0.1558 -0.1219  0.0790
  309HD       C 1236   3.119   3.614   0.685  0.1774  0.0938  0.1527
  310HD       C 1237   5.274   4.021   6.181 -0.1760  0.1589 -0.1253
  310HD       C 1238   5.500   4.079   5.767 -0.1110  0.0078  0.0777
  310HD       C 1239   5.327   3.791   5.356 -0.0521 -0.0203 -0.1347
  310HD       C 1240   5.508   3.955   4.979  0.1049  0.0881  0.2644
  311HD       C 1241   3.455   5.873   3.725 -0.2186  0.1044 -0.2147
  311HD       C 1242   3.601   5.627   4.015  0.0903 -0.1617  0.0448
  311HD       C 1243   3.380   5.541   4.368  0.1652  0.0610 -0.0125
  311HD       C 1244   3.294   5.298   4.676  0.0386 -0.0508  0.0392
  312HD       C 1245   4.716   2.425   5.530  0.2736 -0.2118 -0.0832
  312HD       C 1246   4.709   2.830   5.835  0.1510 -0.2455 -0.4609
  312HD       C 1247   4.609   3.167   6.084 -0.0091  0.1707  0.0977
  312HD       C 1248   4.533   3.507   6.489  0.0309 -0.2596 -0.1622
  313HD       C 1249   5.937   1.957   4.602  0.0159 -0.2754  0.1861
  313HD       C 1250   6.066   1.890   5.017 -0.2532  0.0945  0.0854
  313HD       C 1251   5.933   2.004   5.434 -0.2059  0.0191  0.1336
  313HD       C 1252   5.716   2.188   5.825  0.3572 -0.1610 -0.0776
  314HD       C 1253   4.818   3.169   3.134  0.1583  0.2079 -0.1082
  314HD       C 1254   4.726   2.660   3.049 -0.2031  0.1924 -0.0573
  314HD       C 1255   4.923   2.278   2.767  0.2154  0.0453  0.2200
  314HD       C 1256   5.237   1.922   2.748  0.3202  0.2472  0.0327
  315HD       C 1257   0.919   3.652   3.715  0.0711 -0.1753  0.1662
  315HD       C 1258   1.260   3.715   3.939 -0.0006 -0.1222 -0.1945
  315HD       C 1259   1.383   3.552   4.360 -0.0602 -0.1778 -0.2675
  315HD       C 1260   1.234   3.288   4.572 -0.0177  0.2270  0.1360
  316HD       C 1261   6.443   0.939   4.888  0.2297 -0.1105 -0.2294
  316HD       C 1262   6.843   0.985   5.031  0.2049 -0.2162 -0.1011
  316HD       C 1263   7.236   1.021   5.110  0.2160  0.0036  0.0112
  316HD       C 1264   7.565   1.163   5.193  0.1883  0.0518  0.1200
  317HD       C 1265   6.776   5.952   6.275 -0.0520  0.4649  0.3382
  317HD       C 1266   6.455   6.313   6.454  0.0344 -0.1024 -0.1044
  317HD       C 1267   6.151   6.594   6.227 -0.0744  0.1677 -0.1150
  317HD       C 1268   5.720   6.794   6.313  0.1952 -0.0592  0.2318
  318HD       C 1269   5.363   0.786   1.476  0.2389  0.1248  0.1335
  318HD       C 1270   5.155   0.452   1.701  0.2998  0.2276 -0.1109
  318HD       C 1271   4.782   0.225   1.620 -0.1072 -0.1286 -0.0193
  318HD       C 1272   4.404   0.073   1.589 -0.2271 -0.2313 -0.1328
  319HD       C 1273   3.475   3.574   4.621 -0.0909 -0.0805 -0.0429
  319HD       C 1274   3.917   3.777   4.591 -0.1782 -0.1519 -0.1552
  319HD       C 1275   4.140   4.016   4.866  0.1016  0.1048 -0.2679
  319HD       C 1276   4.061   3.959   5.320  0.0600  0.3456 -0.1832
  320HD       C 1277   7.523   3.850   1.343  0.2859  0.2076  0.2027
  320HD       C 1278   7.899   3.977   1.496 -0.2453  0.1768  0.1483
  320HD       C 1279   8.305   4.124   1.221  0.1733  0.0744  0.2142
  320HD       C 1280   8.668   4.398   1.018  0.0445 -0.1324  0.1912
  321HD       C 1281   1.042   5.672   6.083 -0.3444  0.1054  0.0152
  321HD       C 1282   1.051   5.210   6.139  0.2921  0.1226 -0.1246
  321HD       C 1283   0.736   4.967   5.894  0.0220  0.3109 -0.2597
  321HD       C 1284   0.722   4.837   5.565 -0.1201 -0.2644  0.0219
  322HD       C 1285   3.141   5.268   3.005  0.1154 -0.0469 -0.1292
  322HD       C 1286   3.150   5.364   2.639 -0.0580  0.0956  0.0774
  322HD       C 1287   2.966   5.643   2.391 -0.1427  0.1107  0.0255
  322HD       C 1288   2.991   6.034   2.186  0.1634 -0.1714  0.4765
  323HD       C 1289   7.336   0.025   6.190 -0.0511 -0.2425 -0.0256
  323HD       C 1290   7.332  -0.008   5.791 -0.2543 -0.0432  0.1930
  323HD       C 1291   7.312  -0.291   5.318 -0.1641  0.1375 -0.3477
  323HD       C 1292   7.497  -0.342   4.980  0.2087  0.1846  0.2656
  324HD       C 1293   2.574   1.514   1.990  0.0003 -0.0709 -0.0180
  324HD       C 1294   2.546   1.307   1.527 -0.0069 -0.0216 -0.0003
  324HD       C 1295   2.500   0.911   1.418  0.3599  0.0509 -0.1209
  324HD       C 1296   2.508   0.545   1.643  0.1066  0.3336  0.0223
  325HD       C 1297   5.687   4.991   7.060  0.0436 -0.4797  0.2611
  325HD       C 1298   6.113   4.929   6.915  0.2026  0.2446  0.0486
  325HD       C 1299   6.447   5.241   6.856 -0.0730 -0.0206  0.2315
  325HD       C 1300   6.868   5.344   7.073 -0.2343 -0.1411 -0.3363
  326HD       C 1301   3.142   6.703   4.618  0.0892  0.0394  0.2704
  326HD       C 1302   3.536   6.692   4.543  0.1871  0.3455  0.0950
  326HD       C 1303   3.835   6.923   4.290  0.1278 -0.1691  0.0294
  326HD       C 1304   4.281   7.083   4.152  0.0011 -0.3072 -0.1209
  327HD       C 1305   6.415   1.087   3.847 -0.0126 -0.1361  0.2035
  327HD       C 1306   6.558   1.318   3.538  0.1647 -0.2553  0.1171
  327HD       C 1307   6.509   1.601   3.202  0.0485 -0.0756 -0.3057
  327HD       C 1308   6.387   2.026   3.162  0.2962  0.1100 -0.0799
  328HD       C 1309   6.100   3.132   3.531  0.2223  0.1745 -0.4444
  328HD       C 1310   5.723   3.300   3.497  0.1187 -0.0003 -0.0149
  328HD       C 1311   5.555   3.616   3.210  0.0146 -0.2582  0.2792
  328HD       C 1312   5.114   3.674   3.147  0.0135 -0.1766  0.0066
  329HD       C 1313   3.609   5.270   3.069  0.0645  0.1685 -0.1381
  329HD       C 1314   3.729   5.421   2.738  0.0049 -0.1834 -0.1135
  329HD       C 1315   3.918   5.379   2.328 -0.2156  0.0460 -0.1699
  329HD       C 1316   3.977   5.244   1.877  0.0161  0.1182  0.0267
  330HD       C 1317   4.695   2.706   1.018 -0.1664 -0.1668 -0.0619
  330HD       C 1318   4.608   3.158   0.900 -0.1622 -0.2563 -0.1012
  330HD       C 1319   4.471   3.511   1.012 -0.0138  0.2176 -0.3368
  330HD       C 1320   4.737   3.645   1.382 -0.1940  0.0507 -0.3243
  331HD       C 1321   3.968   6.991   2.566  0.1860  0.2535  0.0901
  331HD       C 1322   4.388   6.854   2.555 -0.0065  0.1356  0.2129
  331HD       C 1323   4.710   6.758   2.336  0.3276  0.0964  0.1556
  331HD       C 1324   5.157   6.784   2.406 -0.0273 -0.0825 -0.2467
  332HD       C 1325   7.129   0.296   7.112 -0.0441  0.2076  0.2465
  332HD       C 1326   6.909   0.634   7.274  0.1649  0.1260  0.2781
  332HD       C 1327   6.839   1.069   7.327 -0.0133 -0.1979 -0.2992
  332HD       C 1328   6.969   1.364   7.540 -0.0934  0.1487 -0.0669
  333HD       C 1329   6.288   5.788   4.430  0.0926  0.1724  0.1426
  333HD       C 1330   6.408   6.148   4.570 -0.0104 -0.0211 -0.1026
  333HD       C 1331   6.575   6.584   4.601  0.1613 -0.2382  0.1305
  333HD       C 1332   6.764   6.867   4.328  0.0121 -0.2336 -0.1474
  334HD       C 1333   2.675   4.204   4.859  0.0113 -0.1219 -0.2222
  334HD       C 1334   3.089   4.178   4.575  0.0363  0.0475 -0.2683
  334HD       C 1335   3.526   4.098   4.731  0.0050 -0.0254  0.0385
  334HD       C 1336   3.672   3.765   5.039 -0.1325 -0.0415 -0.1050
  335HD       C 1337   1.705   5.425   4.916 -0.0685 -0.5546 -0.2525
  335HD       C 1338   1.482   4.968   4.873 -0.3625 -0.3930 -0.1490
  335HD       C 1339   1.275   4.708   4.644 -0.0348  0.1469  0.4289
  335HD       C 1340   0.991   4.338   4.511  0.1103  0.0062 -0.0387
  336HD       C 1341   6.232   0.984   1.483  0.0987 -0.1427 -0.0599
  336HD       C 1342   6.088   0.856   1.039 -0.0472  0.1422 -0.0225
  336HD       C 1343   6.118   1.094   0.628  0.0178  0.1792  0.1397
  336HD       C 1344   5.973   1.464   0.497  0.2315 -0.1373 -0.0811
  337HD       C 1345   4.741   0.785   1.456 -0.0410 -0.2287 -0.0408
  337HD       C 1346   4.912   0.517   1.211 -0.0208 -0.0752 -0.1860
  337HD       C 1347   5.356   0.286   1.279  0.5009  0.2923  0.2852
  337HD       C 1348   5.749   0.141   1.227  0.1735 -0.0580  0.1631
  338HD       C 1349   5.045   2.004   7.113  0.1302  0.1304 -0.2495
  338HD       C 1350   5.005   2.461   6.960  0.1348 -0.0174  0.2632
  338HD       C 1351   5.209   2.758   6.786 -0.3460 -0.0602  0.0795
  338HD       C 1352   5.492   2.672   6.427  0.0173 -0.0608  0.0477
  339HD       C 1353   1.873   3.561   3.126 -0.1937 -0.0964 -0.0140
  339HD       C 1354   1.609   3.387   2.938 -0.0378 -0.5159  0.4029
  339HD       C 1355   1.274   3.566   2.652  0.1800  0.3379 -0.1310
  339HD       C 1356   0.864   3.779   2.769  0.1737  0.0912 -0.1270
  340HD       C 1357   2.304   4.912   5.347 -0.0000  0.0470 -0.0752
  340HD       C 1358   2.642   4.669   5.098 -0.1673  0.0532 -0.0119
  340HD       C 1359   3.071   4.363   5.071 -0.3351 -0.1193 -0.0724
  340HD       C 1360   3.242   3.912   5.054  0.0830  0.0008 -0.1818
  341HD       C 1361   2.856   5.452   3.395 -0.0205  0.0490 -0.1387
  341HD       C 1362   3.302   5.465   3.461 -0.2051  0.0183 -0.1201
  341HD       C 1363   3.644   5.148   3.589  0.1212 -0.1558 -0.2650
  341HD       C 1364   3.979   5.219   3.877 -0.0708 -0.0254  0.0325
  342HD       C 1365   1.393   5.979   2.021 -0.0780  0.1544  0.1041
  342HD       C 1366   1.248   5.905   2.483  0.2900  0.1209  0.0614
  342HD       C 1367   1.264   5.902   2.909 -0.0852 -0.2610 -0.0226
  342HD       C 1368   1.112   5.665   3.196 -0.2643 -0.3506  0.0072
  343HD       C 1369   2.119   3.144   3.762  0.3344  0.2216 -0.3981
  343HD       C 1370   2.170   3.231   4.208  0.0762 -0.1468  0.1149
  343HD       C 1371   2.386   2.956   4.494 -0.0443 -0.4235  0.0489
  343HD       C 1372   2.798   2.893   4.655 -0.3655 -0.0034 -0.0203
  344HD       C 1373   5.528   0.440   5.144  0.1815  0.0790 -0.1976
  344HD       C 1374   6.016   0.617   4.911  0.2611  0.1894 -0.0376
  344HD       C 1375   6.349   0.521   4.707 -0.0310  0.0899  0.0257
  344HD       C 1376   6.657   0.309   4.317 -0.0301  0.0944  0.0043
  345HD       C 1377   1.727   0.669   4.996 -0.1114  0.2160  0.1337
  345HD       C 1378   1.425   0.822   4.959 -0.0247  0.3987  0.2734
  345HD       C 1379   0.964   0.895   5.082 -0.2458  0.0811  0.0332
  345HD       C 1380   0.574   1.077   4.965 -0.0000  0.0055 -0.0708
  346HD       C 1381   1.795   2.480   1.457  0.0537 -0.0173 -0.1188
  346HD       C 1382   2.070   2.852   1.471  0.0117  0.0668 -0.0041
  346HD       C 1383   1.918   3.257   1.382  0.0864 -0.1111  0.1274
  346HD       C 1384   1.742   3.544   1.660  0.2165  0.2263  0.0280
  347HD       C 1385   6.296   6.179   5.933 -0.0277  0.0262 -0.1916
  347HD       C 1386   6.627   6.455   6.020  0.1097  0.0024  0.0615
  347HD       C 1387   6.587   6.790   6.399  0.0595  0.0963  0.0045
  347HD       C 1388   6.243   6.646   6.832 -0.0293 -0.0931 -0.4486
  348HD       C 1389   5.361   3.889   2.523  0.0338 -0.2167  0.0518
  348HD       C 1390   4.938   3.973   2.451 -0.1944  0.0785  0.4212
  348HD       C 1391   4.653   4.229   2.580  0.0259 -0.2386  0.0291
  348HD       C 1392   4.373   4.532   2.732  0.2030 -0.1929 -0.2220
  349HD       C 1393   4.015   4.224   6.822  0.1788 -0.0467 -0.3771
  349HD       C 1394   3.671   4.168   7.064 -0.2557 -0.2755 -0.1330
  349HD       C 1395   3.653   3.804   7.293  0.0164  0.1520  0.2870
  349HD       C 1396   3.765   3.839   7.658 -0.0789  0.2300  0.0778
  350HD       C 1397   4.956   4.838   2.398  0.0827  0.2327 -0.0767
  350HD       C 1398   5.118   4.453   2.433  0.2673  0.1820  0.0817
  350HD       C 1399   5.229   4.194   2.119 -0.2117 -0.0026 -0.4385
  350HD       C 1400   5.631   4.018   2.118 -0.1413  0.0043 -0.4201
  351HD       C 1401   4.358   2.399   3.943  0.0023 -0.1537 -0.2421
  351HD       C 1402   4.577   2.638   4.340 -0.0931  0.0651 -0.2358
  351HD       C 1403   4.643   2.945   4.602 -0.1708  0.1064 -0.0089
  351HD       C 1404   4.297   3.355   4.737 -0.1560 -0.1037  0.1205
  352HD       C 1405   1.475   2.195   0.569  0.1611 -0.0079  0.1392
  352HD       C 1406   1.773   2.352   0.155  0.1041 -0.1247  0.1264
  352HD       C 1407   1.925   2.333  -0.197  0.2071  0.1105 -0.0328
  352HD       C 1408   1.852   2.322  -0.686  0.0358 -0.0698 -0.0536
  353HD       C 1409   2.416   5.855   4.483  0.0002  0.1831  0.0797
  353HD       C 1410   2.107   6.222   4.466  0.0767  0.0496  0.1554
  353HD       C 1411   2.214   6.485   4.661  0.0867 -0.0204 -0.1673
  353HD       C 1412   1.987   6.752   5.082  0.0945 -0.0819 -0.2006
  354HD       C 1413   2.575   2.043   1.729 -0.1026 -0.0141  0.1772
  354HD       C 1414   2.169   2.186   1.639 -0.2028  0.0450 -0.0816
  354HD       C 1415   1.751   2.195   1.883 -0.0332 -0.0437  0.0019
  354HD       C 1416   1.421   2.452   1.791 -0.2561  0.2014 -0.0431
  355HD       C 1417   5.273   4.785   3.936 -0.0316  0.2560 -0.0359
  355HD       C 1418   5.074   4.454   3.713  0.2177  0.1021  0.1415
  355HD       C 1419   4.795   4.173   3.735  0.2013 -0.1526  0.0286
  355HD       C 1420   4.416   4.111   3.970  0.1252  0.0833  0.1250
  356HD       C 1421   2.817   5.687   6.611 -0.1068  0.1132 -0.2614
  356HD       C 1422   2.517   5.530   6.858  0.1139 -0.0708  0.4052
  356HD       C 1423   2.604   5.315   7.111  0.1041 -0.1366 -0.0515
  356HD       C 1424   2.727   5.160   7.519 -0.0719 -0.0490 -0.2482
  357HD       C 1425   4.699   3.634   2.224 -0.1140  0.1561  0.0026
  357HD       C 1426   5.118   3.615   2.180  0.1001  0.2172  0.0357
  357HD       C 1427   5.600   3.546   2.280 -0.0036 -0.1866  0.0980
  357HD       C 1428   5.876   3.218   2.414 -0.0050 -0.0047  0.0676
  358HD       C 1429   0.228   5.476   1.849 -0.1756 -0.1016 -0.0430
  358HD       C 1430  -0.078   5.450   2.260  0.2663  0.3962 -0.1576
  358HD       C 1431  -0.197   5.177   2.670 -0.3575 -0.1383 -0.2256
  358HD       C 1432  -0.318   4.746   3.015 -0.0820 -0.0916  0.0172
  359HD       C 1433   3.470   2.315   1.179  0.1366  0.1428  0.1152
  359HD       C 1434   3.797   2.540   1.007 -0.2861  0.1788  0.1872
  359HD       C 1435   4.234   2.542   1.260  0.1025 -0.2943  0.0875
  359HD       C 1436   4.011   2.698   1.615 -0.1380 -0.0674  0.0167
  360HD       C 1437   2.728   2.201   3.978  0.0692 -0.0987  0.1092
  360HD       C 1438   2.694   1.846   3.741 -0.2410 -0.0138 -0.1353
  360HD       C 1439   2.442   1.654   3.415 -0.2965 -0.3561  0.1829
  360HD       C 1440   2.055   1.750   3.497  0.1345 -0.2914 -0.0487
  361HD       C 1441   4.333   5.243   5.900  0.0108  0.1026  0.1640
  361HD       C 1442   4.226   5.458   6.285 -0.0805 -0.3395 -0.2574
  361HD       C 1443   4.083   5.874   6.355 -0.1851  0.0537  0.3693
  361HD       C 1444   3.968   6.160   6.531  0.1055 -0.0774  0.0403
  362HD       C 1445   1.409   1.364   0.797  0.0882  0.2728  0.0213
  362HD       C 1446   1.005   1.415   0.801 -0.1625  0.0178  0.4336
  362HD       C 1447   0.599   1.580   0.588  0.2814  0.0674 -0.2191
  362HD       C 1448   0.329   1.216   0.563  0.0284 -0.0639 -0.0456
  363HD       C 1449   5.931   3.386   1.412  0.0892 -0.0845 -0.2342
  363HD       C 1450   6.275   3.654   1.645 -0.1831  0.2791 -0.2389
  363HD       C 1451   6.790   3.635   1.798  0.0641 -0.1051 -0.2256
  363HD       C 1452   7.171   3.589   1.597  0.0216  0.3038 -0.4674
  364HD       C 1453   6.240   0.084   0.502 -0.0290 -0.0137 -0.1270
  364HD       C 1454   6.278  -0.274   0.717 -0.2227 -0.4089  0.0743
  364HD       C 1455   6.241  -0.678   0.668  0.1794  0.1844 -0.0770
  364HD       C 1456   6.348  -1.194   0.533  0.0527 -0.3872  0.2013
  365HD       C 1457   2.867   0.046   2.232 -0.1589  0.1869  0.2983
  365HD       C 1458   2.465   0.372   2.526  0.0620  0.1712 -0.2333
  365HD       C 1459   2.279   0.785   2.631 -0.1062  0.0974  0.0349
  365HD       C 1460   1.921   1.168   2.682 -0.4269  0.0920 -0.2804
  366HD       C 1461   1.314   6.451   3.115 -0.0266 -0.2431 -0.0440
  366HD       C 1462   1.262   6.499   2.727  0.1330  0.1041  0.0653
  366HD       C 1463   1.236   6.520   2.240 -0.1718  0.0143  0.4431
  366HD       C 1464   0.996   6.325   1.956 -0.0433  0.0521 -0.2263
  367HD       C 1465   3.181   1.218   6.276  0.0362 -0.1693  0.1194
  367HD       C 1466   3.480   1.469   6.443 -0.0626 -0.1818  0.0853
  367HD       C 1467   3.833   1.547   6.647  0.0828  0.0872  0.1503
  367HD       C 1468   3.801   1.871   6.903  0.0880  0.2698 -0.1864
  368HD       C 1469   3.710   5.867   2.386  0.7402 -0.1285  0.1295
  368HD       C 1470   4.078   5.974   2.402 -0.0300 -0.1363 -0.0312
  368HD       C 1471   4.542   5.850   2.328  0.0848  0.1756  0.0740
  368HD       C 1472   4.955   5.534   2.415  0.2291 -0.0548 -0.0548
  369HD       C 1473   6.337   4.793   4.017 -0.1247 -0.1190  0.1381
  369HD       C 1474   6.798   4.858   4.073  0.3079 -0.1415  0.0912
  369HD       C 1475   7.123   5.091   4.258 -0.1213 -0.2802 -0.0932
  369HD       C 1476   7.283   5.402   4.470  0.2968  0.1794  0.0304
  370HD       C 1477   1.145   0.432   6.411 -0.0091 -0.0420 -0.1018
  370HD       C 1478   1.611   0.364   6.533  0.1275 -0.2250  0.0045
  370HD       C 1479   1.754  -0.064   6.446 -0.1498 -0.0506  0.1208
  370HD       C 1480   1.866  -0.426   6.532 -0.0636  0.3260  0.2320
  371HD       C 1481   4.199   6.174   3.218  0.2317  0.0959 -0.0787
  371HD       C 1482   4.001   6.064   3.514 -0.4549  0.0137 -0.2513
  371HD       C 1483   3.900   6.099   3.901 -0.5857 -0.3684  0.3517
  371HD       C 1484   3.782   6.287   4.246 -0.0899 -0.0221  0.0317
  372HD       C 1485   3.334   2.595   1.656  0.0447  0.3296 -0.1018
  372HD       C 1486   2.913   2.513   1.464 -0.0224 -0.1784  0.0838
  372HD       C 1487   2.533   2.342   1.209 -0.3847 -0.1267  0.2649
  372HD       C 1488   2.190   2.564   1.111  0.2925  0.1698  0.0203
  373HD       C 1489   0.361   1.690   2.052  0.1343 -0.0132  0.1992
  373HD       C 1490   0.006   1.765   1.884  0.3039 -0.1006  0.1952
  373HD       C 1491  -0.397   1.703   1.545 -0.1154 -0.0828  0.1660
  373HD       C 1492  -0.896   1.707   1.485 -0.0429  0.1843 -0.1045
  374HD       C 1493   0.774   2.529   7.238  0.5499 -0.1357  0.0866
  374HD       C 1494   1.021   2.210   7.122  0.2302  0.1148  0.2108
  374HD       C 1495   1.337   2.076   7.346 -0.2127  0.1177  0.0932
  374HD       C 1496   1.736   1.816   7.352 -0.2269 -0.2672 -0.1251
  375HD       C 1497   4.118   1.728   4.178 -0.0008  0.1079  0.1117
  375HD       C 1498   4.294   2.106   4.446 -0.1587  0.1893  0.1878
  375HD       C 1499   4.713   2.121   4.519  0.1668 -0.3948  0.0174
  375HD       C 1500   5.066   2.331   4.599  0.0501  0.1712 -0.2034
  376HD       C 1501   7.617   5.923   0.007 -0.1731  0.0307  0.1840
  376HD       C 1502   7.762   5.566   0.348  0.0485  0.0534  0.1456
  376HD       C 1503   7.450   5.372   0.629 -0.0882  0.1853  0.1729
  376HD       C 1504   7.076   5.393   0.779 -0.2361 -0.1287 -0.2485
  377HD       C 1505   7.219   6.452   5.352 -0.0306  0.0924  0.1751
  377HD       C 1506   6.885   6.087   5.426 -0.0220  0.0745 -0.0666
  377HD       C 1507   6.720   5.913   5.787  0.0308  0.1030 -0.0167
  377HD       C 1508   6.443   5.644   6.001 -0.2793  0.1514 -0.0213
  378HD       C 1509   6.411   4.114   1.215  0.0097 -0.0161 -0.1891
  378HD       C 1510   6.765   4.109   0.901 -0.2349 -0.0493 -0.0147
  378HD       C 1511   6.939   3.766   0.602 -0.1212 -0.1686 -0.3598
  378HD       C 1512   7.039   3.630   0.211  0.1864 -0.1234 -0.5273
  379HD       C 1513   7.288   3.491   6.708 -0.1958 -0.1124  0.0265
  379HD       C 1514   7.367   3.086   6.987  0.3604  0.1184 -0.3388
  379HD       C 1515   7.741   2.854   7.110 -0.0164  0.3496  0.1808
  379HD       C 1516   7.954   2.743   7.406  0.0370 -0.2799  0.2071
  380HD       C 1517   4.617   5.989   1.325  0.1571 -0.0865 -0.0264
  380HD       C 1518   4.223   6.144   1.462 -0.0518  0.0456 -0.0716
  380HD       C 1519   4.026   6.293   1.896  0.2084 -0.3608  0.0900
  380HD       C 1520   3.556   6.122   2.001  0.0355  0.0292 -0.3084
  381HD       C 1521   0.246   2.324   1.078  0.0346 -0.3409  0.0685
  381HD       C 1522   0.550   2.047   0.841 -0.1680 -0.1034 -0.1126
  381HD       C 1523   0.955   1.877   0.704 -0.1813 -0.3474  0.0022
  381HD       C 1524   1.297   1.728   0.470 -0.0232  0.2084  0.0847
  382HD       C 1525   6.937   0.670   5.404  0.1051 -0.3029  0.1524
  382HD       C 1526   7.308   0.513   5.366  0.1322  0.0008  0.0178
  382HD       C 1527   7.643   0.380   5.637 -0.0144 -0.1036 -0.0098
  382HD       C 1528   7.855   0.123   5.972  0.1501  0.3245 -0.1593
  383HD       C 1529   1.138   5.488   2.090  0.0459 -0.0792  0.2354
  383HD       C 1530   1.362   5.526   1.642  0.2011  0.2607  0.2273
  383HD       C 1531   1.637   5.716   1.283 -0.0489 -0.0564 -0.0543
  383HD       C 1532   1.657   5.743   0.874  0.1414 -0.1651  0.1163
  384HD       C 1533   1.291   6.023   6.862  0.0123 -0.0288 -0.0409
  384HD       C 1534   1.107   5.704   7.126  0.1280  0.1994 -0.1240
  384HD       C 1535   0.882   5.527   7.520 -0.0914  0.1744  0.1083
  384HD       C 1536   0.540   5.688   7.764  0.0626  0.0099 -0.0517
  385HD       C 1537   6.405   4.510   0.035  0.0818 -0.2560 -0.2132
  385HD       C 1538   6.391   5.011   0.177  0.1049 -0.0749 -0.0327
  385HD       C 1539   6.201   5.195   0.452 -0.0565 -0.0387 -0.2102
  385HD       C 1540   5.966   5.354   0.750  0.2624  0.1423  0.1697
  386HD       C 1541   1.470   1.449   4.576  0.0941  0.3030  0.1122
  386HD       C 1542   1.786   1.224   4.835 -0.2223 -0.0614 -0.2229
  386HD       C 1543   2.046   1.044   5.175 -0.0561 -0.1770 -0.1903
  386HD       C 1544   2.074   0.652   5.549  0.1250  0.1411  0.2648
  387HD       C 1545   4.948   5.179   3.787  0.2037 -0.4588  0.0348
  387HD       C 1546   4.878   5.626   3.844  0.5115  0.4869  0.1059
  387HD       C 1547   4.860   5.812   4.240 -0.0634  0.3385 -0.1617
  387HD       C 1548   4.689   6.019   4.576 -0.1785 -0.0926 -0.2504
  388HD       C 1549   0.856   1.810   0.178  0.2533 -0.0463 -0.0824
  388HD       C 1550   1.076   1.648  -0.103  0.2062  0.0763 -0.2366
  388HD       C 1551   1.046   1.230  -0.331  0.2895 -0.0801 -0.2649
  388HD       C 1552   0.797   1.247  -0.668 -0.1618  0.0709 -0.0671
  389HD       C 1553   3.441   2.531   6.644 -0.0580  0.2215  0.1492
  389HD       C 1554   3.079   2.462   6.414  0.1387 -0.0933 -0.1455
  389HD       C 1555   2.913   2.523   6.084  0.2066  0.3088  0.0680
  389HD       C 1556   2.948   2.775   5.756  0.0034  0.1855 -0.0270
  390HD       C 1557   1.395   3.810   6.798 -0.1425 -0.2325  0.1437
  390HD       C 1558   0.897   3.903   6.572  0.1522  0.0092  0.3587
  390HD       C 1559   0.449   3.652   6.687 -0.0750 -0.0475  0.1834
  390HD       C 1560   0.123   3.308   6.734  0.1438  0.0150 -0.0215
  391HD       C 1561   4.376   2.540   6.390 -0.1188  0.0554 -0.0972
  391HD       C 1562   4.538   2.587   6.786  0.0244 -0.0237 -0.0348
  391HD       C 1563   4.544   2.654   7.205  0.0395 -0.1876  0.1876
  391HD       C 1564   4.246   2.629   7.419  0.0392  0.0505  0.0452
  392HD       C 1565   2.981   1.164   5.211  0.2729  0.2122  0.1189
  392HD       C 1566   2.807   1.027   5.571  0.1661  0.1386  0.1632
  392HD       C 1567   2.976   0.873   5.925  0.2286 -0.2385  0.0149
  392HD       C 1568   2.824   0.792   6.303  0.0083 -0.0422  0.0613
  393HD       C 1569   2.919   5.122   1.323  0.3428 -0.1042  0.1349
  393HD       C 1570   2.646   5.212   1.576 -0.3836  0.1021 -0.3091
  393HD       C 1571   2.318   5.086   1.815 -0.0233  0.1405 -0.3452
  393HD       C 1572   2.003   4.723   1.813 -0.1116 -0.4232 -0.2056
  394HD       C 1573   6.095   4.138   2.308 -0.0358  0.0095  0.2056
  394HD       C 1574   5.871   3.941   2.619  0.0827 -0.0320  0.0101
  394HD       C 1575   5.740   3.552   2.738 -0.0088  0.1041 -0.0372
  394HD       C 1576   5.855   3.244   3.021  0.2989  0.0522  0.2973
  395HD       C 1577   3.372   0.975   3.896 -0.2307  0.0062 -0.1987
  395HD       C 1578   3.613   0.606   4.038 -0.1968  0.1010 -0.1988
  395HD       C 1579   3.562   0.216   4.309 -0.0932 -0.2434 -0.4347
  395HD       C 1580   3.783  -0.059   4.645 -0.0407  0.1213 -0.5425
  396HD       C 1581   6.793   4.474   3.731 -0.0809  0.1478  0.1160
  396HD       C 1582   6.809   4.305   4.114 -0.0308  0.0388  0.0623
  396HD       C 1583   7.028   4.054   4.411  0.1199  0.0123  0.2142
  396HD       C 1584   7.217   4.244   4.709  0.0036  0.2555  0.2117
  397HD       C 1585   5.577   3.132   5.891  0.2616 -0.0667  0.0008
  397HD       C 1586   5.632   3.539   6.135 -0.1067  0.4703  0.1555
  397HD       C 1587   5.506   3.721   6.565 -0.3067 -0.1162 -0.1265
  397HD       C 1588   5.477   3.935   6.941 -0.2524  0.0025 -0.2591
  398HD       C 1589   0.287   6.548   3.634 -0.2849  0.0889  0.2236
  398HD       C 1590   0.573   6.580   3.282 -0.0737 -0.0208 -0.1393
  398HD       C 1591   0.801   6.705   2.929 -0.0854  0.0564  0.2729
  398HD       C 1592   1.062   6.888   2.592 -0.0452  0.0728  0.0472
  399HD       C 1593   3.452   4.422   2.014 -0.1802 -0.0647 -0.0044
  399HD       C 1594   3.068   4.311   1.799 -0.0560  0.2803 -0.0195
  399HD       C 1595   2.877   4.460   1.496  0.0091  0.1692  0.0246
  399HD       C 1596   2.769   4.610   1.085 -0.1395  0.2347  0.1385
  400HD       C 1597   2.570   0.643   3.488 -0.2475  0.1147 -0.1495
  400HD       C 1598   2.616   0.446   3.809 -0.2098  0.0636  0.1745
  400HD       C 1599   2.658   0.637   4.193  0.0088  0.1571 -0.0176
  400HD       C 1600   2.936   0.886   4.519  0.3029  0.1934  0.2183
  401HD       C 1601   5.339   2.915   0.966 -0.0646  0.3047 -0.0147
  401HD       C 1602   5.040   2.999   0.647 -0.1197 -0.1357  0.3399
  401HD       C 1603   4.895   3.080   0.240  0.2854 -0.0301  0.0584
  401HD       C 1604   4.842   3.025  -0.247 -0.0008 -0.1715  0.0190
  402HD       C 1605   2.231   4.368   5.168 -0.0314  0.1417  0.1782
  402HD       C 1606   2.313   4.435   5.607 -0.1905  0.1787  0.1410
  402HD       C 1607   2.130   4.551   5.911  0.1611  0.1017  0.0463
  402HD       C 1608   2.026   4.631   6.367 -0.0054  0.0124 -0.2760
  403HD       C 1609   2.178   5.255   4.592 -0.1858 -0.0733 -0.5084
  403HD       C 1610   2.070   4.911   4.893 -0.0267 -0.2247  0.0754
  403HD       C 1611   1.839   4.678   5.222 -0.2503 -0.1283 -0.0455
  403HD       C 1612   1.778   4.708   5.589  0.2021 -0.1377 -0.2800
  404HD       C 1613   1.595   6.956   2.428  0.4009  0.2233 -0.2562
  404HD       C 1614   2.050   6.837   2.570 -0.1806 -0.0528 -0.0706
  404HD       C 1615   2.367   6.827   2.915 -0.3037  0.1913 -0.0138
  404HD       C 1616   2.584   6.414   3.034  0.1362  0.1701 -0.2899
  405HD       C 1617   4.311   1.811   2.471  0.0111  0.0433  0.0940
  405HD       C 1618   3.792   1.849   2.491  0.0391  0.0042 -0.0196
  405HD       C 1619   3.479   1.955   2.768  0.3378 -0.0102 -0.0487
  405HD       C 1620   3.329   2.337   3.043 -0.0222 -0.1888  0.4363
  406HD       C 1621   3.003   5.467   1.967 -0.3103  0.2111 -0.0320
  406HD       C 1622   2.711   5.138   2.186 -0.2838  0.0410  0.2122
  406HD       C 1623   2.741   4.977   2.652  0.1605  0.0739  0.1645
  406HD       C 1624   3.038   4.724   2.913  0.2924 -0.1044 -0.1928
  407HD       C 1625   0.044   2.155   2.455 -0.3732  0.2123 -0.1711
  407HD       C 1626  -0.068   2.021   2.830  0.2643 -0.0705  0.1054
  407HD       C 1627  -0.370   2.086   3.104  0.0826  0.0523 -0.0970
  407HD       C 1628  -0.805   2.000   3.129 -0.1735  0.2635 -0.0155
  408HD       C 1629   3.975   1.447   3.748 -0.1092  0.0998  0.2585
  408HD       C 1630   3.931   1.059   3.901  0.1325  0.4667 -0.1996
  408HD       C 1631   3.905   0.858   4.301  0.3240 -0.2052 -0.0510
  408HD       C 1632   3.785   0.601   4.596  0.0798  0.0852  0.2279
  409HD       C 1633   6.725   0.251   1.271 -0.3152  0.2700 -0.0429
  409HD       C 1634   7.042   0.387   1.555 -0.0350 -0.3201 -0.1616
  409HD       C 1635   7.101   0.807   1.698 -0.0340  0.2503 -0.0606
  409HD       C 1636   7.483   0.973   1.797 -0.1290 -0.4519 -0.1560
  410HD       C 1637   4.139   6.725   2.148  0.1355  0.0892 -0.2202
  410HD       C 1638   4.330   6.383   2.308  0.1231  0.2522  0.1934
  410HD       C 1639   4.455   6.185   2.724  0.0063 -0.0929  0.1853
  410HD       C 1640   4.932   5.958   2.753  0.0215  0.2071  0.1577
  411HD       C 1641   0.542   4.914   3.388 -0.0175  0.0817  0.0798
  411HD       C 1642   0.858   4.755   3.744  0.0102 -0.1262 -0.0118
  411HD       C 1643   0.804   4.724   4.190 -0.1518  0.1133 -0.1334
  411HD       C 1644   0.872   5.089   4.486  0.1445  0.4801 -0.0142
  412HD       C 1645   4.760   0.559   5.717  0.3301 -0.1313 -0.1144
  412HD       C 1646   4.671   0.453   6.228 -0.0911  0.2881  0.1248
  412HD       C 1647   4.574   0.346   6.557 -0.0195  0.1476 -0.0355
  412HD       C 1648   4.261   0.413   6.889  0.1098  0.0082 -0.0861
  413HD       C 1649   2.003   5.172   6.783 -0.0363 -0.2075  0.3987
  413HD       C 1650   2.111   5.103   7.218 -0.0353  0.0511  0.0287
  413HD       C 1651   2.218   5.127   7.692 -0.2919 -0.0911 -0.0292
  413HD       C 1652   2.444   4.729   7.906  0.0036  0.3648  0.1325
  414HD       C 1653   5.259   5.700   0.531 -0.1308  0.2053 -0.2927
  414HD       C 1654   4.937   5.335   0.447 -0.0264  0.2473 -0.1552
  414HD       C 1655   4.655   5.058   0.260  0.2144  0.0184 -0.2899
  414HD       C 1656   4.474   4.753  -0.004 -0.1252  0.0030 -0.0131
  415HD       C 1657   3.010   2.606   6.936 -0.0396  0.0297 -0.2908
  415HD       C 1658   3.016   2.902   6.592  0.2932  0.2460 -0.1962
  415HD       C 1659   2.958   3.118   6.124  0.0802 -0.0671  0.0865
  415HD       C 1660   3.212   3.207   5.676  0.0794  0.0743  0.0934
  416HD       C 1661   0.004   3.216   4.192  0.0156 -0.0770 -0.1918
  416HD       C 1662   0.201   3.372   4.495 -0.2253  0.0079 -0.1022
  416HD       C 1663   0.325   3.610   4.927 -0.0205 -0.0197 -0.0771
  416HD       C 1664   0.705   3.721   5.159  0.0464  0.1527  0.0055
  417HD       C 1665   6.574   2.220   1.311  0.1147 -0.2465  0.3198
  417HD       C 1666   6.965   1.995   1.102  0.1992  0.2334  0.0030
  417HD       C 1667   7.279   2.103   1.058 -0.2111  0.0446  0.2018
  417HD       C 1668   7.478   2.528   1.057 -0.1044  0.2981  0.0707
  418HD       C 1669   7.625   0.878   4.295  0.0675  0.0656 -0.2212
  418HD       C 1670   7.600   0.824   3.885  0.2053 -0.2923  0.1702
  418HD       C 1671   7.449   1.139   3.576  0.3590 -0.1232 -0.0185
  418HD       C 1672   7.426   1.052   3.197  0.0471  0.2124  0.2611
  419HD       C 1673   7.232   4.883   1.486 -0.0160 -0.1034 -0.0219
  419HD       C 1674   7.159   4.518   1.245 -0.3539 -0.1184  0.3194
  419HD       C 1675   7.324   4.246   0.964 -0.1409 -0.0471 -0.2985
  419HD       C 1676   7.451   3.882   0.764  0.0137  0.0381  0.0207
  420HD       C 1677   1.484   0.710   5.534  0.0301 -0.1928 -0.0406
  420HD       C 1678   1.448   1.089   5.349  0.2628 -0.2303  0.0895
  420HD       C 1679   1.591   1.506   5.224  0.0553  0.1719 -0.3588
  420HD       C 1680   1.788   1.820   4.913 -0.0101  0.4665 -0.4715
  421HD       C 1681   1.249   1.846   5.060 -0.1692  0.0046  0.0256
  421HD       C 1682   1.146   1.402   5.058 -0.2683  0.1358  0.1076
  421HD       C 1683   0.918   1.286   5.330 -0.1552 -0.4734 -0.0231
  421HD       C 1684   0.689   1.500   5.649  0.3730 -0.0523 -0.4896
  422HD       C 1685   4.854   5.752   4.902  0.0652 -0.2821  0.2282
  422HD       C 1686   5.016   6.140   4.937  0.0637 -0.0623  0.1314
  422HD       C 1687   4.765   6.429   4.831  0.2220  0.2302  0.2033
  422HD       C 1688   4.873   6.894   4.871  0.0430  0.0339 -0.2481
  423HD       C 1689   1.457   4.177   4.772 -0.0379  0.3268  0.0508
  423HD       C 1690   1.626   3.809   4.821 -0.0685 -0.0971  0.2083
  423HD       C 1691   1.586   3.477   4.789 -0.2747 -0.2692 -0.0771
  423HD       C 1692   1.555   3.273   5.104  0.2609 -0.2311  0.2370
  424HD       C 1693   2.963   1.267   1.195 -0.0583 -0.1878  0.2650
  424HD       C 1694   3.304   1.252   1.399  0.1667  0.0343 -0.1159
  424HD       C 1695   3.584   0.992   1.493  0.3019 -0.2020  0.2762
  424HD       C 1696   3.872   0.717   1.457 -0.0822  0.0166  0.0396
  425HD       C 1697   2.346   1.791   1.307 -0.1264  0.0837 -0.2207
  425HD       C 1698   2.057   2.075   1.215 -0.3049  0.2472 -0.0411
  425HD       C 1699   1.927   2.278   0.777  0.1115  0.1051 -0.0394
  425HD       C 1700   2.105   2.544   0.532 -0.3327 -0.0871  0.1217
  426HD       C 1701   4.579   2.187   7.087 -0.1950  0.1984  0.0017
  426HD       C 1702   4.122   2.279   7.131  0.0539  0.1647 -0.0718
  426HD       C 1703   3.684   2.329   7.063  0.3052 -0.0362  0.1792
  426HD       C 1704   3.361   2.336   7.352  0.0729 -0.1223  0.1583
  427HD       C 1705   4.578   3.022   4.043  0.0729  0.4100  0.0777
  427HD       C 1706   4.884   3.346   3.843  0.0258  0.4567  0.0166
  427HD       C 1707   5.234   3.584   3.650 -0.2653 -0.0073  0.2359
  427HD       C 1708   5.190   3.958   3.501  0.1152 -0.1204 -0.1978
  428HD       C 1709   5.745   1.150   1.337  0.3535 -0.1173 -0.0551
  428HD       C 1710   5.953   1.506   1.530 -0.1264 -0.1378 -0.3576
  428HD       C 1711   5.922   1.631   1.939  0.1881  0.4210 -0.4501
  428HD       C 1712   6.242   1.765   2.202 -0.5016  0.0394  0.1729
  429HD       C 1713   0.429   7.114   0.405  0.0223 -0.1197 -0.1478
  429HD       C 1714   0.623   6.947   0.101  0.0260 -0.0779  0.0193
  429HD       C 1715   0.740   6.571  -0.058  0.0486  0.0368  0.1189
  429HD       C 1716   0.836   6.322  -0.374  0.1913  0.1493 -0.0919
  430HD       C 1717   2.670   6.910   1.870  0.3745 -0.2104 -0.1006
  430HD       C 1718   2.838   7.374   1.766 -0.3265  0.0318 -0.0860
  430HD       C 1719   2.975   7.504   1.423 -0.0833  0.1532  0.2358
  430HD       C 1720   3.262   7.332   1.280  0.3688  0.1071 -0.3749
  431HD       C 1721   7.460   2.651   0.235 -0.1166 -0.0388  0.1963
  431HD       C 1722   7.192   2.445   0.571  0.0594 -0.0953  0.2675
  431HD       C 1723   6.815   2.342   0.792  0.4658  0.2985  0.1848
  431HD       C 1724   6.446   2.616   0.892  0.1007  0.1898  0.1115
  432HD       C 1725   6.400   6.072   0.080 -0.3221 -0.0605  0.2298
  432HD       C 1726   6.041   6.192  -0.094  0.1465 -0.0777  0.1053
  432HD       C 1727   5.858   6.281  -0.531 -0.2608 -0.2859 -0.0479
  432HD       C 1728   5.522   6.331  -0.798  0.0973  0.2516  0.2283
  433HD       C 1729   3.359   1.984   0.613  0.1020 -0.2104 -0.0907
  433HD       C 1730   3.689   2.163   0.504  0.3459  0.2012  0.2150
  433HD       C 1731   3.740   2.608   0.477 -0.0959 -0.1576  0.1486
  433HD       C 1732   3.742   2.960   0.752 -0.1221 -0.2825 -0.0471
  434HD       C 1733   3.634   0.660   5.623  0.0342  0.1889  0.0063
  434HD       C 1734   3.227   0.721   5.458  0.3341 -0.0808 -0.0417
  434HD       C 1735   2.855   0.484   5.585  0.1116  0.1212  0.1783
  434HD       C 1736   2.499   0.722   5.335  0.0920  0.0838 -0.0315
  435HD       C 1737   2.188   3.059   0.938 -0.0701  0.3324  0.0509
  435HD       C 1738   2.335   3.069   0.455 -0.0353  0.3337 -0.0643
  435HD       C 1739   2.308   3.235  -0.060  0.1024 -0.2520 -0.3014
  435HD       C 1740   2.125   3.016  -0.442  0.1351  0.1421 -0.1681
  436HD       C 1741   0.353   1.234   3.826  0.2451 -0.2899 -0.3494
  436HD       C 1742   0.220   1.325   4.278  0.2227  0.1817 -0.2979
  436HD       C 1743   0.340   1.442   4.795  0.2098 -0.2051  0.1369
  436HD       C 1744   0.367   1.599   5.174 -0.2208  0.0391  0.0893
  437HD       C 1745   1.200   5.121   3.673 -0.2236  0.2292 -0.2097
  437HD       C 1746   0.872   5.270   3.345  0.0356 -0.0673 -0.2505
  437HD       C 1747   0.503   5.366   3.082 -0.0298 -0.1591 -0.2259
  437HD       C 1748   0.377   5.285   2.683 -0.1430 -0.0390  0.1654
  438HD       C 1749   6.084   1.175   1.994  0.0343  0.1504 -0.1074
  438HD       C 1750   5.901   1.388   2.389  0.1543  0.0927  0.1335
  438HD       C 1751   5.681   1.712   2.774  0.0287  0.1069  0.1312
  438HD       C 1752   5.602   1.850   3.101  0.1168  0.2698 -0.0727
  439HD       C 1753   5.820   7.168   0.787 -0.1795 -0.1316  0.2456
  439HD       C 1754   5.495   6.968   1.041  0.3539  0.1690  0.2351
  439HD       C 1755   5.197   6.679   0.902 -0.1511 -0.0740 -0.0477
  439HD       C 1756   5.002   6.586   0.555  0.0805  0.2596 -0.1556
  440HD       C 1757   2.979   0.869   1.707 -0.0923  0.0795 -0.1277
  440HD       C 1758   3.054   0.822   1.289 -0.0819  0.3920  0.0492
  440HD       C 1759   3.178   0.566   1.062  0.0672  0.0258  0.1402
  440HD       C 1760   2.925   0.123   0.877  0.1294 -0.1334 -0.1385
  441HD       C 1761   1.572   0.493   2.523  0.0914  0.1803 -0.2140
  441HD       C 1762   1.393   0.532   2.114 -0.3097 -0.6043  0.1007
  441HD       C 1763   1.222   0.407   1.704  0.0932 -0.0213  0.0076
  441HD       C 1764   1.395   0.345   1.300 -0.0410  0.3585 -0.1120
  442HD       C 1765   6.561   2.819   2.063  0.0566  0.1443  0.1276
  442HD       C 1766   6.459   2.486   2.202 -0.1039 -0.1863  0.1605
  442HD       C 1767   6.130   2.388   2.164  0.0789 -0.2285 -0.1292
  442HD       C 1768   5.810   2.177   1.913 -0.0177 -0.1515 -0.2315
  443HD       C 1769   7.545   4.632   2.014 -0.0211  0.2960  0.1739
  443HD       C 1770   7.775   4.826   1.679  0.0610  0.0810 -0.1990
  443HD       C 1771   7.799   5.225   1.415 -0.2561 -0.0388 -0.0854
  443HD       C 1772   7.454   5.406   1.143 -0.1529  0.1086 -0.1350
  444HD       C 1773   3.345   7.023   4.283  0.0414 -0.0452 -0.0355
  444HD       C 1774   3.033   7.029   4.239  0.1401 -0.1132 -0.1030
  444HD       C 1775   2.702   7.087   3.876  0.0324  0.0888  0.1768
  444HD       C 1776   2.541   6.925   3.379 -0.1137  0.0157  0.0619
  445HD       C 1777   5.223   0.308   0.728 -0.4261 -0.1031 -0.4380
  445HD       C 1778   5.009  -0.150   0.692  0.2713 -0.2395  0.1333
  445HD       C 1779   4.646  -0.374   0.810 -0.1532 -0.1058 -0.3328
  445HD       C 1780   4.664  -0.788   0.935  0.1806 -0.2581 -0.2001
  446HD       C 1781   0.105   4.990   0.603 -0.0426  0.2344 -0.1170
  446HD       C 1782  -0.085   5.019   0.204 -0.2669  0.1238  0.0450
  446HD       C 1783   0.051   4.877  -0.178  0.1034  0.2829 -0.1635
  446HD       C 1784   0.221   4.461  -0.149 -0.1363  0.2769  0.0566
  447HD       C 1785   1.414   6.575   6.806  0.1625  0.1826  0.2245
  447HD       C 1786   1.360   6.332   6.499  0.3964 -0.2652  0.1694
  447HD       C 1787   0.966   6.189   6.232 -0.0489  0.1171  0.1323
  447HD       C 1788   0.587   6.519   6.148 -0.2268 -0.0786  0.0090
  448HD       C 1789   6.134   6.410   2.844 -0.1378  0.2289 -0.0936
  448HD       C 1790   6.577   6.224   2.570  0.2185  0.0151 -0.2448
  448HD       C 1791   6.778   6.117   2.177  0.2479  0.0936 -0.0063
  448HD       C 1792   6.974   6.211   1.801  0.0633 -0.0174 -0.0894
  449HD       C 1793   6.682   5.039   3.667  0.0941  0.1121  0.2312
  449HD       C 1794   6.611   5.497   3.483  0.1992  0.1815  0.4005
  449HD       C 1795   6.680   5.925   3.295 -0.1231 -0.1874  0.1160
  449HD       C 1796   6.694   6.311   3.121 -0.2281 -0.1222  0.0133
  450HD       C 1797   3.262   2.129   6.119 -0.1481 -0.3320  0.0479
  450HD       C 1798   3.416   2.414   5.785  0.1027 -0.0828 -0.1449
  450HD       C 1799   3.467   2.885   5.408  0.0742  0.0613  0.2055
  450HD       C 1800   3.646   2.756   4.988 -0.0122  0.0227  0.0337
  451HD       C 1801   7.428   7.018   1.935 -0.3240  0.1900  0.1151
  451HD       C 1802   7.390   7.208   1.628  0.1331  0.1047 -0.2095
  451HD       C 1803   7.550   7.464   1.337 -0.1181  0.1584  0.0930
  451HD       C 1804   7.795   7.564   1.043 -0.3039 -0.1092 -0.2006
  452HD       C 1805   1.328   4.006   5.698  0.0863  0.0325  0.1362
  452HD       C 1806   1.131   4.164   5.320 -0.1412  0.3518  0.0602
  452HD       C 1807   1.014   4.047   4.985 -0.2882  0.0762 -0.0208
  452HD       C 1808   1.121   3.757   4.743 -0.1052 -0.1648 -0.0598
  453HD       C 1809   4.580   6.894   1.384 -0.0657  0.0758  0.3833
  453HD       C 1810   4.339   6.704   1.219  0.0008 -0.0352  0.0856
  453HD       C 1811   3.972   6.724   1.136 -0.0604  0.0913  0.1138
  453HD       C 1812   3.483   6.831   1.286  0.1238  0.2139  0.2409
  454HD       C 1813   2.722   3.327   0.230 -0.2019 -0.0600 -0.4346
  454HD       C 1814   2.664   3.528   0.577  0.0486 -0.1225  0.2030
  454HD       C 1815   2.607   3.822   0.870 -0.1769 -0.0611 -0.4938
  454HD       C 1816   2.441   3.779   1.247 -0.0452  0.1531 -0.2027
  455HD       C 1817   3.035   6.159   3.873 -0.0863  0.0393 -0.0828
  455HD       C 1818   3.283   6.036   4.275 -0.2818 -0.0274  0.1857
  455HD       C 1819   3.259   5.881   4.722  0.0093 -0.1368  0.1733
  455HD       C 1820   3.270   6.009   5.246  0.3032  0.1113  0.6484
  456HD       C 1821   1.856   3.394   5.993  0.1472  0.2871  0.2220
  456HD       C 1822   2.164   3.567   5.704  0.2496 -0.1037  0.0431
  456HD       C 1823   2.405   3.871   5.639  0.0678  0.0780 -0.0364
  456HD       C 1824   2.545   4.205   5.984 -0.2352  0.0408  0.0131
  457HD       C 1825   2.438   5.722   3.443 -0.0193  0.0052 -0.0986
  457HD       C 1826   2.343   6.158   3.447 -0.1517  0.0992 -0.0876
  457HD       C 1827   2.441   6.535   3.684 -0.3952 -0.0683  0.0441
  457HD       C 1828   2.228   6.993   3.756 -0.2012  0.1883  0.0643
  458HD       C 1829   0.185   7.114   5.468 -0.0982  0.0001 -0.1570
  458HD       C 1830   0.439   7.258   5.092  0.0907 -0.0050 -0.0736
  458HD       C 1831   0.684   7.116   4.735 -0.3774 -0.2161 -0.0445
  458HD       C 1832   0.969   7.379   4.499 -0.0045 -0.0438  0.0954
  459HD       C 1833   4.688   1.281   2.523  0.1811 -0.2371  0.0015
  459HD       C 1834   4.651   1.618   2.878 -0.1673 -0.0343 -0.0866
  459HD       C 1835   4.627   1.889   3.213 -0.0219 -0.0890 -0.2587
  459HD       C 1836   4.835   2.092   3.652 -0.3181  0.0242 -0.1760
  460HD       C 1837   4.573   4.412   0.363  0.0964 -0.4167 -0.1227
  460HD       C 1838   4.894   4.506   0.161 -0.2018 -0.3593  0.0601
  460HD       C 1839   5.185   4.922   0.198  0.5407 -0.0788 -0.0399
  460HD       C 1840   5.046   5.250  -0.015 -0.1380  0.1269 -0.0675
  461HD       C 1841   4.200   3.567   6.086  0.1979  0.0773  0.0548
  461HD       C 1842   4.248   3.358   5.713  0.0310  0.1586  0.0899
  461HD       C 1843   4.048   3.064   5.469 -0.1781  0.1136 -0.0007
  461HD       C 1844   4.347   2.687   5.353  0.3806 -0.1277 -0.1632
  462HD       C 1845   3.143   2.742   2.195 -0.2104 -0.1686  0.0074
  462HD       C 1846   3.216   3.099   2.431 -0.2737  0.0907 -0.0062
  462HD       C 1847   3.366   3.538   2.518 -0.1869  0.1603 -0.3568
  462HD       C 1848   3.473   3.892   2.798 -0.1684  0.3690 -0.0683
  463HD       C 1849   3.380   6.896   6.238  0.1340 -0.0424 -0.0034
  463HD       C 1850   3.121   7.123   5.950 -0.2208 -0.0644  0.1296
  463HD       C 1851   3.210   7.038   5.506  0.2995 -0.0273  0.0233
  463HD       C 1852   2.820   7.060   5.179  0.1860  0.1085  0.1537
  464HD       C 1853   1.969   1.669   2.555 -0.2197 -0.0343  0.0418
  464HD       C 1854   2.088   1.731   2.979 -0.4837  0.1747 -0.3234
  464HD       C 1855   2.109   2.159   3.195 -0.0662 -0.0784 -0.0119
  464HD       C 1856   2.327   2.153   3.613 -0.0424  0.0840  0.0789
  465HD       C 1857   6.842   4.905   3.182  0.0695  0.2670 -0.3331
  465HD       C 1858   6.982   5.129   2.969 -0.1576 -0.0394 -0.1401
  465HD       C 1859   7.008   5.376   2.611  0.1177 -0.2511 -0.1423
  465HD       C 1860   6.640   5.635   2.492 -0.3837  0.4482 -0.1735
  466HD       C 1861   1.770   0.912   5.943 -0.0468  0.1964 -0.0277
  466HD       C 1862   1.368   0.633   6.020  0.4163  0.3050  0.2167
  466HD       C 1863   0.974   0.775   6.069  0.1855  0.2005  0.0878
  466HD       C 1864   0.851   1.207   5.992  0.3885 -0.0877 -0.1372
  467HD       C 1865   1.139   4.651   6.869  0.0577  0.3159 -0.1594
  467HD       C 1866   1.164   4.316   6.610  0.1647 -0.1174 -0.0465
  467HD       C 1867   1.354   4.099   6.349  0.0921  0.3483 -0.0287
  467HD       C 1868   1.585   3.777   6.120 -0.0538  0.4139  0.2586
  468HD       C 1869   0.695   6.916   0.839 -0.1216  0.1223 -0.1714
  468HD       C 1870   0.519   7.137   1.214 -0.1181 -0.0724  0.0306
  468HD       C 1871   0.303   7.177   1.655 -0.1451 -0.3942 -0.1980
  468HD       C 1872   0.120   7.339   2.067 -0.2557  0.2790  0.3824
  469HD       C 1873   6.314   1.222   5.985 -0.1801 -0.0838  0.0771
  469HD       C 1874   5.976   1.195   5.659  0.2310 -0.1179  0.1118
  469HD       C 1875   5.693   1.504   5.379  0.0454  0.2333 -0.1136
  469HD       C 1876   5.402   1.278   5.164 -0.0634 -0.0385  0.0372
  470HD       C 1877   3.453   3.679   3.769 -0.1505 -0.0274 -0.2159
  470HD       C 1878   3.561   3.821   3.364  0.1698  0.0430 -0.0946
  470HD       C 1879   3.779   4.080   3.205 -0.0703 -0.0642  0.0128
  470HD       C 1880   3.944   4.371   3.102  0.1857 -0.0797 -0.2945
  471HD       C 1881   5.905   4.283   5.053  0.4562 -0.1329 -0.1526
  471HD       C 1882   6.182   4.104   4.818 -0.0246  0.1189  0.0716
  471HD       C 1883   6.485   3.744   4.746 -0.1519  0.0549  0.1475
  471HD       C 1884   6.258   3.337   4.785  0.1314  0.0186 -0.0231
  472HD       C 1885   2.176   4.387   3.005  0.1951 -0.0386 -0.1086
  472HD       C 1886   2.555   4.555   3.061 -0.2191  0.0471  0.0612
  472HD       C 1887   3.015   4.500   3.317 -0.1072  0.4221  0.0929
  472HD       C 1888   3.220   4.952   3.395  0.1052  0.1279 -0.0133
  473HD       C 1889   6.297   1.402   5.269  0.0466 -0.1780 -0.1159
  473HD       C 1890   5.941   1.335   4.948 -0.0136  0.2936 -0.3054
  473HD       C 1891   5.633   1.652   4.822  0.1715 -0.2642  0.1843
  473HD       C 1892   5.588   1.990   5.072  0.1113 -0.0905 -0.1117
  474HD       C 1893   5.095   4.273   4.975  0.2137 -0.2983  0.1463
  474HD       C 1894   4.689   4.172   4.818  0.0727  0.2490  0.0718
  474HD       C 1895   4.565   4.116   4.451 -0.1930  0.0661 -0.1032
  474HD       C 1896   4.369   3.759   4.362 -0.3093 -0.1428 -0.1379
  475HD       C 1897   2.857   1.688   4.213 -0.1338  0.1406 -0.0607
  475HD       C 1898   2.968   2.105   4.356 -0.1133 -0.1150 -0.1773
  475HD       C 1899   2.753   2.520   4.342  0.1146 -0.1328  0.3633
  475HD       C 1900   2.273   2.470   4.514 -0.2325  0.3736  0.2138
  476HD       C 1901   5.116   1.441   7.086  0.1482 -0.3588 -0.0435
  476HD       C 1902   5.005   1.559   7.456  0.2018 -0.0091  0.0245
  476HD       C 1903   5.087   1.854   7.642 -0.3460  0.0941 -0.2827
  476HD       C 1904   4.921   2.364   7.489  0.3657  0.1795  0.1385
  477HD       C 1905   1.982   3.951   5.901 -0.0698  0.0375  0.1308
  477HD       C 1906   1.945   4.057   5.537 -0.0037  0.0827 -0.1724
  477HD       C 1907   1.588   4.147   5.219 -0.1397 -0.0508  0.3380
  477HD       C 1908   1.381   4.552   5.084  0.3156 -0.0792  0.0874
  478HD       C 1909   4.982   3.816   3.964  0.0223  0.2235 -0.0908
  478HD       C 1910   4.655   3.718   3.991  0.1483  0.1514  0.0622
  478HD       C 1911   4.251   3.691   3.839 -0.0281 -0.0336  0.0423
  478HD       C 1912   3.940   3.461   3.683  0.1997  0.3537  0.1547
  479HD       C 1913   6.150   4.098   1.795  0.2565  0.2041 -0.1123
  479HD       C 1914   6.195   4.400   1.555  0.2328 -0.0747 -0.3748
  479HD       C 1915   6.028   4.674   1.471 -0.1459  0.1779  0.1858
  479HD       C 1916   5.602   4.896   1.542  0.0446 -0.0489 -0.1733
  480HD       C 1917   2.129   1.241   1.798 -0.3898  0.1682  0.0660
  480HD       C 1918   1.998   1.565   1.559  0.1241 -0.1625  0.0422
  480HD       C 1919   1.653   1.964   1.440 -0.1795 -0.1221 -0.1980
  480HD       C 1920   1.226   2.117   1.499 -0.0380  0.1910  0.0645
  481HD       C 1921   3.127   1.749   4.739  0.1129  0.1366 -0.1247
  481HD       C 1922   3.458   1.763   4.364  0.1509 -0.2700  0.0014
  481HD       C 1923   3.749   1.989   4.416  0.1513  0.0999 -0.0046
  481HD       C 1924   3.859   2.324   4.667  0.2625  0.1398  0.2678
  482HD       C 1925   2.511   2.359   0.187  0.1994 -0.0472  0.0755
  482HD       C 1926   2.250   2.741   0.081  0.0617 -0.1864 -0.1278
  482HD       C 1927   1.839   2.871   0.051  0.1179  0.3144 -0.0105
  482HD       C 1928   1.457   3.081   0.101  0.0531  0.0875  0.0658
  483HD       C 1929   4.112   0.743   2.548 -0.0515  0.0072  0.2377
  483HD       C 1930   3.737   0.566   2.929  0.2239 -0.1812  0.1220
  483HD       C 1931   3.286   0.566   2.724 -0.1976  0.1719  0.1828
  483HD       C 1932   2.934   0.379   2.551 -0.0657 -0.1978  0.4192
  484HD       C 1933   7.064   0.079   5.026  0.0192  0.0035 -0.2568
  484HD       C 1934   7.168   0.013   4.526 -0.0957 -0.0719 -0.2200
  484HD       C 1935   7.302  -0.369   4.340  0.1441 -0.2766  0.0174
  484HD       C 1936   7.304  -0.630   3.882 -0.1792  0.1971 -0.0001
  485HD       C 1937   4.091   5.087   0.623 -0.2079 -0.0582 -0.2763
  485HD       C 1938   4.466   4.927   0.795  0.0580  0.0020  0.3143
  485HD       C 1939   4.771   5.189   0.951  0.5145 -0.1726 -0.1041
  485HD       C 1940   4.974   5.435   0.986 -0.3122 -0.0837 -0.2172
  486HD       C 1941   4.213   6.651   0.699 -0.1678 -0.1228  0.4488
  486HD       C 1942   4.115   6.295   0.933  0.0077 -0.0252 -0.0410
  486HD       C 1943   3.813   6.025   0.760 -0.2672  0.2354 -0.1276
  486HD       C 1944   3.517   5.689   0.654 -0.1423 -0.1773  0.0399
  487HD       C 1945   5.826   6.614   0.905  0.3690  0.1503 -0.1469
  487HD       C 1946   5.548   6.732   0.561  0.0334  0.1898  0.2008
  487HD       C 1947   5.302   6.885   0.251  0.2165  0.2231  0.2190
  487HD       C 1948   5.056   6.957  -0.055  0.1930  0.0586  0.2575
  488HD       C 1949   1.494   5.447   0.170  0.2491 -0.0246 -0.1468
  488HD       C 1950   1.322   5.520   0.585 -0.3122  0.2516  0.2140
  488HD       C 1951   1.210   5.818   0.707 -0.0482  0.0787 -0.2971
  488HD       C 1952   0.843   6.055   0.720 -0.2277  0.2500 -0.3464
  489HD       C 1953   7.027   4.958   5.652  0.0077  0.0784 -0.2322
  489HD       C 1954   6.867   5.259   5.301 -0.1828  0.2216  0.1015
  489HD       C 1955   6.699   5.632   5.311 -0.0762 -0.1004 -0.1766
  489HD       C 1956   6.404   5.991   5.392 -0.0613 -0.1494  0.0314
  490HD       C 1957   7.291   2.221   4.332  0.0602 -0.1498  0.0930
  490HD       C 1958   7.639   2.051   4.048 -0.1912 -0.0338 -0.1492
  490HD       C 1959   8.073   1.881   4.024  0.1265 -0.0245 -0.3261
  490HD       C 1960   8.435   1.946   4.184  0.0964  0.0820  0.0421
  491HD       C 1961   5.267   6.572   4.833  0.0800 -0.0346  0.0504
  491HD       C 1962   5.242   6.880   5.155  0.1173 -0.0259  0.1116
  491HD       C 1963   5.101   7.297   5.291 -0.0619 -0.2638  0.0985
  491HD       C 1964   5.225   7.653   5.560  0.0471  0.1083  0.0242
  492HD       C 1965   5.228   7.183   1.759  0.1763 -0.0721 -0.0911
  492HD       C 1966   5.054   7.289   2.051 -0.2381  0.0090  0.0150
  492HD       C 1967   4.690   7.597   2.125  0.2437  0.1049  0.3362
  492HD       C 1968   4.294   7.628   2.198  0.0991 -0.1021 -0.0835
  493HD       C 1969   4.571   1.488   3.504  0.0212 -0.0926 -0.0205
  493HD       C 1970   4.235   1.546   3.153 -0.0290 -0.0772 -0.2039
  493HD       C 1971   4.120   1.923   2.934 -0.1085  0.1570  0.0583
  493HD       C 1972   4.416   2.200   2.820  0.3480 -0.0994  0.1850
  494HD       C 1973   6.673   3.386   5.680 -0.0600 -0.2013  0.2070
  494HD       C 1974   6.889   3.023   5.786 -0.2067 -0.1499 -0.1269
  494HD       C 1975   6.830   2.767   6.206  0.2630 -0.1978  0.0738
  494HD       C 1976   7.024   2.849   6.598 -0.0374  0.0897  0.3442
  495HD       C 1977   0.319   5.968   3.797 -0.0531  0.1171 -0.1317
  495HD       C 1978   0.685   6.245   3.848  0.0637 -0.2851  0.1344
  495HD       C 1979   0.731   6.694   3.829  0.1691  0.0232  0.1217
  495HD       C 1980   0.975   6.846   3.537 -0.1775 -0.0795  0.1661
  496HD       C 1981   6.536   5.058   1.377  0.0451  0.1626 -0.3660
  496HD       C 1982   6.871   4.917   1.027 -0.2062  0.0331  0.1380
  496HD       C 1983   6.969   4.547   0.770 -0.1977  0.2188 -0.0901
  496HD       C 1984   7.189   4.248   0.458  0.0157  0.0653  0.2926
  497HD       C 1985   5.109   0.824   2.895 -0.3279  0.1105 -0.2549
  497HD       C 1986   5.100   1.242   2.803  0.2783 -0.0706 -0.1716
  497HD       C 1987   5.309   1.496   2.493  0.2003  0.2508 -0.0812
  497HD       C 1988   5.369   1.580   2.077  0.0473 -0.2150 -0.1073
  498HD       C 1989   3.864   6.781   6.430 -0.1397 -0.0159 -0.1133
  498HD       C 1990   3.792   6.861   5.952 -0.0591 -0.0613  0.3508
  498HD       C 1991   3.605   6.832   5.667  0.0410 -0.2004 -0.1850
  498HD       C 1992   3.257   6.561   5.643 -0.1123 -0.1540 -0.2119
  499HD       C 1993   5.348   6.193   1.531 -0.1568 -0.0121 -0.0645
  499HD       C 1994   5.500   5.836   1.579 -0.1019  0.1198  0.0059
  499HD       C 1995   5.558   5.426   1.764  0.0581 -0.2009 -0.2436
  499HD       C 1996   5.709   4.958   1.993 -0.1707  0.1000 -0.0038
  500HD       C 1997   1.823   2.749   2.563  0.0019  0.1402 -0.1191
  500HD       C 1998   2.204   2.885   2.447 -0.2686 -0.1137  0.2939
  500HD       C 1999   2.322   2.934   1.956  0.0891 -0.2842  0.0635
  500HD       C 2000   2.453   2.650   1.632  0.3186  0.0443 -0.1342
  501HD       C 2001   1.055   4.672   2.799 -0.1966  0.0572  0.1745
  501HD       C 2002   1.127   5.058   3.014 -0.3344 -0.0289 -0.2449
  501HD       C 2003   1.447   5.335   3.004  0.0766 -0.1486 -0.2824
  501HD       C 2004   1.724   5.696   2.875 -0.3003 -0.0721  0.1431
  502HD       C 2005   7.239   3.739   6.313  0.0757 -0.1067 -0.0062
  502HD       C 2006   6.846   3.780   6.038  0.3157  0.0655 -0.0802
  502HD       C 2007   6.566   4.116   5.748  0.0050 -0.0245 -0.1394
  502HD       C 2008   6.416   4.270   5.311  0.3053  0.0249 -0.1235
  503HD       C 2009   7.495   5.188   1.813 -0.0669 -0.2321 -0.2064
  503HD       C 2010   7.383   5.631   1.806  0.2451  0.1024 -0.3486
  503HD       C 2011   7.473   6.134   1.685  0.1879 -0.4180 -0.1647
  503HD       C 2012   7.414   6.535   1.569  0.1068 -0.2261  0.0628
  504HD       C 2013   2.388   1.906   5.307 -0.2414  0.1742 -0.0929
  504HD       C 2014   2.234   1.651   4.968 -0.1883 -0.1544  0.2691
  504HD       C 2015   2.338   1.441   4.599  0.1112  0.0295 -0.0608
  504HD       C 2016   2.071   1.200   4.282 -0.0253  0.0571  0.0476
  505HD       C 2017   6.422   1.547   1.776  0.1485 -0.2496  0.0302
  505HD       C 2018   6.699   1.453   2.065  0.3313 -0.0736 -0.0908
  505HD       C 2019   7.009   1.648   2.420  0.0272 -0.3546 -0.1561
  505HD       C 2020   7.404   1.738   2.493  0.0805  0.1376 -0.1211
  506HD       C 2021   6.175   2.903   5.093  0.2456  0.1719 -0.1600
  506HD       C 2022   6.106   2.730   4.627  0.2480  0.0911  0.1025
  506HD       C 2023   5.842   2.451   4.275  0.2079 -0.0557 -0.0525
  506HD       C 2024   5.600   2.136   4.224  0.2069  0.0998 -0.2544
  507HD       C 2025   3.291   7.013   2.583 -0.2310  0.0463  0.1658
  507HD       C 2026   3.272   6.631   2.504  0.2857 -0.0638  0.1324
  507HD       C 2027   3.310   6.156   2.567 -0.0715 -0.0143  0.0879
  507HD       C 2028   3.309   5.845   2.684 -0.0069 -0.0897  0.0386
  508HD       C 2029   0.448   3.256   7.107  0.0497  0.2155 -0.0443
  508HD       C 2030   0.593   3.407   7.429  0.0277  0.4046  0.1910
  508HD       C 2031   0.436   3.603   7.766  0.2181  0.1512 -0.1903
  508HD       C 2032   0.381   3.731   8.261 -0.3138 -0.1512 -0.1854
  509HD       C 2033   6.398   0.769   3.445  0.0485 -0.0262  0.1854
  509HD       C 2034   6.416   0.310   3.471 -0.2167  0.1158 -0.2137
  509HD       C 2035   6.380  -0.017   3.126 -0.0812  0.0045  0.0026
  509HD       C 2036   6.109  -0.356   2.987 -0.2154  0.0878  0.0085
  510HD       C 2037   3.242   6.467   1.740 -0.2570 -0.0231  0.0306
  510HD       C 2038   3.160   6.443   1.374 -0.0030 -0.3285 -0.1493
  510HD       C 2039   3.298   6.525   0.861  0.0472 -0.1396  0.0641
  510HD       C 2040   3.698   6.573   0.687 -0.1076 -0.2007  0.0121
  511HD       C 2041   7.230   4.847   3.532  0.0234 -0.1072 -0.2911
  511HD       C 2042   7.330   5.236   3.779 -0.5265  0.0371  0.0904
  511HD       C 2043   7.416   5.630   3.994 -0.0400 -0.3119  0.2729
  511HD       C 2044   7.765   5.715   4.226  0.0811 -0.1304 -0.2563
  512HD       C 2045   0.787   1.925   1.789 -0.2951 -0.0551  0.0501
  512HD       C 2046   0.413   2.234   1.696 -0.2440  0.1607  0.1882
  512HD       C 2047   0.066   2.473   2.005 -0.1053 -0.3460  0.1718
  512HD       C 2048  -0.299   2.602   2.230  0.0106  0.0470 -0.2695
  513HD       C 2049   1.536   2.865   1.502 -0.4047 -0.3881 -0.0761
  513HD       C 2050   1.316   3.115   1.482 -0.2781 -0.1984  0.3253
  513HD       C 2051   1.334   3.476   1.282  0.1315 -0.0289 -0.0689
  513HD       C 2052   1.292   3.632   1.001 -0.0950 -0.0515  0.1088
  514HD       C 2053   1.520   6.848   1.970  0.0893 -0.1190 -0.1087
  514HD       C 2054   1.214   6.686   1.667  0.0598 -0.2037  0.0549
  514HD       C 2055   1.372   6.322   1.345 -0.0836  0.1659  0.1250
  514HD       C 2056   1.230   6.034   1.141 -0.2130  0.3205  0.1009
  515HD       C 2057   0.913   2.772   5.032  0.0028 -0.4871  0.1414
  515HD       C 2058   0.612   2.422   5.049 -0.0175 -0.2504  0.0256
  515HD       C 2059   0.235   2.298   5.022 -0.0908  0.0243  0.2624
  515HD       C 2060   0.003   2.126   5.211 -0.1365  0.0867  0.2195
  516HD       C 2061   4.362   2.342   5.855 -0.3207 -0.2535  0.1587
  516HD       C 2062   3.974   2.250   6.089  0.1213 -0.2746  0.0700
  516HD       C 2063   3.647   2.406   6.238 -0.0765  0.1438 -0.0499
  516HD       C 2064   3.435   2.784   6.134 -0.0919 -0.2418 -0.1452
  517HD       C 2065   1.837   4.470   4.739  0.1991  0.0477  0.1860
  517HD       C 2066   2.045   4.035   4.835  0.0434  0.0949 -0.1223
  517HD       C 2067   2.003   3.558   5.094  0.0706 -0.0801  0.1814
  517HD       C 2068   2.038   3.174   4.939 -0.0728 -0.2515 -0.2320
  518HD       C 2069   0.178   0.684   5.236  0.1060 -0.2318  0.0720
  518HD       C 2070  -0.035   0.908   5.587  0.0880  0.0351  0.2309
  518HD       C 2071  -0.177   0.975   6.108 -0.0557 -0.1781  0.1447
  518HD       C 2072  -0.526   1.081   6.386  0.2960  0.3368 -0.1212
  519HD       C 2073   1.388   2.429   2.633  0.3131  0.1965 -0.2799
  519HD       C 2074   1.458   2.643   2.262  0.0679  0.0061  0.6161
  519HD       C 2075   1.781   2.787   1.998 -0.0848 -0.0460 -0.0838
  519HD       C 2076   2.134   2.453   2.028  0.5007 -0.1744 -0.1823
  520HD       C 2077   6.530   6.864   2.736  0.1499  0.0750  0.0692
  520HD       C 2078   6.779   6.859   2.502  0.0398 -0.2987 -0.1069
  520HD       C 2079   7.205   7.010   2.418  0.1010  0.0127 -0.2484
  520HD       C 2080   7.726   6.938   2.417 -0.2047 -0.2237 -0.1487
  521HD       C 2081   4.678   4.653   5.090 -0.2411  0.0081  0.0986
  521HD       C 2082   4.370   4.812   5.362  0.2034  0.0746  0.1538
  521HD       C 2083   4.041   4.850   5.670 -0.2847  0.1028 -0.1641
  521HD       C 2084   3.953   5.007   6.120 -0.2323 -0.0922 -0.0645
  522HD       C 2085   3.475   6.811   5.093 -0.0863  0.1325  0.0318
  522HD       C 2086   3.089   6.674   5.203 -0.0132 -0.1013  0.3610
  522HD       C 2087   2.790   6.685   5.600 -0.0091  0.0158 -0.4041
  522HD       C 2088   2.355   6.668   5.625 -0.0550 -0.2228  0.1929
  523HD       C 2089   4.903   2.665   6.421 -0.1189 -0.1992 -0.1534
  523HD       C 2090   5.120   2.762   6.109  0.0992  0.1325  0.1535
  523HD       C 2091   5.128   2.435   5.742 -0.1005 -0.3549 -0.2928
  523HD       C 2092   5.203   2.047   5.500 -0.3267  0.1344 -0.0459
  524HD       C 2093   7.357   1.264   2.686 -0.2681 -0.1468 -0.2376
  524HD       C 2094   7.259   0.766   2.817  0.0620 -0.1357 -0.0434
  524HD       C 2095   7.218   0.408   2.901  0.1026  0.0363 -0.4216
  524HD       C 2096   7.480   0.108   2.646  0.2197 -0.0787  0.1116
  525HD       C 2097   7.616   1.395   2.226 -0.1729 -0.3094  0.2730
  525HD       C 2098   7.811   1.049   2.364  0.0109  0.1132  0.2383
  525HD       C 2099   7.631   0.646   2.163 -0.1834 -0.0061 -0.0987
  525HD       C 2100   7.519   0.453   1.781 -0.1793 -0.1442 -0.0290
  526HD       C 2101   0.580   4.140   6.855  0.0276  0.1394  0.2529
  526HD       C 2102   0.643   4.444   6.522  0.0577 -0.2660 -0.1110
  526HD       C 2103   0.892   4.691   6.337 -0.0839 -0.1410 -0.2106
  526HD       C 2104   1.249   4.771   6.070 -0.0286  0.2898  0.2232
  527HD       C 2105   3.338   2.793   0.040 -0.3057  0.0307 -0.1627
  527HD       C 2106   3.283   3.155  -0.179  0.0613  0.2742  0.0365
  527HD       C 2107   3.165   3.630  -0.308  0.0678 -0.0367  0.0555
  527HD       C 2108   3.193   4.030  -0.210  0.3567  0.2554 -0.0273
  528HD       C 2109   0.240   0.455   3.698 -0.1347  0.1635  0.2414
  528HD       C 2110  -0.100   0.263   3.852 -0.0596 -0.0562  0.1828
  528HD       C 2111  -0.356  -0.026   3.897 -0.0580 -0.1660  0.3168
  528HD       C 2112  -0.711  -0.012   3.997 -0.2451  0.0988  0.3075
  529HD       C 2113   7.432   2.021   5.730  0.1839 -0.0096  0.0352
  529HD       C 2114   7.678   2.337   5.636 -0.0543  0.0441 -0.1481
  529HD       C 2115   7.966   2.653   5.431  0.2131  0.1600  0.1243
  529HD       C 2116   8.280   2.911   5.448  0.2061 -0.1234  0.2840
  530HD       C 2117   7.532   5.275   5.085  0.3419  0.2272  0.2593
  530HD       C 2118   7.271   4.951   5.086 -0.1544  0.2085  0.2889
  530HD       C 2119   6.959   4.697   5.093 -0.0503 -0.1366  0.0722
  530HD       C 2120   6.611   4.558   5.003  0.3087 -0.2359 -0.0917
  531HD       C 2121   5.689   1.206   0.820 -0.1584 -0.0489 -0.1266
  531HD       C 2122   5.591   1.556   1.142 -0.3131  0.2888 -0.1180
  531HD       C 2123   5.289   1.869   0.925  0.1656  0.0547 -0.2001
  531HD       C 2124   4.911   2.022   0.876 -0.0200 -0.2121 -0.0478
  532HD       C 2125   6.756   4.866   7.098 -0.0202 -0.3620 -0.1768
  532HD       C 2126   7.221   4.950   7.058 -0.2085  0.3748  0.1563
  532HD       C 2127   7.462   4.916   6.632  0.3768 -0.0358 -0.0380
  532HD       C 2128   7.626   5.293   6.379 -0.0186 -0.2529  0.1214
  533HD       C 2129   7.479   6.616   6.845 -0.4807 -0.3947 -0.0963
  533HD       C 2130   7.317   6.348   6.902  0.3777 -0.0030  0.1584
  533HD       C 2131   7.182   6.086   7.231 -0.0660 -0.0382 -0.1072
  533HD       C 2132   6.905   5.806   7.199 -0.1142 -0.1327  0.1343
  534HD       C 2133   1.570   4.625   6.470 -0.1071  0.0122  0.0842
  534HD       C 2134   1.659   4.283   6.824  0.0164  0.0959  0.1424
  534HD       C 2135   1.925   3.887   6.865  0.1461 -0.0291 -0.0513
  534HD       C 2136   2.207   3.639   6.826  0.1698 -0.1553  0.1324
  535HD       C 2137   6.793   4.137   3.038  0.1166  0.1581 -0.2491
  535HD       C 2138   6.605   3.776   3.241  0.2834  0.0929  0.1220
  535HD       C 2139   6.563   3.402   3.240 -0.0824  0.2359 -0.0064
  535HD       C 2140   6.480   3.015   3.122 -0.1832  0.0207 -0.0693
  536HD       C 2141   5.761   0.644   2.910  0.0409  0.1117 -0.0230
  536HD       C 2142   5.915   0.832   3.295 -0.1902 -0.1929  0.2881
  536HD       C 2143   5.963   0.699   3.752 -0.0248  0.2269  0.2255
  536HD       C 2144   5.738   0.620   4.130 -0.0822 -0.0433  0.2265
  537HD       C 2145   0.364   1.856   3.032 -0.0739 -0.2813  0.1048
  537HD       C 2146   0.199   1.504   2.979  0.0783 -0.0311  0.0505
  537HD       C 2147   0.280   1.105   2.911  0.0077  0.0241  0.0551
  537HD       C 2148   0.118   0.677   2.742  0.2315  0.2846 -0.2849
  538HD       C 2149   6.583   0.445   5.156 -0.1319  0.0079  0.1988
  538HD       C 2150   6.795   0.155   5.435  0.0669 -0.6012 -0.3662
  538HD       C 2151   6.929  -0.194   5.599  0.2285 -0.1601  0.2715
  538HD       C 2152   6.928  -0.360   6.004 -0.0820 -0.1400  0.3319
  539HD       C 2153   3.428   0.305   0.596  0.2458  0.0238 -0.2471
  539HD       C 2154   3.834   0.368   0.395  0.0904 -0.2703  0.2321
  539HD       C 2155   4.060   0.607   0.052  0.0372 -0.1744 -0.4721
  539HD       C 2156   4.114   0.878  -0.297  0.1818 -0.0759  0.1089
  540HD       C 2157   1.831   4.256   1.195 -0.1651 -0.3083 -0.0378
  540HD       C 2158   1.810   3.743   1.072 -0.1096  0.0823  0.3030
  540HD       C 2159   1.706   3.347   0.912  0.0187 -0.1355  0.2041
  540HD       C 2160   1.724   2.931   1.058  0.0705 -0.3344  0.1256
  541HD       C 2161   2.681   4.030   1.709  0.1885 -0.0786  0.0001
  541HD       C 2162   2.760   3.785   2.117 -0.2307  0.3045 -0.1730
  541HD       C 2163   2.836   3.756   2.552 -0.0394 -0.1551  0.0302
  541HD       C 2164   3.000   4.045   2.834 -0.1416  0.0597 -0.0024
  542HD       C 2165   0.203   4.650   4.228  0.2041  0.1361  0.0098
  542HD       C 2166   0.345   4.490   3.830 -0.3395  0.3478 -0.0369
  542HD       C 2167   0.619   4.405   3.453  0.0591 -0.2201 -0.0390
  542HD       C 2168   1.050   4.584   3.307  0.3339  0.3278 -0.0366
  543HD       C 2169   5.110   2.805   4.762  0.3840 -0.0369 -0.1100
  543HD       C 2170   5.214   3.197   4.458 -0.1351 -0.1261 -0.2029
  543HD       C 2171   5.356   3.379   4.123  0.1049 -0.0683 -0.3556
  543HD       C 2172   5.423   3.102   3.831 -0.0649 -0.0582  0.0657
  544HD       C 2173   4.061   5.021   7.112  0.0995 -0.2325  0.1135
  544HD       C 2174   4.016   4.693   7.443 -0.2457 -0.2060  0.2683
  544HD       C 2175   4.072   4.581   7.792 -0.0155 -0.2223 -0.1083
  544HD       C 2176   4.427   4.415   8.080  0.1602 -0.2114  0.1041
  545HD       C 2177   1.307   7.208   6.693 -0.4285 -0.2605  0.0390
  545HD       C 2178   1.663   7.075   6.954  0.2277  0.1696  0.2236
  545HD       C 2179   1.619   6.747   7.239 -0.2857 -0.3363 -0.0122
  545HD       C 2180   1.234   6.446   7.242 -0.0062 -0.1926  0.0234
  546HD       C 2181   7.032   2.136   1.553  0.1225  0.3252 -0.2289
  546HD       C 2182   7.101   2.552   1.464  0.2741 -0.1834  0.3697
  546HD       C 2183   7.028   2.841   1.036 -0.0770 -0.1762 -0.1274
  546HD       C 2184   6.846   2.846   0.594 -0.1512 -0.1158  0.1209
  547HD       C 2185   0.829   6.299   1.409  0.2649 -0.2416 -0.0258
  547HD       C 2186   0.707   6.032   1.282  0.1092  0.2276 -0.2887
  547HD       C 2187   0.395   5.964   1.011 -0.0762  0.2259  0.0891
  547HD       C 2188   0.265   5.430   0.914  0.1639 -0.0866  0.4529
  548HD       C 2189   2.958   2.359   3.512  0.1435 -0.1789  0.0257
  548HD       C 2190   2.961   2.660   3.855  0.0916  0.2157  0.0769
  548HD       C 2191   3.000   2.979   4.179  0.1409  0.0448  0.1575
  548HD       C 2192   2.664   3.311   4.094  0.3214 -0.1907  0.2509
  549HD       C 2193   7.571   0.185   5.145  0.0886 -0.1393  0.1420
  549HD       C 2194   7.864   0.381   4.867 -0.0024 -0.2672  0.1719
  549HD       C 2195   8.103   0.347   4.569 -0.1466 -0.5612 -0.0102
  549HD       C 2196   8.070   0.222   4.126 -0.1556 -0.0246  0.2480
  550HD       C 2197   1.160   6.623   5.438 -0.0034 -0.3365 -0.0527
  550HD       C 2198   1.412   6.409   5.160 -0.1790 -0.0459 -0.1811
  550HD       C 2199   1.759   6.394   4.857 -0.1462 -0.1690  0.1148
  550HD       C 2200   1.717   6.637   4.416 -0.1438  0.1917 -0.0281
  551HD       C 2201   1.698   6.782   2.903 -0.1805 -0.0776  0.0903
  551HD       C 2202   1.949   7.023   3.113 -0.3734  0.0324  0.1337
  551HD       C 2203   2.221   7.304   3.120  0.1507 -0.2397 -0.2676
  551HD       C 2204   2.431   7.699   3.064  0.0460 -0.0423  0.0378
  552HD       C 2205   5.912   5.900   0.768  0.3029  0.0143 -0.3299
  552HD       C 2206   6.140   6.229   1.044 -0.0337 -0.3375 -0.1713
  552HD       C 2207   6.324   6.654   1.125  0.0056 -0.1735 -0.0531
  552HD       C 2208   6.437   7.104   1.208  0.1841  0.0902  0.0610
  553HD       C 2209   2.599   7.208   1.202 -0.0966 -0.3373  0.0265
  553HD       C 2210   2.362   7.291   1.615  0.1008 -0.0355  0.1149
  553HD       C 2211   2.079   7.601   1.837 -0.0870 -0.1220  0.0385
  553HD       C 2212   1.889   8.047   1.745  0.2577 -0.0372 -0.0147
  554HD       C 2213   2.538   6.283   0.316  0.1456  0.0791 -0.0079
  554HD       C 2214   2.236   6.300   0.621  0.1074 -0.2052 -0.1249
  554HD       C 2215   2.141   6.637   0.953 -0.4149  0.1595  0.1030
  554HD       C 2216   2.155   7.024   1.118 -0.0821  0.1146  0.0441
  555HD       C 2217   4.473   1.177   4.091 -0.3023  0.0000  0.0237
  555HD       C 2218   4.266   1.292   4.433 -0.0201 -0.0502  0.1531
  555HD       C 2219   4.358   1.673   4.822 -0.2120  0.0933 -0.2260
  555HD       C 2220   4.253   2.034   4.966 -0.1647  0.0950 -0.1528
  556HD       C 2221   6.566   5.412   2.958 -0.0955 -0.1752  0.0491
  556HD       C 2222   6.086   5.402   2.989 -0.3515  0.0133  0.0443
  556HD       C 2223   5.652   5.389   3.150  0.2104 -0.1248  0.0175
  556HD       C 2224   5.297   5.093   3.203 -0.1980 -0.2704  0.1112
  557HD       C 2225   6.999   1.282   0.780  0.0233  0.1205  0.1058
  557HD       C 2226   6.752   1.562   0.975  0.0303  0.3290  0.0257
  557HD       C 2227   6.479   1.792   0.834  0.1541  0.0981 -0.3315
  557HD       C 2228   6.198   2.123   0.704 -0.0663  0.2106 -0.0362
  558HD       C 2229   0.202   1.856   4.488  0.1238 -0.3365  0.1072
  558HD       C 2230  -0.111   1.975   4.796 -0.0524  0.0803  0.0040
  558HD       C 2231  -0.446   1.771   4.904  0.1039 -0.3459  0.1326
  558HD       C 2232  -0.591   1.353   4.754 -0.3300 -0.0089 -0.1209
  559HD       C 2233   2.673   6.941   4.538  0.0576 -0.1232  0.1839
  559HD       C 2234   2.421   7.028   4.818  0.0941  0.0172  0.0713
  559HD       C 2235   2.327   7.318   5.029  0.0432  0.1514  0.0281
  559HD       C 2236   2.361   7.415   5.375 -0.2254  0.4613 -0.1057
  560HD       C 2237   2.117   6.648   2.123 -0.1840  0.1636  0.0631
  560HD       C 2238   2.444   6.650   2.371 -0.0509  0.0793 -0.0406
  560HD       C 2239   2.787   6.831   2.635  0.2532 -0.2713  0.4672
  560HD       C 2240   2.632   7.234   2.829  0.1773 -0.1485  0.1224
  561HD       C 2241   1.519   2.418   1.041  0.0924  0.0866  0.0026
  561HD       C 2242   1.148   2.225   0.980 -0.2214 -0.1414  0.1185
  561HD       C 2243   0.766   2.165   1.257  0.1403 -0.1782 -0.1552
  561HD       C 2244   0.374   1.867   1.294 -0.1976  0.0815  0.1794
  562HD       C 2245   0.841   0.990   4.209 -0.1444  0.3164  0.0937
  562HD       C 2246   0.453   0.871   4.442 -0.3878  0.3015 -0.1007
  562HD       C 2247   0.119   0.855   4.768  0.2518  0.0227  0.0802
  562HD       C 2248  -0.232   0.576   4.848 -0.1944 -0.0965 -0.0391
  563HD       C 2249   3.426   3.008   1.933 -0.4202  0.1785  0.2309
  563HD       C 2250   3.434   3.334   1.661 -0.1056  0.1920 -0.1310
  563HD       C 2251   3.620   3.782   1.607 -0.0135  0.5105 -0.0729
  563HD       C 2252   3.550   4.108   1.644 -0.0983  0.2351  0.2683
  564HD       C 2253   5.755   0.928   5.190 -0.2376 -0.0792  0.2735
  564HD       C 2254   6.191   0.921   5.299 -0.4233 -0.0040  0.3114
  564HD       C 2255   6.567   1.038   5.472  0.0629  0.1162 -0.0296
  564HD       C 2256   7.034   1.132   5.620 -0.2192 -0.2217 -0.2556
  565HD       C 2257   5.271   4.150   0.125  0.1211  0.1060  0.1746
  565HD       C 2258   5.323   3.903   0.544 -0.1528  0.1496  0.0785
  565HD       C 2259   5.527   3.634   0.735 -0.0325 -0.1489 -0.4410
  565HD       C 2260   5.599   3.316   1.028  0.0286 -0.3796  0.0374
  566HD       C 2261   5.018   2.409   1.218 -0.1751  0.3224 -0.3516
  566HD       C 2262   5.081   2.005   1.365 -0.3487  0.2712  0.1970
  566HD       C 2263   5.033   1.647   1.694  0.1028 -0.0369 -0.0868
  566HD       C 2264   4.862   1.383   2.066 -0.1405  0.2543  0.2418
  567HD       C 2265   1.074   2.601   3.179 -0.0584  0.0597  0.0634
  567HD       C 2266   1.149   2.551   3.668 -0.4037 -0.0953  0.0410
  567HD       C 2267   1.194   2.322   4.131 -0.0840  0.2435  0.0676
  567HD       C 2268   1.142   2.279   4.620 -0.2813  0.0868 -0.1386
  568HD       C 2269   6.812   1.350   2.748 -0.1290 -0.1928  0.3271
  568HD       C 2270   7.068   1.602   2.936  0.3487 -0.0466  0.3555
  568HD       C 2271   7.212   1.566   3.358 -0.2623 -0.1086  0.2063
  568HD       C 2272   7.056   1.394   3.762  0.1860  0.0640  0.1067
  569HD       C 2273   1.560   6.781   3.481  0.1006 -0.1110  0.1068
  569HD       C 2274   1.247   6.935   3.146  0.2247  0.1095 -0.0202
  569HD       C 2275   0.852   7.144   3.192 -0.2812 -0.1380  0.0295
  569HD       C 2276   0.593   7.194   3.610  0.1363 -0.0143  0.2179
  570HD       C 2277   1.877   1.311   5.630 -0.0501 -0.3253 -0.0282
  570HD       C 2278   2.012   1.598   5.472  0.1078 -0.0551 -0.3815
  570HD       C 2279   2.034   1.961   5.622  0.0491 -0.2298 -0.1378
  570HD       C 2280   2.118   2.354   5.583  0.0031  0.2510  0.0373
  571HD       C 2281   1.400   3.168   1.931  0.0590  0.1410 -0.1260
  571HD       C 2282   1.588   3.527   2.168 -0.1419 -0.0767  0.3646
  571HD       C 2283   1.822   3.786   2.070  0.0350  0.0602  0.0958
  571HD       C 2284   1.751   4.018   1.714  0.1188 -0.0272 -0.1543
  572HD       C 2285   3.557   1.725   1.917  0.1041  0.1448 -0.0385
  572HD       C 2286   3.423   1.281   1.898 -0.0063 -0.1222 -0.0325
  572HD       C 2287   3.581   0.900   1.960 -0.2624  0.1123  0.0724
  572HD       C 2288   3.926   0.697   2.085 -0.1156 -0.1985  0.1931
  573HD       C 2289   5.805   3.569   5.697 -0.0130 -0.1081  0.0862
  573HD       C 2290   6.070   3.239   5.850  0.0911 -0.1851  0.0647
  573HD       C 2291   6.405   3.028   6.136 -0.0438 -0.3251 -0.0705
  573HD       C 2292   6.845   3.256   6.229  0.0016 -0.0259 -0.0514
  574HD       C 2293   3.055   2.388   5.308  0.0988 -0.2424  0.0990
  574HD       C 2294   3.366   2.329   5.204 -0.0211 -0.1366 -0.1194
  574HD       C 2295   3.350   2.172   4.780  0.1749  0.0360 -0.0927
  574HD       C 2296   3.315   2.482   4.532  0.2234  0.2117  0.1093
  575HD       C 2297   5.300   5.841   4.009  0.0855  0.0181  0.1096
  575HD       C 2298   5.124   6.197   3.813 -0.2001 -0.1373 -0.1372
  575HD       C 2299   5.025   6.689   3.989 -0.0226 -0.2993 -0.0932
  575HD       C 2300   4.891   6.871   4.383  0.0092 -0.1104  0.2604
  576HD       C 2301   0.677   1.465   4.431  0.0500  0.2125 -0.1143
  576HD       C 2302   1.022   1.168   4.658 -0.2162 -0.1352 -0.0646
  576HD       C 2303   0.911   0.661   4.647 -0.1528  0.1216  0.1793
  576HD       C 2304   0.825   0.371   4.913 -0.0470  0.1426 -0.0444
  577HD       C 2305   6.427   2.991   5.556  0.2218  0.1550  0.1606
  577HD       C 2306   6.180   2.606   5.512  0.1107 -0.2046 -0.3334
  577HD       C 2307   6.315   2.187   5.720  0.0344 -0.1148  0.2413
  577HD       C 2308   6.127   1.741   5.818  0.0655  0.2170  0.0034
  578HD       C 2309   3.718   4.918   4.632  0.1861 -0.2207 -0.0340
  578HD       C 2310   3.536   4.621   4.427  0.1720  0.0610  0.0489
  578HD       C 2311   3.496   4.292   4.184 -0.1878 -0.5360 -0.1494
  578HD       C 2312   3.417   3.866   4.184 -0.0442  0.0306 -0.0217
  579HD       C 2313   4.724   3.707   3.536 -0.1620 -0.0500  0.0236
  579HD       C 2314   4.706   3.998   3.276 -0.0329 -0.0600  0.0959
  579HD       C 2315   4.723   4.319   3.207 -0.2399  0.2189 -0.4750
  579HD       C 2316   4.846   4.858   3.368  0.0126  0.0338  0.2679
  580HD       C 2317   1.541   0.117   0.806  0.0036 -0.0562 -0.0011
  580HD       C 2318   1.672   0.228   0.456  0.1249  0.0463  0.2493
  580HD       C 2319   1.605   0.552   0.134  0.2113 -0.1137  0.1655
  580HD       C 2320   1.840   0.943   0.104  0.0258 -0.0052  0.1451
  581HD       C 2321   1.149   7.047   4.854 -0.1783  0.0965 -0.1397
  581HD       C 2322   0.948   7.110   5.178 -0.2421 -0.3401  0.0587
  581HD       C 2323   1.100   7.124   5.621 -0.0811 -0.0694 -0.0802
  581HD       C 2324   1.427   6.988   5.817  0.3506 -0.2585 -0.1185
  582HD       C 2325   0.096   2.316   3.397  0.1031 -0.0324 -0.1780
  582HD       C 2326  -0.095   1.935   3.567  0.0403  0.0653 -0.0040
  582HD       C 2327  -0.028   1.605   3.812  0.1013 -0.2240  0.0175
  582HD       C 2328  -0.213   1.259   4.078 -0.1050  0.2360 -0.1432
  583HD       C 2329   7.180   0.414   0.469 -0.0654  0.0108  0.2064
  583HD       C 2330   7.320  -0.016   0.271 -0.3744  0.3708 -0.0539
  583HD       C 2331   7.614  -0.327   0.277 -0.1103  0.1021 -0.0924
  583HD       C 2332   7.974  -0.611   0.372 -0.0665 -0.2096 -0.0284
  584HD       C 2333   0.494   1.410   2.544  0.1910 -0.0969 -0.0132
  584HD       C 2334   0.434   1.854   2.515 -0.0444 -0.0054 -0.1249
  584HD       C 2335   0.518   2.195   2.201  0.0349  0.0953 -0.1879
  584HD       C 2336   0.497   2.609   1.955 -0.3528  0.0879  0.0180
  585HD       C 2337   1.305   4.521   5.580 -0.1045  0.1770 -0.0633
  585HD       C 2338   1.609   4.342   5.957 -0.1604  0.0544 -0.0924
  585HD       C 2339   1.841   4.172   6.338  0.1162 -0.2538 -0.1992
  585HD       C 2340   2.160   4.314   6.740  0.0421 -0.1053  0.0160
  586HD       C 2341   4.603   6.837   0.339  0.1406  0.0828  0.1654
  586HD       C 2342   4.228   6.782   0.150 -0.0620 -0.0685  0.2547
  586HD       C 2343   3.803   6.846   0.276  0.0161 -0.5303  0.2125
  586HD       C 2344   3.604   7.197   0.218  0.1840 -0.0406 -0.1880
  587HD       C 2345   4.273   3.341   2.298  0.0122 -0.1618 -0.1466
  587HD       C 2346   4.748   3.185   2.303 -0.0591 -0.0554 -0.3685
  587HD       C 2347   5.286   3.095   2.336 -0.1681 -0.0007 -0.0270
  587HD       C 2348   5.532   2.952   2.066 -0.1845 -0.1326  0.0257
  588HD       C 2349   4.612   3.651   0.084 -0.4862 -0.0875 -0.1067
  588HD       C 2350   4.465   3.465  -0.234 -0.2369 -0.1763 -0.0145
  588HD       C 2351   4.185   3.133  -0.174  0.0528 -0.0520  0.0595
  588HD       C 2352   3.816   2.837  -0.068  0.0459  0.1228  0.0622
  589HD       C 2353   7.106   1.897   0.033 -0.1852  0.1791  0.3061
  589HD       C 2354   7.123   2.031  -0.424  0.0024 -0.0090 -0.2878
  589HD       C 2355   7.285   2.401  -0.566  0.0808  0.1429 -0.1532
  589HD       C 2356   7.534   2.808  -0.619 -0.2639  0.0084  0.1024
  590HD       C 2357   2.290   5.700   0.268  0.0980 -0.0148 -0.0512
  590HD       C 2358   2.488   5.502   0.630 -0.2852  0.0306  0.1660
  590HD       C 2359   2.789   5.205   0.809 -0.0686 -0.2488  0.1722
  590HD       C 2360   3.177   4.947   0.925  0.1077 -0.2571  0.0048
  591HD       C 2361   6.718   5.721   0.426  0.1311  0.1186  0.0585
  591HD       C 2362   6.531   5.392   0.723 -0.2504  0.0731  0.0496
  591HD       C 2363   6.296   5.448   1.089 -0.2719 -0.0177 -0.3432
  591HD       C 2364   6.056   5.812   1.303 -0.1095 -0.0192 -0.0055
  592HD       C 2365   4.981   6.138   6.197  0.2449 -0.0613  0.2500
  592HD       C 2366   4.889   6.327   5.796 -0.0917  0.3302  0.3396
  592HD       C 2367   4.555   6.525   5.724  0.2774  0.1918  0.1339
  592HD       C 2368   4.173   6.767   5.528 -0.1942 -0.0646 -0.0512
  593HD       C 2369   1.052   7.163   6.269 -0.0287  0.2022  0.2716
  593HD       C 2370   1.394   7.333   6.152 -0.2135 -0.2241  0.1628
  593HD       C 2371   1.753   7.423   5.943  0.0904 -0.1325  0.0186
  593HD       C 2372   2.106   7.518   5.869 -0.2061  0.2416  0.0883
  594HD       C 2373   5.587   0.791   5.635  0.2478  0.3196 -0.2872
  594HD       C 2374   5.806   0.436   5.915 -0.3386  0.0180 -0.5061
  594HD       C 2375   5.884  -0.003   6.101  0.1108 -0.1822  0.0702
  594HD       C 2376   6.108  -0.198   6.495 -0.1539  0.2606 -0.0124
  595HD       C 2377   5.617   6.272   3.161 -0.2458 -0.0759  0.0203
  595HD       C 2378   5.457   5.843   3.013  0.0345 -0.2039  0.0323
  595HD       C 2379   5.051   5.570   3.091  0.1910  0.1932  0.2434
  595HD       C 2380   4.747   5.360   3.364 -0.0223 -0.0638  0.0080
  596HD       C 2381   0.934   5.053   1.881  0.1712 -0.0471 -0.1973
  596HD       C 2382   0.550   5.070   1.597 -0.4768 -0.1183  0.0647
  596HD       C 2383   0.611   5.156   1.137  0.2406 -0.2746 -0.2226
  596HD       C 2384   0.587   4.792   0.789 -0.1558 -0.1497  0.0593
  597HD       C 2385   0.648   0.279   0.150 -0.0241 -0.1384  0.1364
  597HD       C 2386   0.883   0.461  -0.070  0.1220  0.1059  0.0170
  597HD       C 2387   0.918   0.720  -0.445  0.2905 -0.1677 -0.2669
  597HD       C 2388   0.648   0.741  -0.766 -0.0354 -0.2412 -0.3886
  598HD       C 2389   1.621   2.796   3.837  0.0590 -0.0907  0.2499
  598HD       C 2390   1.650   3.139   3.538 -0.2709 -0.1846  0.2865
  598HD       C 2391   1.333   3.430   3.452 -0.4523  0.1607  0.1740
  598HD       C 2392   1.196   3.629   3.148  0.1117  0.1324  0.0348
  599HD       C 2393   2.679   2.772   5.175 -0.0353  0.0007 -0.6273
  599HD       C 2394   2.328   2.796   4.933 -0.4030  0.1458  0.3511
  599HD       C 2395   1.896   2.685   4.860  0.1888  0.2909 -0.1102
  599HD       C 2396   1.405   2.793   4.989  0.1657 -0.0827 -0.1037
  600HD       C 2397   1.215   2.230   6.639  0.1279  0.3963  0.0207
  600HD       C 2398   1.436   1.993   6.884  0.0372 -0.1368  0.0088
  600HD       C 2399   1.906   1.798   6.725  0.0855  0.1008 -0.1485
  600HD       C 2400   2.216   1.732   6.967  0.2581  0.2397 -0.0827
  601HD       C 2401   5.504   4.267   3.767 -0.0571  0.0721 -0.2928
  601HD       C 2402   5.857   4.615   3.914  0.1027  0.2571 -0.0462
  601HD       C 2403   5.885   4.972   3.924 -0.0688  0.0600 -0.0965
  601HD       C 2404   6.204   5.216   3.743 -0.1344  0.3028 -0.0838
  602HD       C 2405   5.908   0.614   1.416 -0.0130  0.2335 -0.0591
  602HD       C 2406   6.150   0.190   1.500 -0.0385 -0.2615 -0.1217
  602HD       C 2407   6.217  -0.181   1.642  0.0461 -0.0039 -0.2595
  602HD       C 2408   5.991  -0.497   1.837  0.0121  0.0183 -0.0597
  603HD       C 2409   4.575   6.594   4.161 -0.0825 -0.0230 -0.1519
  603HD       C 2410   4.862   6.373   4.302 -0.0361  0.1087  0.0777
  603HD       C 2411   5.265   6.205   4.343  0.1879  0.2380 -0.1776
  603HD       C 2412   5.632   6.245   4.131 -0.2496  0.3355 -0.1967
  604HD       C 2413   3.503   4.719   5.496  0.0097  0.3140 -0.0339
  604HD       C 2414   3.095   4.998   5.564 -0.0217  0.1438 -0.2642
  604HD       C 2415   2.749   5.172   5.436 -0.0961 -0.2172 -0.1070
  604HD       C 2416   2.402   5.353   5.665 -0.2592 -0.2587 -0.3149
  605HD       C 2417   2.058   6.470   6.853 -0.0886 -0.0618  0.0250
  605HD       C 2418   1.792   6.134   6.833  0.1226  0.1581  0.0118
  605HD       C 2419   1.635   5.850   6.471  0.0411  0.1602 -0.0931
  605HD       C 2420   1.467   5.493   6.166  0.1391  0.0275 -0.2797
  606HD       C 2421   3.558   1.860   5.155  0.1489 -0.0610  0.3068
  606HD       C 2422   3.346   1.559   5.255 -0.1970  0.0919  0.2576
  606HD       C 2423   3.285   1.267   5.607 -0.0089 -0.2609 -0.0381
  606HD       C 2424   3.426   1.017   5.899 -0.0286  0.0375 -0.2579
  607HD       C 2425   7.267   1.612   1.017 -0.1334  0.3068 -0.0240
  607HD       C 2426   7.079   1.883   0.598 -0.1316 -0.4829  0.5136
  607HD       C 2427   6.729   2.053   0.408 -0.0047  0.4131 -0.1798
  607HD       C 2428   6.460   2.549   0.395 -0.0636  0.1780  0.1666
  608HD       C 2429   5.957   5.049   5.028 -0.0691  0.1679 -0.1819
  608HD       C 2430   6.112   4.711   5.235  0.1093 -0.2066 -0.1150
  608HD       C 2431   6.214   4.794   5.730 -0.0440 -0.3520 -0.0855
  608HD       C 2432   6.357   4.542   6.087 -0.1063 -0.2402  0.3310
  609HD       C 2433   3.792   0.188   1.254  0.0431 -0.0008  0.1397
  609HD       C 2434   3.893  -0.117   1.437 -0.1114 -0.0835 -0.2885
  609HD       C 2435   4.105  -0.453   1.656 -0.0457  0.1805 -0.1676
  609HD       C 2436   4.421  -0.709   1.737  0.2222 -0.3112 -0.2997
  610HD       C 2437   3.135   1.190   0.727  0.0754  0.0824  0.3428
  610HD       C 2438   3.482   1.275   0.565  0.1990 -0.0532 -0.3395
  610HD       C 2439   3.575   1.618   0.333  0.2195  0.1251 -0.1516
  610HD       C 2440   3.401   1.840   0.105  0.3523  0.4315 -0.2496
  611HD       C 2441   0.065   4.130   0.312 -0.2795 -0.1072 -0.0139
  611HD       C 2442  -0.254   4.033   0.071  0.1543  0.2135  0.1052
  611HD       C 2443  -0.560   3.958  -0.338  0.0004 -0.3003  0.1337
  611HD       C 2444  -0.801   4.095  -0.623 -0.1024  0.1670 -0.2051
  612HD       C 2445   3.288   1.269   4.840  0.1966 -0.2202  0.0686
  612HD       C 2446   3.656   1.140   4.792 -0.1740 -0.6371  0.1802
  612HD       C 2447   4.068   1.034   4.882  0.3489  0.1762  0.0408
  612HD       C 2448   4.456   1.097   4.926  0.0382 -0.0814 -0.1890
  613HD       C 2449   6.319   4.885   1.870 -0.0857 -0.0134  0.1070
  613HD       C 2450   6.088   4.536   2.050  0.1905  0.4305  0.1155
  613HD       C 2451   5.731   4.488   2.315 -0.0248  0.2234  0.3128
  613HD       C 2452   5.519   4.756   2.377  0.1839 -0.0440 -0.3997
  614HD       C 2453   5.570   2.794   0.504  0.2493 -0.2213  0.0903
  614HD       C 2454   5.835   2.513   0.842 -0.0875  0.3056 -0.2023
  614HD       C 2455   5.684   2.129   0.921  0.0162  0.0618 -0.2105
  614HD       C 2456   5.823   1.820   0.765 -0.0185 -0.1043  0.0664
  615HD       C 2457   7.479   1.343   5.737 -0.2472 -0.3941  0.0732
  615HD       C 2458   7.857   1.311   5.586  0.0118  0.0096 -0.3029
  615HD       C 2459   8.205   1.008   5.511  0.3337 -0.0237  0.0737
  615HD       C 2460   8.691   0.937   5.633  0.1363  0.1766  0.3146
  616HD       C 2461   3.739   0.110   6.049 -0.2409  0.3443 -0.0806
  616HD       C 2462   3.765   0.540   6.131 -0.0575  0.0746 -0.1348
  616HD       C 2463   3.915   0.877   5.966 -0.2621 -0.2221  0.0180
  616HD       C 2464   4.376   0.931   5.869  0.2045 -0.2425 -0.3405
  617HD       C 2465   3.141   4.095   3.610 -0.1739  0.0153 -0.4418
  617HD       C 2466   3.106   3.667   3.382  0.2662  0.1226  0.1173
  617HD       C 2467   3.249   3.514   3.044  0.0995  0.1129  0.0244
  617HD       C 2468   2.908   3.242   2.745 -0.0184 -0.1322  0.2526
  618HD       C 2469   7.021   0.897   4.478 -0.1764  0.1182 -0.0074
  618HD       C 2470   6.925   0.517   4.699 -0.1681 -0.3784  0.2566
  618HD       C 2471   6.623   0.128   4.816 -0.2543  0.1077 -0.1094
  618HD       C 2472   6.357  -0.131   4.537 -0.3006  0.0036  0.1105
  619HD       C 2473   2.945   5.816   6.078 -0.1284 -0.1563 -0.0640
  619HD       C 2474   2.583   5.735   5.883 -0.0012  0.0184 -0.0537
  619HD       C 2475   2.272   6.017   5.972 -0.0099  0.1515  0.0242
  619HD       C 2476   1.972   6.344   5.835  0.2989 -0.4716 -0.1097
  620HD       C 2477   0.945   6.688   6.517 -0.0632  0.2468 -0.1668
  620HD       C 2478   0.901   6.889   6.823 -0.0526 -0.0804  0.1112
  620HD       C 2479   1.002   7.177   7.112  0.2360  0.2858  0.0616
  620HD       C 2480   1.395   7.334   7.346  0.2074  0.0166 -0.2264
  621HD       C 2481   5.572   3.702   0.109  0.0585 -0.1854 -0.0236
  621HD       C 2482   5.902   3.952  -0.030  0.0058  0.2211 -0.1074
  621HD       C 2483   6.299   4.044   0.247 -0.0421 -0.0972  0.1291
  621HD       C 2484   6.816   4.100   0.210 -0.4757 -0.0971 -0.0495
  622HD       C 2485   2.963   0.570   0.017  0.1301 -0.0959  0.3729
  622HD       C 2486   3.346   0.395   0.135  0.1114 -0.1137 -0.0867
  622HD       C 2487   3.666   0.323  -0.096  0.3088  0.0830 -0.0211
  622HD       C 2488   3.751   0.575  -0.514 -0.2728  0.0938  0.0683
  623HD       C 2489   2.370   3.488   4.616 -0.2240 -0.0329 -0.1110
  623HD       C 2490   2.550   3.403   4.999  0.2004 -0.0094 -0.3193
  623HD       C 2491   2.425   3.254   5.422 -0.0537  0.2427 -0.0715
  623HD       C 2492   2.665   3.448   5.678 -0.3106  0.1538 -0.2213
  624HD       C 2493   6.943   6.190   1.279 -0.1626  0.3237 -0.0955
  624HD       C 2494   7.239   5.856   1.351 -0.0134  0.2326  0.0426
  624HD       C 2495   7.670   5.790   1.427 -0.5884  0.1083 -0.3610
  624HD       C 2496   8.088   5.604   1.383 -0.0673 -0.1981  0.0481
  625HD       C 2497   0.907   2.984   0.252  0.1652 -0.0102  0.0521
  625HD       C 2498   0.654   2.904   0.593 -0.0336 -0.1626  0.1398
  625HD       C 2499   0.234   3.070   0.739  0.0928  0.1103 -0.1006
  625HD       C 2500   0.026   3.426   0.943  0.0827  0.3280 -0.2655
  626HD       C 2501   2.666   4.304   0.700  0.3630  0.0172 -0.0849
  626HD       C 2502   2.362   4.303   0.983  0.0091 -0.0652 -0.1185
  626HD       C 2503   1.949   4.533   0.828  0.1244  0.2092  0.1482
  626HD       C 2504   1.695   4.448   0.455 -0.0492  0.1234 -0.1706
  627HD       C 2505   4.504   3.756   5.140  0.1830  0.0390  0.0669
  627HD       C 2506   4.951   3.787   5.030  0.1177 -0.2325 -0.3412
  627HD       C 2507   5.390   3.584   4.713  0.0085  0.2165 -0.1754
  627HD       C 2508   5.817   3.736   4.579 -0.1904  0.0635  0.3623
  628HD       C 2509   4.999   5.316   5.101  0.1295 -0.3342  0.0043
  628HD       C 2510   5.123   5.382   4.731  0.1928  0.1683  0.0704
  628HD       C 2511   5.409   5.664   4.467 -0.3316  0.0189  0.0281
  628HD       C 2512   5.795   5.832   4.496 -0.2350  0.1679 -0.1679
  629HD       C 2513   2.024   4.483   4.169  0.0724  0.2553 -0.1740
  629HD       C 2514   2.256   4.677   4.534  0.2145  0.1594 -0.1972
  629HD       C 2515   2.633   4.985   4.572 -0.0742 -0.0855 -0.0843
  629HD       C 2516   2.814   5.346   4.378 -0.0208 -0.1125  0.0318
  630HD       C 2517   4.197   1.013   5.417 -0.3561  0.0748 -0.1726
  630HD       C 2518   4.118   0.566   5.568  0.0936  0.3734 -0.3363
  630HD       C 2519   4.212   0.432   5.936  0.0385  0.0414  0.1767
  630HD       C 2520   4.205   0.177   6.247 -0.2127  0.1623 -0.5416
  631HD       C 2521   7.194   2.975   4.076  0.0802  0.1550  0.1735
  631HD       C 2522   7.262   3.368   3.931 -0.1829 -0.1824 -0.0024
  631HD       C 2523   7.189   3.766   3.975 -0.1488 -0.0687 -0.1728
  631HD       C 2524   7.147   4.060   3.688 -0.3429 -0.2838  0.2184
  632HD       C 2525   5.469   1.265   6.221  0.1001  0.1531  0.0421
  632HD       C 2526   5.473   1.614   6.501 -0.3838  0.0625  0.1543
  632HD       C 2527   5.748   1.827   6.804  0.0269  0.1811  0.0669
  632HD       C 2528   6.184   1.687   6.819  0.1770 -0.2286  0.0003
  633HD       C 2529   0.768   0.383   3.393  0.0835 -0.2485  0.0718
  633HD       C 2530   0.871   0.362   3.795 -0.0172  0.0652 -0.0831
  633HD       C 2531   0.885   0.476   4.170 -0.2321 -0.3045 -0.1458
  633HD       C 2532   1.372   0.499   4.484  0.2133 -0.1676  0.2637
  634HD       C 2533   4.490   3.465   1.811 -0.1134  0.0014  0.2296
  634HD       C 2534   4.504   3.234   1.467  0.2983  0.2113 -0.0343
  634HD       C 2535   4.125   3.034   1.289 -0.0819  0.0855  0.2413
  634HD       C 2536   4.256   2.781   0.819  0.0430  0.1545  0.1850
  635HD       C 2537   5.660   0.724   6.553 -0.2112 -0.3922 -0.0879
  635HD       C 2538   6.153   0.762   6.483 -0.1078 -0.1503 -0.1660
  635HD       C 2539   6.556   0.539   6.629  0.1041  0.0581 -0.2917
  635HD       C 2540   6.543   0.333   6.982 -0.0716 -0.1924  0.0973
  636HD       C 2541   4.099   5.173   6.643  0.2999 -0.2593 -0.2277
  636HD       C 2542   4.336   4.830   6.746 -0.2833  0.0773  0.4271
  636HD       C 2543   4.467   4.317   6.717 -0.0647  0.1216  0.0285
  636HD       C 2544   4.539   3.930   6.784  0.1087  0.3498  0.2418
  637HD       C 2545   5.173   0.510   6.822 -0.2813  0.1321  0.0841
  637HD       C 2546   5.139   0.752   6.455  0.0536  0.0774 -0.2087
  637HD       C 2547   5.204   0.929   5.934  0.2430 -0.1176  0.0622
  637HD       C 2548   5.060   0.860   5.470  0.1147 -0.4598  0.0101
  638HD       C 2549   3.272   7.185   4.802  0.3097  0.0062  0.1778
  638HD       C 2550   3.515   7.540   4.895  0.0662  0.1823 -0.3007
  638HD       C 2551   3.942   7.853   5.060 -0.1140 -0.2571  0.4587
  638HD       C 2552   4.439   7.879   5.160  0.1739 -0.0658  0.1461
  639HD       C 2553   1.163   1.597   1.626 -0.2842 -0.0423  0.1612
  639HD       C 2554   1.351   1.863   1.893 -0.1103 -0.0154  0.0111
  639HD       C 2555   1.123   2.152   2.068  0.2275 -0.0800 -0.4450
  639HD       C 2556   0.952   2.527   2.254 -0.2794  0.1042 -0.0190
  640HD       C 2557   4.874   0.977   4.481  0.3163  0.0154  0.0300
  640HD       C 2558   4.860   0.667   4.046 -0.1623 -0.5949 -0.0649
  640HD       C 2559   5.004   0.260   4.039 -0.3896  0.0452  0.2684
  640HD       C 2560   4.805  -0.138   3.934  0.1036 -0.3479  0.2774
  641HD       C 2561   0.799   0.856   1.660  0.1133  0.3632 -0.2458
  641HD       C 2562   0.489   0.899   1.392 -0.1450  0.1172 -0.1904
  641HD       C 2563   0.539   0.556   1.079 -0.3122  0.2291  0.0527
  641HD       C 2564   0.558   0.303   0.661 -0.2064  0.1587 -0.3744
  642HD       C 2565   6.858   7.080   1.797 -0.0468 -0.2063  0.0987
  642HD       C 2566   6.806   6.619   1.980 -0.1102  0.3150 -0.2231
  642HD       C 2567   6.505   6.522   2.176  0.3755 -0.0672 -0.1041
  642HD       C 2568   6.118   6.407   2.145 -0.1268  0.3015  0.1731
  643HD       C 2569   3.504   4.971   6.017  0.2801  0.3642 -0.2102
  643HD       C 2570   3.258   5.344   5.911  0.3650  0.2145 -0.0324
  643HD       C 2571   3.093   5.565   5.607 -0.0296  0.0513 -0.1043
  643HD       C 2572   2.729   5.722   5.354 -0.1233  0.0031 -0.1282
  644HD       C 2573   1.152   5.511   6.545 -0.0132  0.2344  0.0414
  644HD       C 2574   0.767   5.571   6.654 -0.0686 -0.0184 -0.0166
  644HD       C 2575   0.254   5.680   6.671  0.1168 -0.1684  0.1094
  644HD       C 2576  -0.162   5.854   6.767 -0.0989 -0.0633  0.1870
  645HD       C 2577   1.932   4.270   3.455  0.1284  0.1935 -0.0396
  645HD       C 2578   1.693   4.220   3.009 -0.0874 -0.0275  0.0028
  645HD       C 2579   1.227   4.111   2.916  0.0858 -0.0318 -0.3346
  645HD       C 2580   1.004   4.298   2.465  0.3798 -0.2086 -0.1627
  646HD       C 2581   0.585   5.312   5.370 -0.0131  0.1168  0.0023
  646HD       C 2582   0.568   5.462   5.891 -0.1698 -0.1031  0.0789
  646HD       C 2583   0.492   5.283   6.270 -0.1414 -0.1368  0.3618
  646HD       C 2584   0.367   5.191   6.724 -0.0001  0.3158  0.0092
  647HD       C 2585   0.839   6.103   4.607 -0.0383 -0.0392 -0.0978
  647HD       C 2586   0.485   6.269   4.857  0.3199 -0.0989 -0.1179
  647HD       C 2587   0.107   6.189   5.040  0.4229  0.1175 -0.2697
  647HD       C 2588  -0.254   6.428   4.880  0.0516  0.1459 -0.0855
  648HD       C 2589   2.728   3.735   6.711  0.0333  0.0054 -0.1094
  648HD       C 2590   2.505   4.062   6.979  0.1776  0.1819 -0.0639
  648HD       C 2591   2.404   4.390   7.151 -0.4127 -0.0511 -0.0408
  648HD       C 2592   2.580   4.661   7.399 -0.0794  0.0099  0.1420
  649HD       C 2593   1.377   1.195   6.007 -0.0987 -0.0460  0.0738
  649HD       C 2594   1.245   1.485   5.614 -0.2046  0.1956  0.1535
  649HD       C 2595   1.002   1.827   5.494  0.3092  0.1505 -0.0031
  649HD       C 2596   0.588   1.961   5.428 -0.2157  0.0272  0.0388
  650HD       C 2597   2.736   3.815   3.736  0.1614 -0.1008  0.2964
  650HD       C 2598   2.548   3.457   3.595  0.2050 -0.2061  0.0536
  650HD       C 2599   2.313   3.293   3.310 -0.0627 -0.1301  0.2200
  650HD       C 2600   2.449   2.983   3.038 -0.2598  0.1010  0.1266
  651HD       C 2601   0.801   4.181   3.848  0.2106 -0.2444 -0.1867
  651HD       C 2602   0.542   4.236   4.214 -0.0497 -0.4327  0.1802
  651HD       C 2603   0.176   4.164   4.377 -0.1797  0.2132 -0.2057
  651HD       C 2604  -0.228   4.227   4.151  0.1721  0.3534  0.1198
  652HD       C 2605   6.818   0.566   2.057  0.5970 -0.0354  0.2719
  652HD       C 2606   6.499   0.172   1.877 -0.2228  0.2352 -0.1197
  652HD       C 2607   6.389  -0.124   2.125  0.0848  0.1599 -0.2912
  652HD       C 2608   6.261   0.087   2.532 -0.1471  0.0329 -0.0127
  653HD       C 2609   3.534   4.598   0.819 -0.1834 -0.3163  0.1141
  653HD       C 2610   3.406   4.723   0.480 -0.0066 -0.1440  0.0069
  653HD       C 2611   3.178   4.526   0.112  0.0019 -0.1176  0.2614
  653HD       C 2612   3.297   4.559  -0.357  0.4163  0.0175 -0.0004
  654HD       C 2613   1.828   0.940   3.932 -0.0826 -0.1248  0.1400
  654HD       C 2614   1.507   0.688   3.822 -0.0161 -0.1117 -0.0370
  654HD       C 2615   1.332   0.458   3.579  0.1011 -0.0020 -0.0306
  654HD       C 2616   1.218   0.073   3.485 -0.2330 -0.3334 -0.2383
  655HD       C 2617   4.889   1.520   4.338 -0.3272  0.2325 -0.3570
  655HD       C 2618   4.833   1.404   4.752  0.1870  0.1473 -0.2159
  655HD       C 2619   4.966   1.070   5.019  0.1327  0.2077  0.1519
  655HD       C 2620   5.004   0.543   5.118  0.0840 -0.2277  0.1218
  656HD       C 2621   6.020   5.317   7.203  0.0685  0.1500  0.2742
  656HD       C 2622   5.870   5.786   6.970 -0.1600  0.1159  0.0571
  656HD       C 2623   5.418   5.970   6.867  0.4028  0.0741 -0.0407
  656HD       C 2624   5.274   5.914   6.468  0.1641  0.1468 -0.1053
  657HD       C 2625   0.099   7.071   4.065  0.1756 -0.2952 -0.1672
  657HD       C 2626   0.119   6.692   4.139 -0.1853  0.1835 -0.1437
  657HD       C 2627   0.458   6.394   4.243  0.3099  0.2310 -0.0796
  657HD       C 2628   0.555   5.978   4.235  0.1026  0.0945  0.3436
  658HD       C 2629   0.664   2.561   0.945  0.0070 -0.0186  0.0658
  658HD       C 2630   1.085   2.615   0.683  0.0066  0.2201  0.1146
  658HD       C 2631   1.245   2.601   0.237 -0.3788 -0.0936  0.1197
  658HD       C 2632   1.482   2.585  -0.221 -0.0305  0.1794  0.3250
  659HD       C 2633   5.211   2.740   0.114 -0.2104  0.0949 -0.0194
  659HD       C 2634   5.633   2.750  -0.170  0.0511 -0.0533 -0.1315
  659HD       C 2635   5.934   2.593  -0.534  0.1622  0.0028 -0.0131
  659HD       C 2636   6.318   2.628  -0.744 -0.3130 -0.3855 -0.1189
  660HD       C 2637   3.897   4.121   2.630 -0.0056 -0.1503  0.0601
  660HD       C 2638   3.901   3.975   2.178 -0.0795  0.0631 -0.0792
  660HD       C 2639   4.059   3.676   1.920 -0.3453 -0.2509 -0.1136
  660HD       C 2640   3.959   3.245   1.770  0.0209 -0.0174  0.3396
  661HD       C 2641   1.944   4.889   2.951  0.4068  0.0765  0.0557
  661HD       C 2642   2.056   4.804   3.314  0.1648 -0.1879  0.0777
  661HD       C 2643   2.359   4.602   3.548 -0.2677 -0.0510 -0.1711
  661HD       C 2644   2.424   4.296   3.476 -0.3066  0.2155 -0.2212
  662HD       C 2645   3.802   5.833   4.517  0.0656  0.0414  0.0757
  662HD       C 2646   3.820   5.453   4.629  0.0074  0.2986  0.1485
  662HD       C 2647   4.037   5.408   4.970 -0.1383 -0.0299 -0.0964
  662HD       C 2648   4.125   5.325   5.393 -0.0044  0.1408  0.2703
  663HD       C 2649   4.288   1.580   6.964  0.2711 -0.4201 -0.2113
  663HD       C 2650   4.295   1.913   6.665  0.2490  0.2695 -0.2380
  663HD       C 2651   4.443   2.057   6.312 -0.0843  0.1423  0.1899
  663HD       C 2652   4.779   2.157   5.960 -0.2484 -0.1435 -0.0220
  664HD       C 2653   3.360   7.133   1.720 -0.3134  0.1199 -0.1626
  664HD       C 2654   3.275   7.535   1.993  0.1616  0.1742  0.0627
  664HD       C 2655   3.598   7.652   2.341  0.2977 -0.4139  0.1130
  664HD       C 2656   3.871   7.512   2.510 -0.1991 -0.0177 -0.1052
  665HD       C 2657   0.067   5.530   2.940  0.2730 -0.1564  0.0339
  665HD       C 2658  -0.220   5.696   2.654  0.0763  0.0025  0.1555
  665HD       C 2659  -0.664   5.975   2.622  0.0343  0.0131 -0.1551
  665HD       C 2660  -0.631   6.429   2.447  0.1670  0.0656 -0.0232
  666HD       C 2661   1.932   1.637   4.387  0.3011 -0.1099 -0.0417
  666HD       C 2662   1.930   2.096   4.521 -0.2553  0.2366 -0.0138
  666HD       C 2663   1.700   2.481   4.447 -0.0302 -0.1402 -0.0146
  666HD       C 2664   1.339   2.810   4.509 -0.0218 -0.0577  0.0498
  667HD       C 2665   5.600   1.919   0.265 -0.3128 -0.0629 -0.1444
  667HD       C 2666   5.496   1.562   0.471  0.0234  0.2996 -0.0367
  667HD       C 2667   5.171   1.382   0.626 -0.2933 -0.0930  0.1466
  667HD       C 2668   4.813   1.153   0.560 -0.1598 -0.1263 -0.2346
  668HD       C 2669   2.558   5.996   4.942 -0.1677 -0.2769 -0.2928
  668HD       C 2670   2.231   6.218   5.137 -0.2265 -0.1320  0.1401
  668HD       C 2671   1.912   6.347   5.339  0.0329  0.1647  0.0047
  668HD       C 2672   1.655   6.690   5.463  0.0254  0.2707  0.3706
  669HD       C 2673   0.287   0.244   2.593 -0.1614 -0.1264 -0.2923
  669HD       C 2674   0.437   0.456   2.287 -0.1785 -0.0959 -0.1668
  669HD       C 2675   0.568   0.803   2.482 -0.0488 -0.1161  0.1176
  669HD       C 2676   0.809   1.055   2.802 -0.0731  0.3393 -0.4419
  670HD       C 2677   5.286   0.122   3.398  0.4101  0.4639 -0.1006
  670HD       C 2678   4.923  -0.149   3.376  0.3224  0.3657  0.4189
  670HD       C 2679   4.539  -0.197   3.410  0.0007 -0.0111 -0.0948
  670HD       C 2680   4.280  -0.309   3.665  0.2202 -0.4464 -0.0091
  671HD       C 2681   2.654   5.950   0.728 -0.2057  0.3382  0.1147
  671HD       C 2682   2.914   5.679   0.918  0.0490 -0.0639 -0.0614
  671HD       C 2683   3.222   5.467   1.019 -0.0282  0.0887 -0.0854
  671HD       C 2684   3.510   5.645   1.105 -0.1252 -0.0500 -0.0148
  672HD       C 2685   0.214   0.594   6.515 -0.1764  0.1392  0.0311
  672HD       C 2686   0.200   0.190   6.477 -0.0662  0.0052  0.1393
  672HD       C 2687  -0.090  -0.071   6.620 -0.4009  0.3031 -0.2047
  672HD       C 2688  -0.244  -0.148   7.044 -0.0124 -0.4589 -0.1733
  673HD       C 2689   3.527   4.069   0.819  0.0854 -0.1662  0.0911
  673HD       C 2690   3.897   4.208   0.790  0.0328  0.2780 -0.0388
  673HD       C 2691   4.247   4.008   0.550  0.0160 -0.0979  0.0702
  673HD       C 2692   4.522   3.661   0.559 -0.3576 -0.0950 -0.2490
  674HD       C 2693   0.617   3.586   6.216 -0.1668 -0.1218  0.0865
  674HD       C 2694   0.393   3.430   5.836 -0.3218 -0.3216 -0.0110
  674HD       C 2695   0.171   3.088   5.672  0.2027  0.1027 -0.0611
  674HD       C 2696  -0.220   2.990   5.660  0.1013  0.1531 -0.4154
  675HD       C 2697   4.876   0.310   3.016 -0.0547  0.3809  0.1245
  675HD       C 2698   4.589   0.330   3.336  0.1202 -0.1496 -0.1197
  675HD       C 2699   4.390   0.262   3.725 -0.0819  0.1639 -0.2705
  675HD       C 2700   4.505   0.365   4.153  0.3180  0.3541  0.0927
  676HD       C 2701   6.364   5.736   3.881  0.2379  0.1837  0.4130
  676HD       C 2702   6.254   5.933   3.542  0.0885 -0.2228  0.2677
  676HD       C 2703   6.073   6.295   3.362 -0.0555 -0.0957 -0.0698
  676HD       C 2704   5.867   6.677   3.326  0.4432 -0.1034  0.1952
  677HD       C 2705   7.577   3.414   2.560 -0.0543  0.3271 -0.3029
  677HD       C 2706   7.703   3.594   2.182  0.0245  0.0654 -0.1806
  677HD       C 2707   7.612   3.634   1.778  0.1059 -0.0962 -0.5132
  677HD       C 2708   7.884   3.394   1.397  0.0004 -0.0015  0.2509
  678HD       C 2709   7.557   4.391   2.813 -0.1090  0.2736 -0.1796
  678HD       C 2710   7.500   4.661   2.546  0.1311  0.0496  0.0645
  678HD       C 2711   7.751   4.944   2.356 -0.1591 -0.2783 -0.2196
  678HD       C 2712   8.081   5.066   2.124  0.1121 -0.3811  0.2806
  679HD       C 2713   4.899   2.909   1.908  0.0552  0.0226  0.0091
  679HD       C 2714   4.950   2.480   2.156 -0.1607 -0.1090 -0.0217
  679HD       C 2715   4.952   2.091   2.260 -0.2479 -0.0291 -0.0875
  679HD       C 2716   4.823   1.765   2.437 -0.1006  0.2890 -0.1749
  680HD       C 2717   3.941   1.050   2.907 -0.0664  0.1325  0.0257
  680HD       C 2718   3.699   1.430   2.697 -0.0597 -0.1755  0.1944
  680HD       C 2719   3.325   1.562   2.348 -0.2363 -0.0098 -0.2932
  680HD       C 2720   3.037   1.854   2.165  0.1809  0.2093  0.0491
  681HD       C 2721   5.460   4.456   5.347 -0.3420 -0.2460  0.1088
  681HD       C 2722   5.721   4.744   5.558  0.1674 -0.2851  0.0884
  681HD       C 2723   5.869   5.137   5.542 -0.2867  0.1019 -0.0825
  681HD       C 2724   5.862   5.627   5.252 -0.1045  0.0583  0.2410
  682HD       C 2725   3.912   3.947   4.066  0.1886 -0.1590 -0.1733
  682HD       C 2726   3.760   4.166   3.697 -0.3130  0.0493 -0.1768
  682HD       C 2727   3.528   4.457   3.407  0.0616 -0.0967  0.0453
  682HD       C 2728   3.445   4.347   2.953 -0.1069  0.2253 -0.2264
  683HD       C 2729   2.162   2.808   5.358 -0.0657  0.1325  0.2948
  683HD       C 2730   1.656   2.600   5.498 -0.1596 -0.1162  0.0979
  683HD       C 2731   1.238   2.552   5.674  0.4167 -0.0696  0.0145
  683HD       C 2732   0.999   2.820   5.750 -0.1164 -0.1796 -0.5378
  684HD       C 2733   4.526   5.444   4.574 -0.1219  0.1239 -0.0632
  684HD       C 2734   4.287   5.747   4.710  0.2369 -0.0963 -0.1476
  684HD       C 2735   4.309   6.222   4.760  0.2127 -0.3068 -0.1964
  684HD       C 2736   4.061   6.706   5.008  0.0421  0.2846  0.2356
  685HD       C 2737   0.993   2.988   6.939 -0.2435  0.1276  0.1382
  685HD       C 2738   1.369   3.221   6.779  0.2017 -0.2475  0.3382
  685HD       C 2739   1.684   3.497   6.586  0.0454  0.0464  0.0889
  685HD       C 2740   2.074   3.739   6.392  0.0572  0.2385 -0.1992
  686HD       C 2741   1.705   6.251   2.744 -0.0453 -0.0990 -0.2042
  686HD       C 2742   1.763   6.454   2.357  0.2607 -0.0294 -0.2648
  686HD       C 2743   1.798   6.370   1.941  0.1114 -0.2464  0.0179
  686HD       C 2744   1.728   6.079   1.651  0.3626 -0.1675 -0.0580
  687HD       C 2745   6.802   3.525   6.606 -0.0861  0.0690  0.2204
  687HD       C 2746   6.471   3.281   6.679 -0.0629  0.2449 -0.1230
  687HD       C 2747   6.143   2.960   6.843 -0.0638  0.0390 -0.1670
  687HD       C 2748   6.150   2.603   7.142 -0.0420  0.0988  0.2526
  688HD       C 2749   6.005   5.666   0.346 -0.4878 -0.0049 -0.2287
  688HD       C 2750   5.618   5.917   0.139  0.0287 -0.0403 -0.0693
  688HD       C 2751   5.100   5.913   0.054  0.1024 -0.1147  0.2181
  688HD       C 2752   4.795   5.677  -0.084 -0.3484 -0.0865  0.2184
  689HD       C 2753   6.688   5.555   6.594  0.3646 -0.1418  0.2475
  689HD       C 2754   6.519   5.280   6.384 -0.0217 -0.2236 -0.2798
  689HD       C 2755   6.775   4.879   6.176  0.0299  0.2372  0.0645
  689HD       C 2756   6.838   4.389   6.173 -0.0839  0.2081  0.1706
  690HD       C 2757   7.010   4.722   4.561 -0.1008 -0.1466 -0.1901
  690HD       C 2758   6.951   5.127   4.788  0.0359 -0.2302 -0.4296
  690HD       C 2759   7.092   5.455   4.913  0.1316 -0.1802  0.0838
  690HD       C 2760   7.463   5.684   4.798  0.1030  0.0840  0.0297
  691HD       C 2761   0.413   3.789   2.567  0.1082 -0.0815  0.0154
  691HD       C 2762   0.573   4.138   2.693  0.2255  0.0069 -0.0075
  691HD       C 2763   0.589   4.515   2.975  0.1659  0.0720 -0.0635
  691HD       C 2764   0.687   4.980   2.880  0.0063  0.0192 -0.0800
  692HD       C 2765   2.995   1.262   2.145 -0.0735 -0.1154 -0.0921
  692HD       C 2766   2.993   1.565   1.708  0.0418  0.0050 -0.2447
  692HD       C 2767   2.900   1.703   1.324  0.2706 -0.2091  0.0243
  692HD       C 2768   2.721   1.489   0.856 -0.0008 -0.0452  0.0689
  693HD       C 2769   6.271   2.985   2.517  0.1705 -0.1455 -0.0400
  693HD       C 2770   6.294   2.592   2.669 -0.2325  0.0436 -0.2173
  693HD       C 2771   6.707   2.332   2.807 -0.1436  0.1659  0.1096
  693HD       C 2772   7.089   2.139   2.649  0.0828 -0.3872 -0.0344
  694HD       C 2773   0.846   4.574   0.486 -0.2170  0.1888 -0.2089
  694HD       C 2774   1.120   4.562   0.203 -0.1738  0.0176 -0.1278
  694HD       C 2775   1.496   4.495   0.005 -0.3094  0.0717  0.0797
  694HD       C 2776   1.885   4.265   0.014  0.0402 -0.2393  0.0113
  695HD       C 2777   7.123   2.719   7.141 -0.0703  0.0055 -0.0542
  695HD       C 2778   6.751   2.826   7.367  0.1760 -0.0923 -0.1752
  695HD       C 2779   6.361   3.027   7.286 -0.2075 -0.0229 -0.0405
  695HD       C 2780   5.910   3.181   7.312 -0.2037  0.0997 -0.0147
  696HD       C 2781   0.434   6.544   6.700  0.0625  0.1824 -0.2371
  696HD       C 2782   0.179   6.253   6.550  0.1772  0.2702  0.2849
  696HD       C 2783  -0.230   6.171   6.354 -0.4380  0.0771 -0.0177
  696HD       C 2784  -0.569   6.336   6.387  0.1611 -0.2587 -0.2081
  697HD       C 2785   2.854   6.280   4.387 -0.1035 -0.2746 -0.0509
  697HD       C 2786   2.861   5.803   4.450  0.1387 -0.0866  0.0347
  697HD       C 2787   2.720   5.583   4.808 -0.0102 -0.1333  0.0142
  697HD       C 2788   2.482   5.256   5.049  0.1333 -0.1225 -0.1110
  698HD       C 2789   1.080   3.331   5.030  0.2121  0.0256 -0.0363
  698HD       C 2790   1.042   3.256   5.402  0.2630  0.0966  0.2873
  698HD       C 2791   0.863   3.296   5.800 -0.1552  0.0234 -0.0038
  698HD       C 2792   0.611   3.007   5.986 -0.2376 -0.1481  0.1019
  699HD       C 2793   1.994   3.238   2.069  0.0109  0.2174  0.0684
  699HD       C 2794   1.959   3.363   2.448  0.0299 -0.1511 -0.1379
  699HD       C 2795   2.053   3.202   2.828  0.0002 -0.3697  0.1197
  699HD       C 2796   1.965   2.932   3.165  0.1402 -0.2145 -0.0690
  700HD       C 2797   2.317   0.746   2.080  0.0161  0.0187 -0.0532
  700HD       C 2798   1.928   0.831   2.285 -0.0955  0.0203  0.1968
  700HD       C 2799   1.546   0.966   2.002  0.1204  0.4074 -0.1915
  700HD       C 2800   1.427   0.883   1.517 -0.2412 -0.1087  0.1023
  701HD       C 2801   0.052   4.051   4.988 -0.0104  0.1344  0.0576
  701HD       C 2802  -0.108   3.769   4.644  0.1920 -0.0553 -0.1791
  701HD       C 2803  -0.027   3.692   4.210 -0.1942  0.1928 -0.0293
  701HD       C 2804   0.095   3.597   3.817  0.1791  0.3925 -0.0140
  702HD       C 2805   5.910   5.574   3.646  0.0348  0.0379 -0.0353
  702HD       C 2806   5.914   5.850   3.938  0.2929 -0.0144 -0.2496
  702HD       C 2807   6.237   6.199   4.094 -0.0010  0.2276 -0.0749
  702HD       C 2808   6.683   6.294   4.175  0.0718 -0.0905 -0.1411
  703HD       C 2809   4.342   4.633   6.205  0.2529  0.2702  0.1279
  703HD       C 2810   4.159   4.204   6.121 -0.5143  0.0990 -0.1085
  703HD       C 2811   3.965   3.916   6.356 -0.1958 -0.0474 -0.0333
  703HD       C 2812   4.029   3.454   6.533 -0.0763  0.1332  0.0200
  704HD       C 2813   1.676   1.464   7.015  0.1318 -0.2148  0.2264
  704HD       C 2814   1.531   1.144   6.970 -0.0428  0.1102  0.1730
  704HD       C 2815   1.492   0.754   6.884  0.0506  0.2716  0.0422
  704HD       C 2816   1.320   0.391   6.941  0.0146 -0.1457  0.0306
  705HD       C 2817   2.639   2.837   1.219 -0.3977 -0.3069 -0.1511
  705HD       C 2818   2.485   3.141   1.444  0.3244  0.1962 -0.0798
  705HD       C 2819   2.684   3.293   1.820  0.0823 -0.1902  0.1601
  705HD       C 2820   3.080   3.328   1.961  0.1043  0.0333 -0.0369
  706HD       C 2821   6.754   3.813   2.632  0.0400 -0.1229 -0.2616
  706HD       C 2822   6.367   4.060   2.730  0.1369 -0.0396  0.0712
  706HD       C 2823   6.011   4.418   2.767 -0.0547 -0.1709  0.1516
  706HD       C 2824   5.564   4.316   2.764  0.1902 -0.0299 -0.1171
  707HD       C 2825   0.849   6.492   0.492 -0.0291  0.2209  0.2013
  707HD       C 2826   0.494   6.446   0.833  0.0933  0.0367 -0.0378
  707HD       C 2827   0.137   6.610   1.054 -0.1545 -0.2577  0.0380
  707HD       C 2828  -0.008   6.953   1.274 -0.0805 -0.0229  0.0581
  708HD       C 2829   1.219   0.541   0.817  0.1226 -0.0235 -0.0621
  708HD       C 2830   1.361   0.919   1.019 -0.0207  0.0303 -0.0128
  708HD       C 2831   1.063   1.222   1.277  0.0656  0.0043  0.1734
  708HD       C 2832   0.711   1.377   1.514 -0.1250 -0.1020 -0.1586
  709HD       C 2833   6.551   4.375   0.543  0.1734 -0.0913 -0.2492
  709HD       C 2834   6.189   4.623   0.605 -0.0022  0.3959  0.0252
  709HD       C 2835   5.908   4.549   0.908  0.0989  0.3650 -0.1597
  709HD       C 2836   5.570   4.228   0.973  0.0561  0.3126  0.1412
  710HD       C 2837   7.262   3.082   1.459  0.4084  0.0633  0.0330
  710HD       C 2838   7.566   3.013   1.181  0.0094 -0.4548  0.0174
  710HD       C 2839   8.002   2.900   1.215  0.0449 -0.2269  0.0338
  710HD       C 2840   8.238   2.699   1.466 -0.0342 -0.2519 -0.0130
  711HD       C 2841   6.600   1.813   2.724 -0.1194 -0.3006  0.1098
  711HD       C 2842   6.339   2.101   2.587 -0.0855  0.2448  0.2406
  711HD       C 2843   5.913   2.047   2.486 -0.0967  0.1767 -0.1331
  711HD       C 2844   5.537   1.989   2.343  0.3812  0.1204  0.2354
  712HD       C 2845   4.601   0.126   0.749  0.2411  0.3119  0.0920
  712HD       C 2846   4.214  -0.148   0.514  0.0086 -0.2323 -0.0845
  712HD       C 2847   3.828  -0.089   0.684 -0.1048 -0.2903  0.0389
  712HD       C 2848   3.422  -0.205   0.869 -0.2012  0.1817 -0.2446
  713HD       C 2849   1.359   0.986   2.471  0.0089  0.0634 -0.0112
  713HD       C 2850   1.038   0.936   2.186 -0.0235  0.3770  0.3568
  713HD       C 2851   0.881   0.545   2.064  0.3303  0.1259  0.0859
  713HD       C 2852   0.729   0.101   1.998  0.1610 -0.0176  0.0372
  714HD       C 2853   5.688   4.725   6.631 -0.0156 -0.2877 -0.2170
  714HD       C 2854   5.590   4.969   6.222 -0.1554  0.2415 -0.0606
  714HD       C 2855   5.329   4.998   5.826 -0.0497  0.0261  0.2142
  714HD       C 2856   5.050   4.811   5.433  0.1891  0.0226 -0.0189
  715HD       C 2857   1.776   5.132   3.541  0.0849 -0.1991  0.4296
  715HD       C 2858   1.939   5.365   3.218  0.0225 -0.0447 -0.2793
  715HD       C 2859   2.156   5.408   2.790  0.0473  0.0102 -0.0773
  715HD       C 2860   1.851   5.300   2.554  0.0917  0.0980  0.1726
  716HD       C 2861   0.708   3.099   6.545 -0.0382  0.1435 -0.0532
  716HD       C 2862   1.066   3.089   6.266 -0.1214  0.0334 -0.0101
  716HD       C 2863   1.451   3.046   6.085 -0.0047  0.0056  0.0451
  716HD       C 2864   1.850   2.875   5.919  0.1306  0.0352  0.0876
  717HD       C 2865   7.345   5.684   6.313 -0.2326  0.0254  0.3266
  717HD       C 2866   7.191   5.880   5.959 -0.1800  0.1419  0.0523
  717HD       C 2867   7.197   6.287   5.873  0.0504 -0.1912  0.2414
  717HD       C 2868   7.357   6.717   5.810 -0.1823 -0.0350  0.4164
  718HD       C 2869   6.182   5.829   2.337  0.1360  0.0276 -0.1948
  718HD       C 2870   6.407   5.947   1.950  0.0850 -0.1830  0.0483
  718HD       C 2871   6.463   6.177   1.535  0.0516  0.1199  0.1833
  718HD       C 2872   6.509   6.572   1.627 -0.0740 -0.0798 -0.0132
  719HD       C 2873   4.908   0.797   2.032 -0.3332  0.1008  0.0531
  719HD       C 2874   5.222   0.947   2.320  0.0631 -0.2162 -0.2970
  719HD       C 2875   5.676   0.817   2.368  0.0119  0.2441  0.2250
  719HD       C 2876   5.934   0.453   2.491 -0.1050 -0.0945  0.1227
  720HD       C 2877   3.386   6.192   7.005  0.0483 -0.0572 -0.1943
  720HD       C 2878   3.521   6.661   6.991  0.3214 -0.1551  0.0879
  720HD       C 2879   3.535   7.106   7.032  0.3251 -0.0899  0.0496
  720HD       C 2880   3.809   7.321   6.705 -0.0392 -0.1908 -0.3128
  721HD       C 2881   4.925   0.578   3.547  0.1645 -0.0443  0.0413
  721HD       C 2882   5.316   0.570   3.272 -0.2649 -0.0814  0.0256
  721HD       C 2883   5.401   0.279   2.929  0.1994  0.0441 -0.0691
  721HD       C 2884   5.635  -0.134   3.125 -0.2950  0.0615  0.0567
  722HD       C 2885   2.931   1.567   5.534  0.1488  0.0388 -0.0436
  722HD       C 2886   2.676   1.502   5.708  0.3079 -0.0097 -0.1414
  722HD       C 2887   2.579   1.180   6.010  0.3482  0.1270  0.2875
  722HD       C 2888   2.193   1.013   6.222  0.2203  0.0051  0.1224
  723HD       C 2889   3.488   0.752   0.525 -0.0242 -0.2016  0.0142
  723HD       C 2890   3.736   1.016   0.241  0.1304  0.0761  0.0243
  723HD       C 2891   3.805   1.427  -0.056  0.1969 -0.0746  0.1976
  723HD       C 2892   3.431   1.524  -0.258  0.2655  0.0507  0.1457
  724HD       C 2893   3.578   6.341   1.212 -0.0335 -0.0110 -0.2132
  724HD       C 2894   3.724   6.501   1.558 -0.0029  0.1713  0.0705
  724HD       C 2895   3.662   6.751   1.978 -0.3285  0.0018  0.1044
  724HD       C 2896   3.621   7.123   2.224  0.1352  0.0528  0.1431
  725HD       C 2897   2.430   1.960   4.484  0.1905  0.1610  0.0449
  725HD       C 2898   2.597   2.027   4.834 -0.1973 -0.2592 -0.0448
  725HD       C 2899   2.850   2.347   4.829 -0.0120  0.2250  0.1282
  725HD       C 2900   3.157   2.708   4.921  0.1001 -0.0020  0.2045
  726HD       C 2901   3.998   0.297   4.076 -0.0685 -0.0235  0.0098
  726HD       C 2902   3.884  -0.014   3.741 -0.0095  0.1096 -0.1720
  726HD       C 2903   3.761  -0.211   3.352  0.3190 -0.2094  0.0358
  726HD       C 2904   3.882  -0.619   3.255  0.0306  0.0330 -0.2212
  727HD       C 2905   1.209   2.721   6.544  0.1450  0.2333 -0.1121
  727HD       C 2906   1.705   2.860   6.530  0.0587 -0.0860 -0.1274
  727HD       C 2907   2.090   2.725   6.390 -0.4705  0.1725 -0.1909
  727HD       C 2908   2.540   2.814   6.401  0.1365  0.2626  0.0929
  728HD       C 2909   6.373   6.697   4.165 -0.1028 -0.2672 -0.1170
  728HD       C 2910   6.024   6.466   4.424  0.0590 -0.1503  0.2842
  728HD       C 2911   5.697   6.388   4.686  0.1370 -0.0535 -0.0878
  728HD       C 2912   5.607   6.414   5.130 -0.2667 -0.0798  0.0563
  729HD       C 2913   4.019   5.731   1.963 -0.1603 -0.1783 -0.1315
  729HD       C 2914   4.376   5.414   2.136 -0.0475  0.0497  0.3477
  729HD       C 2915   4.607   4.992   2.023  0.3465  0.0169  0.0576
  729HD       C 2916   4.834   4.846   1.612  0.0289 -0.0250 -0.1023
  730HD       C 2917   6.413   4.329   6.748  0.1269  0.0939  0.0114
  730HD       C 2918   6.519   4.741   6.609  0.0964  0.2323 -0.2360
  730HD       C 2919   6.906   5.055   6.641  0.3423  0.1528 -0.0793
  730HD       C 2920   7.253   5.386   6.749 -0.0165 -0.0772  0.2003
  731HD       C 2921   2.139   5.963   2.002 -0.0437  0.1588  0.1335
  731HD       C 2922   2.549   6.220   2.080 -0.0220 -0.0830 -0.3263
  731HD       C 2923   2.928   6.592   2.144  0.0593  0.1159  0.0287
  731HD       C 2924   3.177   6.866   2.075 -0.1814  0.0755 -0.0298
  732HD       C 2925   4.397   3.056   6.625  0.0261  0.0994 -0.0186
  732HD       C 2926   4.845   3.131   6.516  0.0070 -0.2803 -0.2013
  732HD       C 2927   5.362   3.243   6.522  0.0402 -0.1115  0.0030
  732HD       C 2928   5.695   3.229   6.864 -0.0621 -0.1868 -0.2354
  733HD       C 2929   6.540   2.823   3.672 -0.1490 -0.2561 -0.1788
  733HD       C 2930   6.410   2.391   3.740 -0.0849 -0.0656 -0.1932
  733HD       C 2931   6.545   1.986   3.678 -0.0438  0.0500 -0.1236
  733HD       C 2932   6.908   1.821   3.633  0.0271  0.2484 -0.0807
  734HD       C 2933   3.371   0.520   1.546 -0.2198 -0.0612  0.2928
  734HD       C 2934   3.767   0.293   1.721 -0.2290  0.0953  0.4165
  734HD       C 2935   4.027  -0.046   1.935 -0.1793  0.0866 -0.2925
  734HD       C 2936   4.504  -0.107   2.087  0.0695 -0.0848 -0.0803
  735HD       C 2937   4.225   5.862   0.346  0.1584 -0.3140 -0.0145
  735HD       C 2938   4.344   5.566  -0.020 -0.0213  0.1469  0.0501
  735HD       C 2939   4.482   5.271  -0.229  0.0466 -0.2425  0.2377
  735HD       C 2940   4.825   5.114  -0.497 -0.1893 -0.3923  0.0451
  736HD       C 2941   1.320   0.157   4.115 -0.0145 -0.1267 -0.1008
  736HD       C 2942   0.892  -0.078   4.055 -0.1393  0.0911 -0.0855
  736HD       C 2943   0.525  -0.252   4.240  0.0898 -0.1407  0.0575
  736HD       C 2944   0.140  -0.094   4.547 -0.1908 -0.1136 -0.2580
  737HD       C 2945   3.144   5.817   0.005 -0.3526  0.2392 -0.1078
  737HD       C 2946   2.790   5.835  -0.067  0.2903 -0.1457 -0.0649
  737HD       C 2947   2.417   5.991  -0.147 -0.5220  0.1412 -0.0021
  737HD       C 2948   2.024   6.086   0.110  0.1808  0.1107  0.0344
  738HD       C 2949   4.540   4.602   3.721 -0.1346 -0.0086 -0.3318
  738HD       C 2950   4.470   5.044   3.702  0.0915  0.1400  0.0247
  738HD       C 2951   4.437   5.331   4.022  0.1654  0.3245  0.0132
  738HD       C 2952   4.276   5.717   4.141 -0.2261  0.1701  0.2071
  739HD       C 2953   5.942   0.505   5.468 -0.2033  0.0544 -0.0855
  739HD       C 2954   6.193   0.749   5.741  0.2741  0.2244 -0.0792
  739HD       C 2955   6.657   0.671   5.833  0.1853  0.0556  0.0269
  739HD       C 2956   7.040   0.504   5.812  0.0053  0.0890 -0.1327
  740HD       C 2957   6.920   5.419   6.152  0.3092  0.6056 -0.0665
  740HD       C 2958   7.000   5.493   5.749  0.1144 -0.0012  0.0631
  740HD       C 2959   7.313   5.384   5.471 -0.2079 -0.0252 -0.2223
  740HD       C 2960   7.758   5.284   5.515  0.1139 -0.1050  0.0730
  741HD       C 2961   2.784   1.333   4.561  0.3068  0.0310  0.1309
  741HD       C 2962   2.559   1.365   4.122  0.1058  0.5858  0.2577
  741HD       C 2963   2.331   1.755   4.031 -0.1737  0.0423 -0.0771
  741HD       C 2964   2.173   2.196   4.072 -0.2688  0.0164 -0.4983
  742HD       C 2965   4.922   2.405   4.099 -0.0218 -0.0534 -0.0400
  742HD       C 2966   4.788   2.639   3.695 -0.3044 -0.1761 -0.2364
  742HD       C 2967   4.925   2.936   3.560  0.0991  0.0718 -0.2676
  742HD       C 2968   5.271   3.208   3.300  0.5237 -0.0479 -0.0010
  743HD       C 2969   3.196   4.261   5.607 -0.0563 -0.0234 -0.1174
  743HD       C 2970   3.120   4.607   5.867 -0.1411 -0.0965 -0.3758
  743HD       C 2971   3.025   4.965   6.206 -0.0838  0.3027  0.2919
  743HD       C 2972   3.177   5.434   6.394 -0.2648  0.1513  0.0616
  744HD       C 2973   4.042   1.135   1.799 -0.1824 -0.3541  0.1948
  744HD       C 2974   4.370   1.128   1.542  0.3012  0.0195  0.0520
  744HD       C 2975   4.723   1.242   1.615  0.0757 -0.1914 -0.1550
  744HD       C 2976   5.120   1.126   1.636 -0.1387  0.2631 -0.2909
  745HD       C 2977   2.942   5.672   1.513  0.1350 -0.0130  0.6279
  745HD       C 2978   2.860   6.094   1.690 -0.0971  0.0960 -0.1701
  745HD       C 2979   2.723   6.454   1.628  0.1690  0.2344 -0.0776
  745HD       C 2980   2.433   6.758   1.399  0.1607 -0.3862  0.0731
  746HD       C 2981   5.362   5.753   3.513  0.0202  0.2085 -0.0992
  746HD       C 2982   5.434   5.337   3.606 -0.1187  0.2500  0.1552
  746HD       C 2983   5.403   5.319   3.955  0.0068 -0.1061  0.0796
  746HD       C 2984   5.849   5.441   4.188 -0.1617  0.0671 -0.0595
  747HD       C 2985   2.743   5.306   6.074  0.0639 -0.0849  0.3225
  747HD       C 2986   2.436   5.626   6.330  0.0342 -0.0866 -0.0109
  747HD       C 2987   2.398   6.000   6.434  0.1212  0.1039 -0.1215
  747HD       C 2988   2.521   6.369   6.618  0.0113 -0.1671  0.1595
  748HD       C 2989   4.443   6.315   6.653  0.0567 -0.0556 -0.1277
  748HD       C 2990   4.554   6.549   6.997  0.1797  0.0530  0.0681
  748HD       C 2991   4.926   6.447   7.305  0.1847 -0.3954 -0.0157
  748HD       C 2992   5.335   6.335   7.465 -0.0551 -0.0063 -0.0749
  749HD       C 2993   3.315   0.080   6.530 -0.1108  0.4185 -0.0933
  749HD       C 2994   2.923  -0.166   6.405  0.0685  0.0017 -0.3048
  749HD       C 2995   2.815  -0.581   6.295  0.1201  0.0429 -0.0716
  749HD       C 2996   2.730  -0.965   5.970  0.0837  0.0505  0.1085
  750HD       C 2997   4.510   3.000   2.737  0.3260 -0.1693  0.2093
  750HD       C 2998   4.609   2.586   2.544  0.2874 -0.0139 -0.0134
  750HD       C 2999   4.465   2.203   2.233  0.1592  0.2325 -0.0097
  750HD       C 3000   4.519   1.813   2.030  0.1001 -0.1539  0.0164
  751HD       C 3001   4.998   3.647   6.401 -0.1133  0.0017 -0.2188
  751HD       C 3002   5.049   3.503   6.802 -0.0060 -0.0349  0.1800
  751HD       C 3003   5.316   3.242   7.125  0.0810  0.0892 -0.0773
  751HD       C 3004   5.449   3.275   7.604 -0.2027 -0.1527  0.2468
  752HD       C 3005   3.705   4.824   1.850  0.2538  0.3095 -0.2102
  752HD       C 3006   3.882   4.506   1.731 -0.0867  0.3165 -0.0227
  752HD       C 3007   4.070   4.021   1.604 -0.0386  0.0405  0.0610
  752HD       C 3008   4.145   3.576   1.389  0.1067  0.0575 -0.1733
  753HD       C 3009   7.143   2.214   3.745 -0.2080 -0.1849  0.0562
  753HD       C 3010   7.452   2.529   3.893 -0.0647  0.3487 -0.2510
  753HD       C 3011   7.631   2.709   4.137  0.0510 -0.0675  0.2630
  753HD       C 3012   7.997   2.859   4.306 -0.3232  0.1726  0.0637
  754HD       C 3013   1.991   0.514   6.257 -0.1879 -0.2685 -0.1486
  754HD       C 3014   2.386   0.599   6.399  0.0709  0.3637  0.0421
  754HD       C 3015   2.713   0.786   6.795 -0.1803  0.0504 -0.1947
  754HD       C 3016   2.941   1.076   7.030 -0.2161 -0.1220  0.4026
  755HD       C 3017   1.344   0.283   4.906  0.3044  0.0531 -0.2415
  755HD       C 3018   1.154   0.341   5.351 -0.1590  0.0411  0.0519
  755HD       C 3019   0.947   0.346   5.866 -0.0904 -0.3264  0.1608
  755HD       C 3020   0.644   0.288   6.213 -0.2912  0.0047 -0.1831
  756HD       C 3021   5.044   5.024   6.230  0.0905 -0.1608  0.1377
  756HD       C 3022   5.322   5.385   6.362 -0.0930 -0.1085  0.2320
  756HD       C 3023   5.694   5.373   6.550 -0.0181 -0.1311  0.0796
  756HD       C 3024   6.036   5.379   6.473 -0.1485  0.0236 -0.1560
  757HD       C 3025   1.012   0.615   2.578 -0.0533  0.0380  0.3128
  757HD       C 3026   1.172   0.227   2.494 -0.0983 -0.0880 -0.4838
  757HD       C 3027   1.276   0.045   2.125 -0.3370  0.0790 -0.0460
  757HD       C 3028   1.574   0.083   1.720  0.3379  0.0793 -0.0411
  758HD       C 3029   5.870   2.711   2.912 -0.0210  0.0714  0.4155
  758HD       C 3030   5.488   3.039   2.824  0.0246  0.1537  0.1242
  758HD       C 3031   5.292   3.397   2.754  0.0531  0.0788  0.1692
  758HD       C 3032   4.915   3.401   2.695 -0.1674 -0.2306 -0.1911
  759HD       C 3033   0.652   4.363   0.094  0.3803 -0.1370 -0.2798
  759HD       C 3034   0.372   4.730   0.263  0.0484 -0.3475 -0.1718
  759HD       C 3035   0.410   5.203   0.376 -0.0525 -0.0476  0.2458
  759HD       C 3036   0.795   5.228   0.652 -0.1748  0.1446  0.2769
  760HD       C 3037   1.041   1.347   2.540 -0.1819 -0.0593  0.0214
  760HD       C 3038   1.375   1.423   2.245  0.0849  0.0058  0.2201
  760HD       C 3039   1.812   1.279   2.231  0.1640 -0.0391  0.1206
  760HD       C 3040   2.261   1.240   2.330  0.0109  0.2776  0.0907
  761HD       C 3041   1.553   5.980   0.043 -0.0947  0.0998  0.0276
  761HD       C 3042   1.728   5.840   0.417 -0.1210  0.2149  0.1709
  761HD       C 3043   1.844   5.412   0.579 -0.0088 -0.2002  0.3056
  761HD       C 3044   1.825   4.999   0.707 -0.2181  0.0059 -0.0516
  762HD       C 3045   7.339   4.680   3.978  0.1188  0.1259  0.2937
  762HD       C 3046   7.483   4.392   3.668 -0.1786  0.1173 -0.0688
  762HD       C 3047   7.814   4.067   3.864  0.1061  0.0785 -0.2727
  762HD       C 3048   8.083   3.874   3.667 -0.1000 -0.1394 -0.0118
  763HD       C 3049   3.150   4.079   2.365 -0.1951  0.0448 -0.0825
  763HD       C 3050   3.421   3.889   2.091  0.2692 -0.1388 -0.0534
  763HD       C 3051   3.628   3.471   2.061 -0.1918  0.1816 -0.1757
  763HD       C 3052   3.700   3.146   2.315 -0.1261 -0.1610 -0.1294
  764HD       C 3053   1.627   6.192   4.206 -0.0781 -0.3144 -0.3934
  764HD       C 3054   1.522   5.871   3.902  0.2021 -0.1650  0.0431
  764HD       C 3055   1.322   5.527   4.034  0.1496  0.0503 -0.0802
  764HD       C 3056   1.009   5.326   4.076 -0.0644  0.1270  0.3351
  765HD       C 3057   0.081   2.532   2.827 -0.2078 -0.1068 -0.1359
  765HD       C 3058  -0.358   2.591   2.870  0.2832 -0.1817 -0.0252
  765HD       C 3059  -0.720   2.778   2.874 -0.1923  0.0432 -0.0102
  765HD       C 3060  -0.962   3.191   2.692 -0.0438  0.1801  0.0124
  766HD       C 3061   4.098   6.454   6.058 -0.3651 -0.1617  0.0266
  766HD       C 3062   4.211   6.164   5.744 -0.2010  0.0401 -0.0626
  766HD       C 3063   4.112   5.869   5.383  0.1813  0.0627  0.2588
  766HD       C 3064   3.747   5.854   4.992 -0.0325 -0.0347 -0.1972
  767HD       C 3065   0.582   3.283   1.019 -0.1369 -0.0747  0.1409
  767HD       C 3066   0.703   3.266   1.357  0.1434 -0.3680  0.1418
  767HD       C 3067   0.803   3.099   1.821  0.2058 -0.2704  0.2781
  767HD       C 3068   1.120   2.816   1.835 -0.2224 -0.1316 -0.0680
  768HD       C 3069   5.706   4.199   4.597 -0.3659  0.0767 -0.0684
  768HD       C 3070   5.731   4.709   4.424 -0.1330 -0.1050 -0.2070
  768HD       C 3071   6.101   5.021   4.401 -0.2141  0.1080  0.1565
  768HD       C 3072   6.321   5.322   4.184  0.1355 -0.0062 -0.2457
  769HD       C 3073   0.058   1.935   0.806 -0.1070  0.0139  0.1649
  769HD       C 3074   0.298   1.983   0.408 -0.2540  0.2091 -0.1819
  769HD       C 3075   0.253   1.790   0.137  0.1065  0.0962 -0.2471
  769HD       C 3076   0.342   1.422   0.123  0.1525  0.0258 -0.2463
  770HD       C 3077   2.159   3.550   0.754 -0.0883 -0.1210 -0.0478
  770HD       C 3078   1.973   3.994   0.659 -0.1363 -0.3479  0.2774
  770HD       C 3079   1.501   4.087   0.797 -0.2223  0.0008  0.1060
  770HD       C 3080   1.077   4.059   0.618 -0.1455 -0.2599  0.1865
  771HD       C 3081   4.449   5.965   0.766  0.0967 -0.3164 -0.0854
  771HD       C 3082   4.496   5.592   1.002 -0.3956 -0.2978  0.0136
  771HD       C 3083   4.163   5.224   1.098 -0.0482 -0.0295 -0.1933
  771HD       C 3084   3.982   4.763   1.064 -0.1480 -0.2608  0.1814
  772HD       C 3085   6.643   3.941   3.784 -0.1542  0.0534 -0.1518
  772HD       C 3086   6.477   4.180   3.526 -0.3977 -0.2173  0.0257
  772HD       C 3087   6.316   4.211   3.248 -0.2290  0.5140  0.2596
  772HD       C 3088   6.479   4.537   2.950  0.1052 -0.1774  0.1955
  773HD       C 3089   2.640   4.858   5.825  0.1056  0.2208  0.1110
  773HD       C 3090   2.798   4.521   5.556 -0.1584 -0.2704  0.1222
  773HD       C 3091   2.747   4.141   5.360  0.0433 -0.1790 -0.0210
  773HD       C 3092   2.377   3.896   5.132  0.2438 -0.3308 -0.2634
  774HD       C 3093   6.409   7.238   4.033  0.2547 -0.1782 -0.0911
  774HD       C 3094   5.995   7.399   3.880 -0.3000 -0.1013  0.1148
  774HD       C 3095   5.900   7.487   3.391  0.2452  0.3311 -0.2123
  774HD       C 3096   5.966   7.456   2.980 -0.0782 -0.0204  0.0675
  775HD       C 3097   6.562   1.854   6.132  0.1900  0.1619 -0.0175
  775HD       C 3098   6.367   2.107   6.410  0.1138  0.3685 -0.0107
  775HD       C 3099   6.071   2.171   6.653 -0.3752  0.0705  0.0259
  775HD       C 3100   5.984   2.161   7.074  0.0782 -0.2543 -0.0742
  776HD       C 3101   5.587   0.522   0.367 -0.0218  0.1557  0.0355
  776HD       C 3102   5.753  -0.004   0.242 -0.1533 -0.2866 -0.2580
  776HD       C 3103   6.008  -0.322   0.329  0.2752 -0.0770  0.0505
  776HD       C 3104   6.284  -0.687   0.192 -0.0474  0.1403 -0.0876
  777HD       C 3105   1.078   6.798   1.197 -0.0172 -0.3968  0.0031
  777HD       C 3106   1.123   6.507   0.965 -0.0608 -0.1017  0.1359
  777HD       C 3107   1.387   6.298   0.715  0.0514  0.1350 -0.1038
  777HD       C 3108   1.778   6.388   0.345  0.2605 -0.0554 -0.0116
  778HD       C 3109   3.470   0.951   0.996  0.0457  0.1673 -0.1177
  778HD       C 3110   3.682   0.558   0.971  0.1917  0.1917 -0.3051
  778HD       C 3111   4.054   0.301   0.836 -0.2542 -0.2600  0.0948
  778HD       C 3112   4.228  -0.090   1.009  0.0370  0.0997 -0.0319
  779HD       C 3113   6.711   2.092   4.915 -0.4745  0.1140  0.2080
  779HD       C 3114   6.785   2.297   4.499 -0.0490 -0.1293 -0.1088
  779HD       C 3115   6.755   2.062   4.076 -0.0134 -0.1396 -0.1308
  779HD       C 3116   7.191   1.806   4.091  0.4870 -0.1954  0.1220
  780HD       C 3117   1.375   5.675   5.667 -0.0613 -0.1051 -0.0527
  780HD       C 3118   1.305   5.460   5.248  0.0321 -0.0265 -0.0608
  780HD       C 3119   0.979   5.479   5.009  0.1146  0.3347  0.0885
  780HD       C 3120   0.598   5.308   4.906 -0.1846 -0.4820  0.1797
  781HD       C 3121   0.523   2.763   6.889 -0.4349 -0.0328  0.2183
  781HD       C 3122   0.721   2.408   6.741  0.1969 -0.1753 -0.0986
  781HD       C 3123   0.771   2.159   6.392  0.1033  0.1231  0.1818
  781HD       C 3124   0.871   1.737   6.136  0.2026 -0.2349  0.1763
  782HD       C 3125   3.096   5.405   6.986  0.0160 -0.2140  0.0947
  782HD       C 3126   3.361   5.051   6.697  0.2286 -0.0272 -0.0329
  782HD       C 3127   3.682   4.927   6.561  0.4376  0.1473 -0.1088
  782HD       C 3128   3.956   4.611   6.453 -0.1371  0.1977 -0.3063
  783HD       C 3129   2.966   3.940   1.197 -0.1914 -0.0557  0.2462
  783HD       C 3130   3.321   3.733   1.201 -0.0781 -0.0755 -0.0744
  783HD       C 3131   3.708   3.379   1.217  0.0589  0.2229  0.2169
  783HD       C 3132   3.655   2.943   1.315  0.1522  0.3304 -0.0170
  784HD       C 3133   1.066   1.793   4.520  0.0508 -0.1584 -0.0039
  784HD       C 3134   1.059   1.519   4.180 -0.3566  0.1830 -0.0936
  784HD       C 3135   0.784   1.488   3.865  0.0888  0.0984 -0.2232
  784HD       C 3136   1.072   1.517   3.584 -0.0229  0.1461  0.0449
  785HD       C 3137   0.106   0.156   0.076 -0.0677  0.1363  0.0718
  785HD       C 3138   0.002   0.221   0.510  0.1215  0.2999  0.1449
  785HD       C 3139  -0.330   0.074   0.860 -0.2650 -0.1242 -0.2037
  785HD       C 3140  -0.536  -0.150   1.178  0.3172 -0.0645 -0.1614
  786HD       C 3141   0.788   4.965   0.093  0.0058  0.0525 -0.1671
  786HD       C 3142   0.594   5.311  -0.105  0.1736  0.1595  0.0835
  786HD       C 3143   0.365   5.657  -0.056  0.1713  0.1383  0.1842
  786HD       C 3144   0.442   6.102  -0.195  0.0654 -0.0645  0.0173
  787HD       C 3145   3.498   2.215   3.506 -0.2187 -0.3404  0.2058
  787HD       C 3146   3.802   2.166   3.257 -0.2234 -0.1042 -0.1169
  787HD       C 3147   3.925   2.416   2.844 -0.0946 -0.2992  0.0810
  787HD       C 3148   3.955   2.294   2.467  0.6299  0.1717  0.1972
  788HD       C 3149   4.378   3.917   5.716  0.1231  0.0426  0.2359
  788HD       C 3150   4.809   3.797   5.510  0.0514 -0.2490  0.0821
  788HD       C 3151   5.181   3.610   5.791 -0.0995 -0.3404  0.0407
  788HD       C 3152   5.108   3.276   6.061 -0.3227  0.1805  0.2121
  789HD       C 3153   7.004   6.688   3.010 -0.0904 -0.2711  0.3424
  789HD       C 3154   6.911   7.066   3.031  0.0675  0.2513  0.0161
  789HD       C 3155   6.710   7.314   2.787 -0.0692 -0.2125 -0.0474
  789HD       C 3156   6.777   7.362   2.344  0.0764 -0.1173 -0.1744
  790HD       C 3157   2.844   3.401   4.522 -0.2326 -0.2790 -0.0471
  790HD       C 3158   2.796   3.749   4.796 -0.0050 -0.1956  0.1041
  790HD       C 3159   2.865   3.640   5.278 -0.1337 -0.2752 -0.1798
  790HD       C 3160   3.077   3.794   5.680 -0.2807  0.2440  0.0328
  791HD       C 3161   0.816   6.093   0.129  0.0561 -0.2527 -0.4598
  791HD       C 3162   0.391   6.139   0.303 -0.2414  0.0027  0.1601
  791HD       C 3163   0.040   6.130   0.549 -0.1490  0.2214  0.0720
  791HD       C 3164  -0.400   6.382   0.544 -0.0339 -0.1450  0.1004
  792HD       C 3165   6.961   0.857   3.638 -0.0160  0.1979 -0.0277
  792HD       C 3166   7.145   0.774   3.990  0.1626  0.0290 -0.2569
  792HD       C 3167   7.226   0.459   4.229 -0.0894 -0.1021  0.0796
  792HD       C 3168   7.628   0.291   4.364 -0.1679 -0.1302  0.0683
  793HD       C 3169   7.162   4.140   5.863 -0.1267  0.1715  0.2705
  793HD       C 3170   7.287   3.997   5.407  0.0303  0.0865 -0.0120
  793HD       C 3171   7.245   3.827   5.064 -0.0637 -0.2779 -0.0700
  793HD       C 3172   7.009   3.738   4.798  0.2086 -0.0388  0.0619
  794HD       C 3173   6.908   0.921   6.813 -0.3775 -0.0022 -0.1039
  794HD       C 3174   6.522   0.831   7.027  0.0323  0.2443 -0.0433
  794HD       C 3175   6.160   0.644   6.942 -0.1683 -0.0980  0.1340
  794HD       C 3176   6.076   0.254   6.713 -0.0660  0.1126  0.0984
  795HD       C 3177   7.293   6.781   6.358 -0.2711  0.0116 -0.1417
  795HD       C 3178   7.738   6.944   6.204 -0.1022  0.3063 -0.0360
  795HD       C 3179   7.857   6.829   5.864 -0.1241  0.0403 -0.1314
  795HD       C 3180   7.719   6.593   5.507 -0.0593 -0.3062  0.3961
  796HD       C 3181   3.487   3.255   6.475  0.0372  0.3511 -0.2623
  796HD       C 3182   3.705   2.925   6.679  0.3527 -0.0432 -0.3305
  796HD       C 3183   4.021   2.642   6.793 -0.2130 -0.0984 -0.0636
  796HD       C 3184   3.937   2.254   6.588 -0.1393 -0.1837  0.1747
  797HD       C 3185   4.622   3.699   2.931  0.0249 -0.0372  0.1317
  797HD       C 3186   4.246   3.519   2.807  0.2024  0.1275 -0.1974
  797HD       C 3187   4.065   3.141   2.738 -0.2206 -0.3727  0.0803
  797HD       C 3188   4.067   2.777   2.409 -0.0979 -0.0144 -0.1059
  798HD       C 3189   5.713   2.022   6.261  0.0848  0.0882 -0.0298
  798HD       C 3190   5.989   1.699   6.307  0.1685  0.3863  0.1449
  798HD       C 3191   6.360   1.396   6.473 -0.0751 -0.1198  0.2364
  798HD       C 3192   6.602   1.014   6.417 -0.0755  0.0433  0.2915
  799HD       C 3193   6.061   1.733   3.608  0.0801  0.1233  0.1948
  799HD       C 3194   5.970   2.009   3.403 -0.0986 -0.3748 -0.0052
  799HD       C 3195   5.610   2.348   3.259  0.2013 -0.0927 -0.2088
  799HD       C 3196   5.292   2.617   3.053 -0.3117  0.1642  0.4255
  800HD       C 3197   6.754   7.201   3.475 -0.0575 -0.0065  0.3896
  800HD       C 3198   6.806   7.601   3.243  0.3099 -0.0582  0.0128
  800HD       C 3199   6.832   7.998   3.135  0.3199 -0.0554 -0.1856
  800HD       C 3200   6.907   8.388   3.255 -0.3374 -0.0964  0.2349
  801HD       C 3201   0.968   4.246   6.080 -0.1487  0.1317  0.0625
  801HD       C 3202   0.732   4.427   5.845 -0.2496 -0.1905 -0.1671
  801HD       C 3203   0.369   4.553   5.838  0.1868 -0.1659 -0.1551
  801HD       C 3204  -0.012   4.388   6.051  0.1198 -0.0526 -0.0317
  802HD       C 3205   0.556   4.732   6.884 -0.2063  0.3365  0.1793
  802HD       C 3206   0.834   5.034   6.800  0.5096  0.2398  0.2252
  802HD       C 3207   1.290   5.038   6.584 -0.1640 -0.0960  0.2204
  802HD       C 3208   1.595   5.431   6.743 -0.0220  0.1130  0.1513
  803HD       C 3209   3.680   1.982   5.745  0.0346 -0.0366  0.0938
  803HD       C 3210   3.238   1.965   5.507  0.1808 -0.0599  0.0219
  803HD       C 3211   2.903   1.939   5.186 -0.0202 -0.1074 -0.1686
  803HD       C 3212   2.714   1.590   4.957  0.6156 -0.0838 -0.3070
  804HD       C 3213   6.690   4.911   2.205  0.1031 -0.1838 -0.0376
  804HD       C 3214   7.017   4.548   2.112  0.0375 -0.0141 -0.1805
  804HD       C 3215   7.204   4.385   1.740 -0.1784  0.2387  0.1830
  804HD       C 3216   7.541   4.367   1.460  0.0607  0.1788  0.2061
  805HD       C 3217   6.321   3.584   2.515  0.1367 -0.2794 -0.0799
  805HD       C 3218   6.279   3.503   2.872  0.1357  0.0228  0.1478
  805HD       C 3219   6.011   3.796   3.135  0.0117 -0.0823  0.0335
  805HD       C 3220   5.758   4.102   3.162 -0.2084  0.1830 -0.1528
  806HD       C 3221   7.609   0.739   1.333  0.1939 -0.3410  0.2340
  806HD       C 3222   7.726   1.068   1.119 -0.1239 -0.0438 -0.0335
  806HD       C 3223   7.500   1.252   0.825 -0.1136  0.3954  0.0088
  806HD       C 3224   7.565   1.574   0.484 -0.2325  0.2030  0.0166
  807HD       C 3225   3.219   1.613   0.929 -0.1539 -0.1532  0.2165
  807HD       C 3226   2.997   1.634   0.473 -0.0313 -0.0976  0.1791
  807HD       C 3227   2.572   1.854   0.260 -0.0870 -0.1823  0.2539
  807HD       C 3228   2.177   1.989   0.214 -0.0047  0.1840 -0.1040
  808HD       C 3229   3.534   5.550   1.674 -0.0505 -0.0625  0.1014
  808HD       C 3230   3.353   5.303   1.558  0.0486 -0.1724  0.0252
  808HD       C 3231   3.180   4.936   1.703 -0.0747 -0.3191 -0.1775
  808HD       C 3232   2.842   4.823   1.811 -0.0747 -0.2185 -0.0979
  809HD       C 3233   4.453   5.185   5.038 -0.0015 -0.0388 -0.0441
  809HD       C 3234   4.705   5.000   4.715  0.1285 -0.2622 -0.0360
  809HD       C 3235   4.979   4.690   4.667  0.1523 -0.3894 -0.0326
  809HD       C 3236   4.851   4.432   4.194 -0.2299  0.2128  0.1035
  810HD       C 3237   2.725   6.282   2.552  0.1763  0.0638 -0.3669
  810HD       C 3238   3.025   6.418   2.869 -0.0946  0.1175  0.1951
  810HD       C 3239   3.211   6.180   3.094 -0.6100 -0.0041 -0.1075
  810HD       C 3240   3.195   5.793   3.122  0.0434  0.0289 -0.1825
  811HD       C 3241   3.704   1.052   6.860 -0.0637  0.0026 -0.0428
  811HD       C 3242   3.420   0.889   7.122 -0.0040 -0.3400  0.3503
  811HD       C 3243   3.212   1.271   7.376  0.0634  0.0347  0.1779
  811HD       C 3244   2.871   1.559   7.173  0.0684  0.1243  0.0307
  812HD       C 3245   2.186   3.235   6.389 -0.0294  0.0469  0.1097
  812HD       C 3246   2.573   3.293   6.747 -0.0122  0.0245 -0.1827
  812HD       C 3247   2.726   3.044   7.096  0.1015  0.1005  0.1220
  812HD       C 3248   2.890   2.822   7.489 -0.0300 -0.0341  0.2332
  813HD       C 3249   2.212   4.355   0.388 -0.0590 -0.0472  0.0382
  813HD       C 3250   2.076   4.679   0.211 -0.0721 -0.2979 -0.1512
  813HD       C 3251   1.694   4.926   0.225  0.0322 -0.1146 -0.0139
  813HD       C 3252   1.269   5.062   0.334 -0.0993  0.1256  0.0262
  814HD       C 3253   4.014   1.785   0.778 -0.1350  0.0230  0.0430
  814HD       C 3254   3.937   2.054   1.089  0.5972  0.0450 -0.0968
  814HD       C 3255   3.894   2.115   1.464  0.2049  0.0228  0.0066
  814HD       C 3256   3.685   2.206   1.758 -0.0539 -0.0878  0.0608
  815HD       C 3257   7.210   3.854   2.016 -0.2174  0.2576  0.1480
  815HD       C 3258   6.949   4.005   2.053 -0.0005  0.0419  0.0875
  815HD       C 3259   6.504   3.891   2.150  0.0685  0.1688  0.0846
  815HD       C 3260   6.031   3.714   2.081  0.3024 -0.3601  0.0375
  816HD       C 3261   5.399   3.770   1.188  0.1840  0.1734 -0.2111
  816HD       C 3262   5.371   3.300   1.459  0.2054  0.0435 -0.1125
  816HD       C 3263   5.715   2.937   1.419  0.2103  0.4070 -0.1554
  816HD       C 3264   5.949   2.962   1.021  0.2344  0.0478  0.1876
  817HD       C 3265   1.400   3.979   1.341 -0.0592 -0.0257  0.1941
  817HD       C 3266   1.047   4.223   1.545  0.0720  0.5658  0.4449
  817HD       C 3267   0.676   4.086   1.731  0.0674 -0.2372  0.1072
  817HD       C 3268   0.528   3.642   1.691 -0.0298  0.0073  0.0657
  818HD       C 3269   6.529   7.114   6.833 -0.1777 -0.0794  0.0577
  818HD       C 3270   6.238   7.231   7.156 -0.2478 -0.3409 -0.1900
  818HD       C 3271   6.146   7.637   7.366  0.0311  0.1270 -0.1982
  818HD       C 3272   6.039   7.860   7.765 -0.0640 -0.1441  0.0052
  819HD       C 3273   4.941   1.510   5.275 -0.0379  0.1415  0.0567
  819HD       C 3274   5.240   1.547   5.727  0.0718 -0.1720 -0.2293
  819HD       C 3275   5.276   1.830   6.062  0.0671 -0.2714  0.0702
  819HD       C 3276   5.170   2.182   6.240 -0.1132  0.0784  0.0890
  820HD       C 3277   5.352   0.802   4.857  0.1543 -0.1741  0.0965
  820HD       C 3278   5.701   0.989   4.634 -0.0409  0.1391  0.0185
  820HD       C 3279   6.068   0.871   4.418 -0.1196 -0.1824 -0.1905
  820HD       C 3280   6.532   0.887   4.435  0.1520 -0.1310  0.0823
  821HD       C 3281   3.827   2.062   3.844  0.6110  0.0052 -0.1167
  821HD       C 3282   3.874   2.562   3.723 -0.1254  0.1470 -0.0297
  821HD       C 3283   3.996   2.938   3.935 -0.0411  0.1040  0.0526
  821HD       C 3284   4.153   3.329   4.180 -0.1861  0.1493 -0.0718
  822HD       C 3285   7.068   5.315   1.587 -0.0344  0.0813  0.1425
  822HD       C 3286   6.816   5.514   1.184  0.0106 -0.1665 -0.0336
  822HD       C 3287   6.582   5.848   1.012  0.0256 -0.0338 -0.3695
  822HD       C 3288   6.665   6.298   0.811 -0.1186  0.0050  0.0029
  823HD       C 3289   3.725   0.089   2.960  0.0885  0.1901  0.2482
  823HD       C 3290   3.436   0.103   3.325  0.0143 -0.3395  0.0719
  823HD       C 3291   3.364   0.120   3.852 -0.2374  0.1543  0.2066
  823HD       C 3292   3.060   0.339   4.081  0.2000 -0.0119 -0.0624
  824HD       C 3293   4.591   2.678   1.533  0.2022 -0.2328  0.3248
  824HD       C 3294   4.965   2.906   1.383  0.0076  0.4495  0.2394
  824HD       C 3295   5.036   3.303   1.137 -0.0136  0.0887  0.3348
  824HD       C 3296   5.078   3.546   0.745 -0.3335 -0.1460 -0.2566
  825HD       C 3297   2.681   6.452   1.031  0.1579 -0.1702  0.1766
  825HD       C 3298   2.698   6.109   1.231 -0.2121  0.0563  0.0128
  825HD       C 3299   2.434   5.935   1.568 -0.0870  0.1637  0.4225
  825HD       C 3300   2.496   5.633   1.854 -0.2233  0.2418  0.0097
  826HD       C 3301   7.281   0.582   3.367  0.0772  0.0146  0.2009
  826HD       C 3302   7.049   0.330   3.647 -0.0233  0.0526  0.0621
  826HD       C 3303   6.737   0.454   3.892 -0.0247  0.0464  0.0350
  826HD       C 3304   6.351   0.556   3.982  0.0107  0.0266  0.1152
  827HD       C 3305   0.785   2.324   2.718  0.2919 -0.4038 -0.3981
  827HD       C 3306   0.556   2.680   2.524 -0.2044  0.0550 -0.0949
  827HD       C 3307   0.659   3.091   2.298  0.2505  0.0716 -0.2741
  827HD       C 3308   0.628   3.547   2.145 -0.0185  0.0397 -0.0705
  828HD       C 3309   5.654   2.716   5.654  0.3057  0.2608  0.1076
  828HD       C 3310   5.738   2.469   5.367  0.2947  0.0626 -0.1621
  828HD       C 3311   5.995   2.400   5.086  0.0251  0.0746 -0.2453
  828HD       C 3312   6.262   2.290   4.725  0.1940  0.2741 -0.2115
  829HD       C 3313   6.462   2.604   5.940 -0.0898  0.3315 -0.0800
  829HD       C 3314   6.017   2.511   6.022  0.3038 -0.3292 -0.0584
  829HD       C 3315   5.893   2.884   6.171  0.0082  0.2771  0.1923
  829HD       C 3316   5.925   3.239   6.392  0.0270 -0.0353 -0.1525
  830HD       C 3317   1.523   2.657   3.350  0.0209 -0.3222 -0.1198
  830HD       C 3318   1.445   2.885   3.020  0.1377  0.2646 -0.0826
  830HD       C 3319   1.118   3.096   3.160  0.1837  0.0681  0.2507
  830HD       C 3320   0.799   3.408   3.258 -0.0313  0.1216  0.3216
  831HD       C 3321   7.201   3.394   5.325  0.4279 -0.2056  0.0168
  831HD       C 3322   7.662   3.508   5.401 -0.4532  0.0932  0.0373
  831HD       C 3323   7.841   3.855   5.436 -0.0168  0.2660  0.2401
  831HD       C 3324   7.747   4.279   5.497 -0.2864  0.2539 -0.3015
  832HD       C 3325   7.546   1.632   5.330  0.2663  0.0396  0.0465
  832HD       C 3326   7.132   1.537   5.329 -0.0236 -0.3099 -0.1154
  832HD       C 3327   6.789   1.474   5.189 -0.1022  0.0992 -0.0366
  832HD       C 3328   6.568   1.392   4.686  0.0288  0.1196  0.0038
  833HD       C 3329   5.029   5.758   1.304  0.0373  0.0879  0.0122
  833HD       C 3330   5.482   5.891   1.060 -0.0925  0.2934  0.1192
  833HD       C 3331   5.679   6.172   1.155 -0.2264  0.0465  0.0086
  833HD       C 3332   5.781   6.484   1.407 -0.1713  0.2367  0.0318
  834HD       C 3333   3.835   4.356   1.269  0.2542  0.0859  0.0911
  834HD       C 3334   4.209   4.417   1.342 -0.3265  0.1012 -0.0229
  834HD       C 3335   4.507   4.663   1.226 -0.2528  0.0599  0.0757
  834HD       C 3336   4.898   4.589   1.079 -0.1476  0.1467 -0.2427
  835HD       C 3337   1.065   6.893   0.263 -0.1539 -0.0044 -0.2192
  835HD       C 3338   1.519   6.852   0.447 -0.1346 -0.1667  0.0674
  835HD       C 3339   1.989   7.034   0.649  0.1807 -0.3380  0.0954
  835HD       C 3340   2.042   7.379   0.818  0.2705 -0.0787  0.0897
  836HD       C 3341   1.530   2.552   6.149 -0.1025 -0.1529 -0.1859
  836HD       C 3342   1.096   2.418   6.162 -0.2490 -0.0591  0.1886
  836HD       C 3343   0.822   2.620   6.149  0.0098  0.0488  0.1017
  836HD       C 3344   0.450   2.708   6.339  0.0305 -0.0829  0.0991
  837HD       C 3345   1.623   5.823   5.241 -0.3341 -0.3006  0.1186
  837HD       C 3346   1.508   6.173   5.589  0.1970 -0.1371 -0.0811
  837HD       C 3347   1.381   6.490   5.857 -0.1878  0.1982 -0.0996
  837HD       C 3348   1.043   6.668   6.018  0.1495 -0.0359 -0.0900
  838HD       C 3349   3.725   4.390   5.967  0.0977 -0.1811 -0.1561
  838HD       C 3350   3.257   4.158   6.059 -0.1524 -0.0522 -0.2027
  838HD       C 3351   2.924   3.809   6.144 -0.0483 -0.0036  0.5375
  838HD       C 3352   2.540   3.641   6.178 -0.3428  0.0187  0.1587
  839HD       C 3353   4.473   5.477   0.563  0.0060  0.3306  0.0421
  839HD       C 3354   4.730   5.784   0.436 -0.1401 -0.0825 -0.0766
  839HD       C 3355   4.948   6.068   0.683 -0.1049 -0.3833 -0.1715
  839HD       C 3356   5.076   6.191   1.084 -0.0078  0.0278  0.1924
  840HD       C 3357   1.810   1.789   0.610 -0.0157  0.2210  0.0121
  840HD       C 3358   1.595   1.866   0.948  0.0849  0.0761  0.1560
  840HD       C 3359   1.250   1.750   1.079  0.0199 -0.0994  0.0634
  840HD       C 3360   0.838   1.702   1.156 -0.3613 -0.1661 -0.0709
  841HD       C 3361   6.660   3.249   0.431 -0.1752 -0.2726 -0.1885
  841HD       C 3362   6.312   3.065   0.549  0.0677  0.0756  0.0769
  841HD       C 3363   6.029   2.803   0.351  0.1437 -0.0672 -0.2078
  841HD       C 3364   5.897   2.322   0.324 -0.1028 -0.1158 -0.0984
  842HD       C 3365   2.206   0.180   0.331  0.2549  0.3166  0.1836
  842HD       C 3366   1.961  -0.167   0.139 -0.0774 -0.4435 -0.2860
  842HD       C 3367   2.160  -0.580   0.079 -0.0965  0.1317 -0.4690
  842HD       C 3368   2.446  -0.704  -0.115  0.2385  0.1595 -0.0026
  843HD       C 3369   7.620   2.994   3.034 -0.1741 -0.1398  0.2307
  843HD       C 3370   8.024   3.161   3.371 -0.3649 -0.0087 -0.1861
  843HD       C 3371   8.210   3.352   3.740 -0.2588  0.0698 -0.0952
  843HD       C 3372   8.504   3.389   4.129  0.0858  0.1154 -0.3826
  844HD       C 3373   1.995   2.575   3.531  0.0263  0.1758 -0.2266
  844HD       C 3374   2.343   2.563   3.342 -0.1718  0.1191  0.1478
  844HD       C 3375   2.673   2.544   3.105 -0.0169 -0.0968  0.0496
  844HD       C 3376   3.099   2.684   2.785 -0.0631  0.0353 -0.2065
  845HD       C 3377   0.796   5.804   2.799 -0.1832 -0.0918  0.0495
  845HD       C 3378   0.828   5.438   2.670 -0.1572  0.2065  0.0618
  845HD       C 3379   0.842   5.136   2.357  0.2649  0.0481 -0.0334
  845HD       C 3380   0.621   4.734   2.450  0.2885 -0.0346  0.0745
  846HD       C 3381   7.513   1.258   4.705  0.4069  0.0274  0.1723
  846HD       C 3382   7.375   1.573   4.463 -0.0023 -0.0598  0.1049
  846HD       C 3383   6.917   1.800   4.520  0.0517 -0.2501  0.1366
  846HD       C 3384   6.467   1.870   4.490  0.1464  0.0606  0.1078
  847HD       C 3385   1.476   4.098   2.474 -0.0657  0.0820  0.0273
  847HD       C 3386   1.590   4.515   2.628 -0.0499  0.0213  0.2258
  847HD       C 3387   1.513   4.962   2.679 -0.0505  0.7616 -0.0766
  847HD       C 3388   1.336   5.328   2.530  0.2332  0.0346 -0.0446
  848HD       C 3389   3.029   1.586   6.585 -0.0457  0.0990 -0.2711
  848HD       C 3390   2.771   2.015   6.842 -0.0399  0.1428  0.0335
  848HD       C 3391   2.913   2.139   7.242 -0.2627  0.0564 -0.4629
  848HD       C 3392   2.934   2.224   7.704  0.0333  0.1940 -0.1370
  849HD       C 3393   2.340   7.136   2.262 -0.3375  0.0593  0.2340
  849HD       C 3394   2.468   7.479   2.069 -0.1704 -0.1652  0.0444
  849HD       C 3395   2.839   7.857   2.058  0.2612 -0.0098 -0.0728
  849HD       C 3396   3.173   8.052   2.246  0.1843  0.0494 -0.4157
  850HD       C 3397   2.762   0.552   4.811  0.0424  0.0397 -0.0649
  850HD       C 3398   3.042   0.327   5.035  0.1546  0.0571  0.0190
  850HD       C 3399   3.365   0.296   5.356  0.0499 -0.0863 -0.1212
  850HD       C 3400   3.604   0.137   5.546  0.3678  0.0695 -0.3198
  851HD       C 3401   5.244   4.597   1.421  0.0122 -0.1365 -0.1879
  851HD       C 3402   4.954   4.345   1.646  0.0800  0.3646 -0.0158
  851HD       C 3403   4.846   4.505   2.031 -0.2817 -0.0614 -0.0056
  851HD       C 3404   4.478   4.599   2.246  0.2986 -0.4175  0.3325
  852HD       C 3405   4.684   6.344   3.195 -0.2373 -0.0182  0.1683
  852HD       C 3406   4.427   6.643   3.099  0.2295  0.2760 -0.1658
  852HD       C 3407   4.163   7.059   3.032  0.1081 -0.0101 -0.0951
  852HD       C 3408   4.109   7.442   3.303 -0.2956  0.1390 -0.0257
  853HD       C 3409   1.709   5.081   6.221 -0.2917 -0.0894 -0.1809
  853HD       C 3410   1.962   5.447   6.385  0.4987  0.2922  0.0624
  853HD       C 3411   2.004   5.655   6.804  0.0097  0.1937 -0.0646
  853HD       C 3412   1.932   5.581   7.215  0.1237  0.1569  0.1011
  854HD       C 3413   5.032   2.869   4.087  0.0496 -0.1015 -0.2109
  854HD       C 3414   5.365   2.587   3.972  0.1362  0.1401 -0.2534
  854HD       C 3415   5.700   2.588   3.746  0.0602 -0.0352 -0.2922
  854HD       C 3416   5.614   2.825   3.422  0.0113  0.0424  0.1705
  855HD       C 3417   2.439   1.173   2.896 -0.1397 -0.2694  0.2106
  855HD       C 3418   2.866   1.182   3.158  0.2430 -0.0168  0.1263
  855HD       C 3419   3.170   1.236   3.472  0.1262  0.0186 -0.2443
  855HD       C 3420   3.081   1.414   3.851 -0.1646  0.1810 -0.1937
  856HD       C 3421   6.581   2.763   1.369 -0.2574  0.0635 -0.1754
  856HD       C 3422   6.573   2.502   1.693  0.2195  0.2965 -0.2388
  856HD       C 3423   6.909   2.448   1.970  0.1044 -0.2508 -0.1710
  856HD       C 3424   6.877   2.596   2.396  0.1632 -0.1780  0.0296
  857HD       C 3425   5.287   7.032   3.762 -0.2213 -0.1305  0.0245
  857HD       C 3426   5.658   7.034   3.623 -0.1138 -0.0803 -0.0564
  857HD       C 3427   6.114   7.009   3.559  0.1443 -0.2199  0.0083
  857HD       C 3428   6.457   6.739   3.316 -0.0851  0.4154  0.0956
  858HD       C 3429   6.503   5.531   1.558  0.1291  0.0899  0.2048
  858HD       C 3430   6.852   5.696   1.820 -0.2422 -0.0285 -0.0847
  858HD       C 3431   6.976   5.411   2.116 -0.6041  0.1754 -0.1119
  858HD       C 3432   7.178   5.042   2.200 -0.1910 -0.2546  0.1667
  859HD       C 3433   5.776   6.732   5.442  0.1022 -0.0413  0.1556
  859HD       C 3434   5.339   6.671   5.591  0.2439  0.0910  0.2619
  859HD       C 3435   4.922   6.890   5.671 -0.0044  0.1068 -0.2118
  859HD       C 3436   4.710   7.230   5.945  0.2549 -0.2757  0.0459
  860HD       C 3437   0.189   4.861   1.096 -0.0286  0.0861 -0.1819
  860HD       C 3438  -0.181   4.877   1.008 -0.2681 -0.0708  0.3126
  860HD       C 3439  -0.398   4.922   0.639  0.1270  0.1207 -0.0959
  860HD       C 3440  -0.579   5.120   0.249 -0.2244 -0.1039  0.3183
  861HD       C 3441   5.783   5.769   2.033 -0.0822 -0.0873 -0.0494
  861HD       C 3442   6.030   5.584   1.730  0.0010  0.2954  0.1820
  861HD       C 3443   6.018   5.207   1.569 -0.0631  0.0261  0.2429
  861HD       C 3444   5.838   4.989   1.158  0.0195 -0.1304  0.2652
  862HD       C 3445   6.802   1.177   4.139  0.2482  0.0880  0.2318
  862HD       C 3446   6.579   1.591   4.075  0.0016  0.0952 -0.0124
  862HD       C 3447   6.159   1.932   4.105  0.1140 -0.2011  0.1296
  862HD       C 3448   5.968   2.204   3.859  0.1761 -0.0856  0.0139
  863HD       C 3449   5.162   5.538   6.836 -0.0047  0.1294 -0.1717
  863HD       C 3450   5.455   5.454   7.018  0.0674 -0.2212  0.0082
  863HD       C 3451   5.591   5.290   7.495  0.1572  0.0366  0.2094
  863HD       C 3452   5.771   4.910   7.785 -0.3105  0.0565 -0.0550
  864HD       C 3453   2.914   6.230   6.874 -0.0814 -0.2547 -0.0590
  864HD       C 3454   2.985   6.144   6.449  0.1407  0.0268  0.1019
  864HD       C 3455   3.203   6.392   6.091 -0.0114  0.1282 -0.4701
  864HD       C 3456   3.637   6.399   6.013  0.1997 -0.0748 -0.1011
  865HD       C 3457   2.998   1.886   2.693 -0.0051  0.2467 -0.0396
  865HD       C 3458   2.973   2.251   2.420 -0.1285  0.1232 -0.1330
  865HD       C 3459   2.964   2.318   1.929  0.2042  0.2225 -0.2832
  865HD       C 3460   3.154   2.075   1.605 -0.1632  0.0275  0.0008
  866HD       C 3461   6.828   4.835   1.736 -0.2442 -0.1922 -0.0437
  866HD       C 3462   6.618   4.575   1.380  0.1128  0.0200  0.2592
  866HD       C 3463   6.468   4.522   0.991 -0.0572  0.0957  0.0335
  866HD       C 3464   6.228   4.137   0.745 -0.0774  0.1649 -0.1013
  867HD       C 3465   2.993   2.995   1.480 -0.0006 -0.2756  0.0192
  867HD       C 3466   2.785   2.832   1.885  0.0597  0.1397 -0.2306
  867HD       C 3467   2.589   2.553   2.147 -0.1137  0.2783  0.2326
  867HD       C 3468   2.542   2.144   2.217 -0.2514 -0.0936 -0.0466
  868HD       C 3469   7.234   3.183   2.089  0.2385  0.0841  0.0764
  868HD       C 3470   6.974   3.098   1.857  0.1309 -0.2389  0.0723
  868HD       C 3471   6.775   3.224   1.387  0.0165  0.0709  0.0110
  868HD       C 3472   6.613   3.628   1.324 -0.1455  0.0379 -0.0465
  869HD       C 3473   5.612   5.938   4.989  0.2744  0.1294  0.1556
  869HD       C 3474   5.531   5.405   4.978 -0.1038  0.0004 -0.4188
  869HD       C 3475   5.457   4.968   5.010 -0.1289 -0.3215 -0.4213
  869HD       C 3476   5.431   4.546   4.824  0.0676 -0.2134  0.3600
  870HD       C 3477   4.327   6.944   6.643  0.0839  0.1813 -0.0536
  870HD       C 3478   4.764   7.048   6.431  0.0293 -0.0879 -0.1566
  870HD       C 3479   5.141   7.078   6.156 -0.2241 -0.1118  0.1275
  870HD       C 3480   5.506   7.019   5.887 -0.1821 -0.0701 -0.1474
  871HD       C 3481   0.159   2.387   4.476 -0.3056  0.1841 -0.0472
  871HD       C 3482   0.404   2.399   4.105 -0.3976 -0.0899 -0.1969
  871HD       C 3483   0.517   2.312   3.705  0.0036 -0.0990  0.0404
  871HD       C 3484   0.673   2.263   3.249  0.2342  0.0960 -0.3771
  872HD       C 3485   3.147   4.860   4.270 -0.2043  0.0621  0.2459
  872HD       C 3486   2.835   5.023   3.998 -0.0369  0.3225  0.0776
  872HD       C 3487   2.777   4.894   3.622 -0.1029 -0.0727  0.1605
  872HD       C 3488   2.509   5.094   3.266  0.3490  0.2023  0.0162
  873HD       C 3489   3.327   4.085   0.347  0.2173  0.0859  0.1528
  873HD       C 3490   3.671   4.323   0.361  0.1399  0.1595  0.1718
  873HD       C 3491   4.116   4.235   0.123 -0.1351  0.1532  0.2892
  873HD       C 3492   4.503   4.222  -0.049 -0.0387 -0.0219  0.0840
  874HD       C 3493   4.098   1.659   6.155 -0.0307 -0.0213 -0.1497
  874HD       C 3494   3.683   1.882   6.278 -0.1244 -0.0113 -0.0256
  874HD       C 3495   3.438   2.028   6.539  0.2442 -0.3441 -0.1834
  874HD       C 3496   3.245   2.081   6.833  0.0676 -0.0130 -0.2446
  875HD       C 3497   0.855   3.572   0.732 -0.1815  0.1895  0.0560
  875HD       C 3498   0.842   3.688   1.136  0.0865 -0.3228  0.1614
  875HD       C 3499   0.987   3.738   1.518  0.0878 -0.0640  0.0682
  875HD       C 3500   1.091   3.534   1.821  0.0636  0.1713 -0.0338
  876HD       C 3501   4.553   4.096   1.343 -0.0267 -0.1141 -0.0405
  876HD       C 3502   4.213   4.016   1.105 -0.1135 -0.3036 -0.2667
  876HD       C 3503   3.879   3.767   0.971 -0.0915  0.1698 -0.1158
  876HD       C 3504   3.594   3.464   0.753 -0.0962 -0.3319  0.0246
  877HD       C 3505   4.974   3.961   6.994 -0.1625  0.1247 -0.2322
  877HD       C 3506   5.069   4.160   6.653 -0.2431 -0.1976  0.4482
  877HD       C 3507   5.264   4.608   6.465  0.7082  0.0441 -0.1097
  877HD       C 3508   5.303   5.017   6.745 -0.2213 -0.2122  0.2097
  878HD       C 3509   5.788   5.151   2.686  0.0098  0.0469  0.1373
  878HD       C 3510   5.420   5.362   2.725 -0.0550  0.3112  0.0234
  878HD       C 3511   4.913   5.148   2.857 -0.0733 -0.0802  0.0428
  878HD       C 3512   4.777   4.674   2.911  0.0043 -0.0170 -0.0211
  879HD       C 3513   4.134   1.886   5.523  0.1597  0.0614 -0.1984
  879HD       C 3514   4.522   2.000   5.472  0.0746 -0.0435  0.2484
  879HD       C 3515   4.790   1.876   5.005 -0.4964 -0.2266 -0.2072
  879HD       C 3516   5.189   1.796   4.899  0.5304 -0.1056 -0.0741
  880HD       C 3517   2.975   4.908   7.097  0.1610  0.0174  0.2851
  880HD       C 3518   3.194   5.096   7.411 -0.1668  0.2033 -0.2081
  880HD       C 3519   3.342   5.230   7.829 -0.0165 -0.1506 -0.0080
  880HD       C 3520   3.639   5.189   8.194 -0.1442  0.1937  0.3219
  881HD       C 3521   0.803   5.597   0.999  0.0503 -0.1304  0.0170
  881HD       C 3522   1.146   5.409   1.051 -0.5029 -0.0520  0.1893
  881HD       C 3523   1.519   5.275   1.029 -0.0493  0.1003  0.0190
  881HD       C 3524   1.940   5.356   1.050 -0.0858 -0.5581 -0.1570
  882HD       C 3525   7.367   4.514   6.914  0.0639  0.0593 -0.0608
  882HD       C 3526   7.728   4.498   6.586  0.1995  0.2188 -0.1161
  882HD       C 3527   8.001   4.771   6.300  0.1536 -0.0742  0.2614
  882HD       C 3528   7.862   5.051   5.958 -0.0015 -0.0430  0.0666
  883HD       C 3529   4.442   0.363   1.162 -0.0400 -0.3838  0.1034
  883HD       C 3530   4.295   0.817   1.153 -0.2831  0.1306 -0.1350
  883HD       C 3531   3.958   1.116   1.218 -0.0541 -0.0715  0.0432
  883HD       C 3532   3.701   1.386   1.010  0.2671 -0.0813 -0.1786
  884HD       C 3533   1.907   1.206   0.683 -0.2108 -0.1221 -0.1225
  884HD       C 3534   1.747   1.316   0.336 -0.0280 -0.1923  0.2841
  884HD       C 3535   1.327   1.308   0.202 -0.1993  0.1097  0.5696
  884HD       C 3536   0.817   1.251   0.160  0.1974 -0.0760  0.1876
  885HD       C 3537   6.395   2.431   4.257 -0.2166 -0.0506 -0.1476
  885HD       C 3538   6.821   2.569   4.050  0.0820  0.2849  0.5813
  885HD       C 3539   7.009   2.807   3.656  0.0711  0.0729 -0.0685
  885HD       C 3540   6.976   3.031   3.338  0.1289 -0.0041 -0.1966
  886HD       C 3541   3.214   1.943   3.925  0.2672  0.0191  0.1293
  886HD       C 3542   3.483   2.292   4.157 -0.3115 -0.0015 -0.2437
  886HD       C 3543   3.418   2.719   4.071  0.1360  0.1826 -0.0568
  886HD       C 3544   3.543   3.133   4.106 -0.2799 -0.0499 -0.1223
  887HD       C 3545   2.202   0.238   3.602  0.0493  0.2121  0.2706
  887HD       C 3546   1.961   0.565   3.632  0.3452 -0.1688 -0.1720
  887HD       C 3547   1.678   0.743   3.342  0.1255 -0.2261 -0.2897
  887HD       C 3548   1.485   0.955   2.944  0.2047 -0.0137 -0.0953
  888HD       C 3549   3.670   3.052   5.814  0.0410 -0.2034  0.2196
  888HD       C 3550   3.698   3.439   6.032 -0.0771  0.0636 -0.3159
  888HD       C 3551   3.410   3.735   6.266  0.0174 -0.1953 -0.0965
  888HD       C 3552   3.063   3.477   6.450  0.0109 -0.2368  0.4262
  889HD       C 3553   3.496   4.432   2.499 -0.2450  0.1826  0.0970
  889HD       C 3554   3.106   4.721   2.433  0.1265  0.0972  0.2854
  889HD       C 3555   3.217   5.083   2.228 -0.0496 -0.3347  0.0728
  889HD       C 3556   3.450   5.446   2.202 -0.1251 -0.2479 -0.0322
  890HD       C 3557   0.236   1.515   0.983 -0.3917 -0.1853 -0.1246
  890HD       C 3558   0.546   1.326   1.024 -0.2360  0.0937 -0.0277
  890HD       C 3559   0.795   0.958   0.982 -0.1577  0.0052 -0.1121
  890HD       C 3560   1.029   0.641   1.233  0.4534 -0.0729  0.0006
  891HD       C 3561   6.403   0.483   2.300  0.2036  0.0927  0.3379
  891HD       C 3562   6.226   0.862   2.331 -0.1219 -0.2112 -0.0382
  891HD       C 3563   6.037   0.971   2.663 -0.0848  0.2441 -0.3392
  891HD       C 3564   5.714   1.207   2.874 -0.0639  0.1553 -0.0016
  892HD       C 3565   7.226   3.030   2.565 -0.1381  0.0184  0.1423
  892HD       C 3566   7.176   3.364   2.896 -0.1242  0.1428  0.2707
  892HD       C 3567   7.141   3.765   2.932  0.0312  0.1503  0.0611
  892HD       C 3568   7.250   4.138   3.189  0.0184  0.3258 -0.2195
  893HD       C 3569   6.659   1.054   1.763  0.3287 -0.1702  0.0989
  893HD       C 3570   6.272   0.671   1.852  0.0665 -0.0141 -0.2966
  893HD       C 3571   5.992   0.366   1.990  0.2613 -0.0033  0.0860
  893HD       C 3572   5.907  -0.083   2.085  0.2204  0.0693 -0.2264
  894HD       C 3573   0.886   2.399   1.721 -0.1485 -0.0900  0.0064
  894HD       C 3574   1.121   2.652   1.326  0.0217 -0.1262  0.0385
  894HD       C 3575   1.111   3.019   1.023  0.0421 -0.0021  0.0722
  894HD       C 3576   1.285   3.109   0.654 -0.1987 -0.0897  0.0301
  895HD       C 3577   4.558   0.202   2.601 -0.2823  0.2764  0.1672
  895HD       C 3578   4.298   0.354   2.861 -0.2509  0.2427  0.1027
  895HD       C 3579   4.209   0.643   3.105  0.0160 -0.0186 -0.0206
  895HD       C 3580   4.113   1.016   3.337 -0.2192  0.2055  0.0711
  896HD       C 3581   1.428   5.174   5.826 -0.0344  0.1244  0.1028
  896HD       C 3582   1.043   5.342   5.639  0.0208 -0.2742  0.0042
  896HD       C 3583   0.839   5.728   5.571  0.1662 -0.0848 -0.0737
  896HD       C 3584   1.070   6.097   5.703  0.1691 -0.1151  0.1265
  897HD       C 3585   1.369   6.045   3.386  0.0499  0.0597 -0.0011
  897HD       C 3586   1.755   6.276   3.603  0.1647 -0.1172 -0.3263
  897HD       C 3587   1.947   6.591   3.896  0.0780 -0.2149 -0.1928
  897HD       C 3588   2.250   6.775   4.267 -0.5097 -0.1631 -0.0989
  898HD       C 3589   3.775   5.633   3.447 -0.2042  0.0689 -0.1002
  898HD       C 3590   4.001   5.735   3.127 -0.3311 -0.1400 -0.0514
  898HD       C 3591   4.211   5.730   2.800  0.0270  0.1627 -0.0270
  898HD       C 3592   4.604   5.504   2.788  0.0527 -0.0348 -0.0045
  899HD       C 3593   0.451   3.343   5.353  0.0770  0.1258 -0.0443
  899HD       C 3594   0.536   3.126   4.987  0.1172  0.1029  0.2965
  899HD       C 3595   0.308   2.784   4.803 -0.3323  0.0396 -0.1750
  899HD       C 3596  -0.080   2.903   4.597 -0.0871 -0.2059 -0.2879
  900HD       C 3597   4.282   4.069   2.943  0.2062 -0.1302 -0.1475
  900HD       C 3598   4.220   3.778   3.361  0.1184  0.0973 -0.0825
  900HD       C 3599   4.397   3.344   3.466 -0.2767 -0.2266  0.2105
  900HD       C 3600   4.378   2.926   3.515  0.0932 -0.1293  0.0065
   7.65232   7.23868   7.23868
