Protein
 8502
    1OCT     C1    1   1.898   1.692   3.701  0.0427 -0.4091 -0.1042
    1OCT    H11    2   1.882   1.604   3.628  0.2543 -4.0311 -1.6822
    1OCT    H12    3   1.810   1.701   3.767 -0.7895 -1.3083 -0.5839
    1OCT    H13    4   1.911   1.793   3.649 -1.4999 -1.5181 -2.1973
    1OCT     C2    5   2.023   1.665   3.793  0.0321 -1.1125 -0.3697
    1OCT    H21    6   2.114   1.677   3.735 -0.0523  2.8021  1.3558
    1OCT    H22    7   2.030   1.751   3.861 -0.1358 -0.6525  2.1846
    1OCT     C3    8   2.012   1.539   3.869  0.5165  0.2797 -0.5353
    1OCT    H31    9   1.913   1.514   3.914 -0.7350 -0.5866  0.8117
    1OCT    H32   10   2.025   1.448   3.806 -0.2498 -2.0899 -1.4694
    1OCT     C4   11   2.118   1.527   3.984  0.0522  0.0806  0.0535
    1OCT    H41   12   2.123   1.620   4.047  0.2445  0.1127 -0.1205
    1OCT    H42   13   2.084   1.454   4.059 -0.8628 -0.3092  1.1002
    1OCT     C5   14   2.261   1.487   3.940 -0.9264 -0.3327 -0.0700
    1OCT    H51   15   2.240   1.418   3.853 -1.5345 -1.4957 -2.6394
    1OCT    H52   16   2.305   1.573   3.892 -1.4219  1.2702  2.3506
    1OCT     C6   17   2.365   1.424   4.040 -0.0713  0.2166  0.0841
    1OCT    H61   18   2.386   1.500   4.119 -0.0849 -1.4134  0.3426
    1OCT    H62   19   2.332   1.326   4.082 -0.1520 -1.1904 -1.0586
    1OCT     C7   20   2.507   1.388   3.976 -0.7159 -0.3163  0.1633
    1OCT    H71   21   2.554   1.481   3.953 -2.8974  1.8322  0.7940
    1OCT    H72   22   2.560   1.331   4.045 -2.4544  2.7017  0.7720
    1OCT     C8   23   2.489   1.290   3.851 -0.3196 -0.1670 -0.3629
    1OCT    H81   24   2.458   1.189   3.887 -0.1038 -2.6856  1.2521
    1OCT    H82   25   2.424   1.345   3.779 -1.7910  0.9892  2.2213
    1OCT    H83   26   2.587   1.277   3.800 -0.5623 -0.8299 -1.9683
    2OCT     C1   27   4.165   2.598   1.562  0.1696  0.5621  0.6293
    2OCT    H11   28   4.204   2.562   1.468 -0.0674  1.0607 -0.6028
    2OCT    H12   29   4.244   2.599   1.642 -0.8392  1.1776  1.1107
    2OCT    H13   30   4.082   2.533   1.589 -0.8503  0.8057 -1.1407
    2OCT     C2   31   4.111   2.745   1.549 -0.0016  0.4038  0.0943
    2OCT    H21   32   4.031   2.747   1.467 -2.6583 -2.1296 -0.8227
    2OCT    H22   33   4.057   2.769   1.648 -2.4199 -1.2424  0.8711
    2OCT     C3   34   4.231   2.849   1.524 -0.4539 -0.3159 -0.7294
    2OCT    H31   35   4.299   2.781   1.471 -0.3092 -1.7106 -0.3922
    2OCT    H32   36   4.201   2.929   1.459  0.0529  0.9081  0.7989
    2OCT     C4   37   4.280   2.907   1.658 -0.3398  0.0787 -0.4250
    2OCT    H41   38   4.275   2.836   1.742 -0.7232  3.1493  3.4717
    2OCT    H42   39   4.388   2.948   1.645  1.5836 -0.2598 -1.5919
    2OCT     C5   40   4.211   3.043   1.695 -0.1590  0.0804  0.3641
    2OCT    H51   41   4.223   3.111   1.603 -1.8391  0.2844 -1.7533
    2OCT    H52   42   4.101   3.034   1.716  1.3572  0.5977 -1.0307
    2OCT     C6   43   4.290   3.129   1.802 -0.3961  0.0283 -0.1953
    2OCT    H61   44   4.313   3.068   1.889 -1.1006  0.2248 -2.3348
    2OCT    H62   45   4.392   3.162   1.760 -1.6447  3.1973 -0.0322
    2OCT     C7   46   4.213   3.245   1.859  0.0189 -0.1892  0.2803
    2OCT    H71   47   4.108   3.211   1.883  2.5293 -1.4164  0.9927
    2OCT    H72   48   4.268   3.274   1.953 -0.2687  2.5487  0.3963
    2OCT     C8   49   4.210   3.363   1.764  0.4844  0.0960  0.7250
    2OCT    H81   50   4.171   3.332   1.662 -0.0273  0.6651  0.1632
    2OCT    H82   51   4.146   3.448   1.804  0.0162  1.2752  1.9516
    2OCT    H83   52   4.305   3.414   1.747  0.0233  3.0581  1.2078
    3OCT     C1   53   2.053   0.311   4.396 -0.3616  0.0667 -0.6315
    3OCT    H11   54   2.148   0.377   4.404  1.1429  0.5963  1.1369
    3OCT    H12   55   2.012   0.313   4.290 -1.0142  2.7794 -0.1232
    3OCT    H13   56   1.968   0.348   4.458 -0.1410 -1.1101  0.7326
    3OCT     C2   57   2.094   0.173   4.443  0.2751  0.2032 -0.0422
    3OCT    H21   58   2.164   0.135   4.365  1.7415  2.3867  1.9798
    3OCT    H22   59   2.143   0.187   4.535 -2.7084  0.7391 -1.9364
    3OCT     C3   60   1.983   0.073   4.469 -0.2736  0.0371 -0.0885
    3OCT    H31   61   1.898   0.119   4.521 -0.3369  0.2049 -1.6039
    3OCT    H32   62   1.949   0.049   4.369  1.5086 -0.0487  4.2123
    3OCT     C4   63   2.041  -0.061   4.535  0.7900 -0.3263 -0.6485
    3OCT    H41   64   2.090  -0.033   4.635 -1.2448 -0.6238  1.9542
    3OCT    H42   65   1.952  -0.130   4.562  0.0685  1.3129  0.2004
    3OCT     C5   66   2.125  -0.145   4.438 -0.1722 -0.1656 -0.5916
    3OCT    H51   67   2.065  -0.194   4.361  0.7282 -1.6553  1.3888
    3OCT    H52   68   2.209  -0.077   4.398 -2.0662  1.8502  0.4488
    3OCT     C6   69   2.204  -0.256   4.510  0.1328  0.0287 -0.0230
    3OCT    H61   70   2.260  -0.205   4.585 -0.5667  1.9516 -1.0725
    3OCT    H62   71   2.140  -0.329   4.572 -2.0352 -3.1840  2.2318
    3OCT     C7   72   2.307  -0.339   4.435  0.0650 -0.2295 -0.1367
    3OCT    H71   73   2.266  -0.343   4.335  2.0804 -1.3133  2.5135
    3OCT    H72   74   2.404  -0.280   4.431 -1.8698 -1.6164  1.3428
    3OCT     C8   75   2.329  -0.487   4.482  0.0680  0.4955  0.3907
    3OCT    H81   76   2.229  -0.537   4.479  1.0189  0.4961 -0.4893
    3OCT    H82   77   2.381  -0.548   4.401  0.3309  0.5406  1.0155
    3OCT    H83   78   2.380  -0.500   4.578 -1.0458  2.0951 -0.2840
    4OCT     C1   79   2.068   1.511   1.442  0.1216  0.2525  0.3381
    4OCT    H11   80   2.176   1.541   1.434 -0.5626  0.2822  1.2783
    4OCT    H12   81   2.015   1.601   1.491 -1.0021  0.3421 -0.4122
    4OCT    H13   82   2.055   1.425   1.504 -1.9657 -0.7301  0.3338
    4OCT     C2   83   1.995   1.476   1.309 -0.3927 -0.3993 -0.4161
    4OCT    H21   84   1.886   1.466   1.327  0.3160  0.4855  0.1350
    4OCT    H22   85   2.006   1.563   1.240 -1.1719 -1.9657  0.2226
    4OCT     C3   86   2.044   1.351   1.234 -0.9243 -0.9823  0.2841
    4OCT    H31   87   2.158   1.342   1.237  1.8798 -1.8407 -1.7182
    4OCT    H32   88   2.009   1.262   1.286 -1.0854 -1.1042 -1.2926
    4OCT     C4   89   2.013   1.341   1.084  0.4048 -0.6453  1.4373
    4OCT    H41   90   1.899   1.339   1.067 -2.2522 -2.1504 -1.6481
    4OCT    H42   91   2.029   1.443   1.031 -0.5653  0.3853  0.1597
    4OCT     C5   92   2.080   1.232   1.005 -0.3646 -0.5186 -0.4542
    4OCT    H51   93   2.176   1.278   1.001 -4.3540  1.5129 -0.2293
    4OCT    H52   94   2.102   1.139   1.059  1.1521  0.4629 -2.0339
    4OCT     C6   95   2.022   1.214   0.869  0.4058  0.8748  0.2837
    4OCT    H61   96   2.007   1.310   0.823 -1.9063  0.9902  3.4757
    4OCT    H62   97   2.097   1.159   0.817 -2.1290 -0.0299 -2.4302
    4OCT     C7   98   1.891   1.131   0.859 -0.2117  0.0790 -0.1732
    4OCT    H71   99   1.910   1.041   0.920 -3.4168 -1.6213  1.4278
    4OCT    H72  100   1.810   1.179   0.909 -0.6989 -0.2022 -2.0950
    4OCT     C8  101   1.858   1.084   0.715  0.8102 -0.4397 -0.2524
    4OCT    H81  102   1.930   1.010   0.673  0.4276 -0.5790  0.0116
    4OCT    H82  103   1.756   1.044   0.712 -0.6991 -1.8238  1.5006
    4OCT    H83  104   1.866   1.171   0.651  0.6681 -0.4752  4.9710
    5OCT     C1  105   1.025   3.687   4.067 -0.1083 -0.3150 -1.1387
    5OCT    H11  106   1.097   3.622   4.023 -1.6893 -0.3101  1.6582
    5OCT    H12  107   0.975   3.746   3.982 -2.0778 -0.0544 -3.4749
    5OCT    H13  108   1.086   3.757   4.135  0.9321  0.1282 -0.6730
    5OCT     C2  109   0.919   3.607   4.153  0.1135 -0.1443 -0.1311
    5OCT    H21  110   0.890   3.523   4.090  0.1493  2.0877 -1.7902
    5OCT    H22  111   0.969   3.569   4.238 -1.2994  1.4275 -2.1950
    5OCT     C3  112   0.805   3.699   4.186  0.3901  0.3890 -0.4412
    5OCT    H31  113   0.838   3.765   4.275  1.0966  3.4058 -0.5644
    5OCT    H32  114   0.780   3.770   4.100 -1.3668  0.9472  1.5212
    5OCT     C4  115   0.675   3.627   4.224 -0.3394  1.1223 -0.4970
    5OCT    H41  116   0.647   3.551   4.151 -0.6588  1.9971  1.3029
    5OCT    H42  117   0.697   3.572   4.319 -1.8354  1.2219  1.5723
    5OCT     C5  118   0.562   3.733   4.246 -0.5390  0.0547  0.5159
    5OCT    H51  119   0.605   3.806   4.325  1.0272 -0.6987  0.4559
    5OCT    H52  120   0.561   3.793   4.149 -0.4800 -1.7706 -1.6553
    5OCT     C6  121   0.414   3.681   4.254 -0.1100 -0.3145  0.1267
    5OCT    H61  122   0.343   3.770   4.271 -0.2184  2.1277  1.2677
    5OCT    H62  123   0.386   3.623   4.163 -0.3357 -1.1802  0.3321
    5OCT     C7  124   0.389   3.583   4.369 -0.3856  0.5250 -0.0823
    5OCT    H71  125   0.450   3.489   4.351 -0.5940 -1.7887  1.7537
    5OCT    H72  126   0.426   3.626   4.466 -0.7612 -0.6478  0.0401
    5OCT     C8  127   0.240   3.534   4.373 -1.0607 -0.1529 -1.0450
    5OCT    H81  128   0.232   3.448   4.442 -1.1937  2.1438 -1.3911
    5OCT    H82  129   0.179   3.610   4.414  0.7583 -2.6824  1.1145
    5OCT    H83  130   0.210   3.500   4.279 -2.0482 -0.1580  2.7344
    6OCT     C1  131   2.410   0.526   1.772 -0.5716  0.3485  0.4872
    6OCT    H11  132   2.458   0.538   1.873  1.1982  2.6370  0.8600
    6OCT    H12  133   2.446   0.603   1.708  1.0005 -1.7174  1.5912
    6OCT    H13  134   2.305   0.542   1.772  3.8427 -0.2029 -0.5436
    6OCT     C2  135   2.440   0.384   1.712  0.2704 -0.7864 -0.1388
    6OCT    H21  136   2.417   0.392   1.605  0.6948 -0.2164  1.3832
    6OCT    H22  137   2.546   0.352   1.724 -0.8383  1.8067  0.1954
    6OCT     C3  138   2.345   0.280   1.770  0.7340  0.3328 -0.7657
    6OCT    H31  139   2.351   0.278   1.882 -0.2318 -1.3910  1.6545
    6OCT    H32  140   2.238   0.296   1.743 -1.3483  0.4836 -1.5373
    6OCT     C4  141   2.369   0.132   1.720  0.9218  0.0176 -0.1673
    6OCT    H41  142   2.377   0.119   1.606 -1.6877 -0.1630 -4.8100
    6OCT    H42  143   2.464   0.104   1.766  0.3867  0.8383 -0.6197
    6OCT     C5  144   2.268   0.034   1.768 -0.3852 -0.0325 -0.2074
    6OCT    H51  145   2.247   0.062   1.878  1.6128 -0.1335  0.9083
    6OCT    H52  146   2.162   0.054   1.715 -1.7343 -1.4973  1.5433
    6OCT     C6  147   2.300  -0.112   1.747  0.0040  0.2582  0.3502
    6OCT    H61  148   2.289  -0.123   1.638 -2.8204 -0.0990  0.6445
    6OCT    H62  149   2.400  -0.149   1.771 -1.1075 -0.8618 -0.3381
    6OCT     C7  150   2.194  -0.203   1.807  0.5744  0.6945 -0.1921
    6OCT    H71  151   2.198  -0.189   1.920 -1.5288 -2.2233  1.0078
    6OCT    H72  152   2.093  -0.171   1.778 -0.3176  0.7223 -1.4248
    6OCT     C8  153   2.203  -0.353   1.782  0.4140 -0.6794  0.0532
    6OCT    H81  154   2.118  -0.409   1.829  2.4118 -1.1968  1.1866
    6OCT    H82  155   2.199  -0.381   1.678 -0.7326  0.5602  0.1258
    6OCT    H83  156   2.293  -0.393   1.829 -2.0278  2.1821 -1.3114
    7OCT     C1  157   1.247   1.695   0.078  0.3021  0.4684  0.9518
    7OCT    H11  158   1.146   1.716   0.125 -4.2722  0.4336  0.6536
    7OCT    H12  159   1.228   1.663  -0.027  3.0538 -2.3738  0.5350
    7OCT    H13  160   1.299   1.615   0.135 -2.5033 -1.1074  0.1984
    7OCT     C2  161   1.329   1.817   0.080  0.2670 -1.0345  0.1502
    7OCT    H21  162   1.436   1.811   0.045 -1.4603  0.7861 -0.7277
    7OCT    H22  163   1.292   1.908   0.021 -2.1291  0.3923 -0.2834
    7OCT     C3  164   1.352   1.868   0.223  0.3581 -0.2542 -0.4052
    7OCT    H31  165   1.253   1.892   0.264  2.2358 -0.2164 -3.6896
    7OCT    H32  166   1.386   1.782   0.277 -0.1223  0.6715  0.1443
    7OCT     C4  167   1.457   1.982   0.252  0.3649  0.5616 -0.4693
    7OCT    H41  168   1.485   1.963   0.353 -0.4689  2.7195  1.5980
    7OCT    H42  169   1.540   1.959   0.179  0.8683 -2.4242 -0.7493
    7OCT     C5  170   1.407   2.120   0.225 -0.1058 -0.0425 -0.0921
    7OCT    H51  171   1.370   2.125   0.123  0.5458  0.2178  0.0151
    7OCT    H52  172   1.327   2.166   0.302 -3.8489 -0.5835  4.1634
    7OCT     C6  173   1.534   2.221   0.216  0.2623  0.3102 -0.4883
    7OCT    H61  174   1.615   2.167   0.155  1.9383 -0.5100 -0.6223
    7OCT    H62  175   1.503   2.298   0.140 -1.3655 -4.1958 -1.1866
    7OCT     C7  176   1.579   2.289   0.348  0.0215  0.1192 -0.4540
    7OCT    H71  177   1.498   2.341   0.409  2.6823  1.0685  0.3879
    7OCT    H72  178   1.628   2.211   0.424  1.3851 -1.1331 -0.4528
    7OCT     C8  179   1.689   2.396   0.314  0.6100  0.3316 -0.1061
    7OCT    H81  180   1.638   2.487   0.274 -2.1437 -0.6958 -0.6865
    7OCT    H82  181   1.750   2.422   0.396  0.0330  1.6911  1.2893
    7OCT    H83  182   1.757   2.363   0.230  0.9798  1.8211  1.4203
    8OCT     C1  183   3.258   4.088   3.383  0.6070 -0.2200 -0.4663
    8OCT    H11  184   3.235   4.180   3.444  2.3085  0.1561 -0.7686
    8OCT    H12  185   3.207   4.098   3.288 -0.9663  0.5504  3.0082
    8OCT    H13  186   3.212   4.000   3.436 -0.7124 -0.4137  0.7684
    8OCT     C2  187   3.402   4.057   3.363 -0.4805 -0.6286 -0.0193
    8OCT    H21  188   3.415   3.954   3.328  0.9276  2.1479 -3.1776
    8OCT    H22  189   3.457   4.132   3.305 -0.2613 -0.4104  0.8798
    8OCT     C3  190   3.475   4.052   3.498 -1.4705 -0.4969  0.1641
    8OCT    H31  191   3.485   4.152   3.539  3.0825 -1.1973 -1.9289
    8OCT    H32  192   3.425   3.971   3.558  0.9252  3.3347  0.7112
    8OCT     C4  193   3.627   4.010   3.497  0.1552 -0.1020 -0.1150
    8OCT    H41  194   3.644   3.905   3.461  0.5390 -2.9119 -2.3651
    8OCT    H42  195   3.687   4.076   3.428  0.6090 -1.3663  1.4530
    8OCT     C5  196   3.700   4.034   3.636  0.0183  0.8884 -0.5084
    8OCT    H51  197   3.701   4.142   3.655 -1.2491 -0.2014 -2.0706
    8OCT    H52  198   3.638   3.974   3.706  1.0153  1.7667 -1.8451
    8OCT     C6  199   3.847   3.989   3.639 -0.0008  0.1317  0.8419
    8OCT    H61  200   3.842   3.882   3.617 -1.8021  1.1348  0.5592
    8OCT    H62  201   3.896   4.037   3.548 -1.3350 -2.9147 -2.8332
    8OCT     C7  202   3.914   4.025   3.779 -0.3291 -0.5763  1.3473
    8OCT    H71  203   3.943   4.135   3.786  0.4317 -1.7241  1.0033
    8OCT    H72  204   3.837   3.991   3.849  1.2916 -1.9262  0.1590
    8OCT     C8  205   4.043   3.954   3.805 -0.5398  0.5852  0.5348
    8OCT    H81  206   4.022   3.840   3.807  0.0007  0.8099 -2.0658
    8OCT    H82  207   4.112   3.980   3.713 -0.4090 -0.7028 -1.3630
    8OCT    H83  208   4.092   3.982   3.894 -3.3819 -0.5833 -1.5936
    9OCT     C1  209   0.596   3.155   0.347  0.4020  0.1862 -0.2653
    9OCT    H11  210   0.500   3.120   0.394  1.3164  0.5936  0.9079
    9OCT    H12  211   0.668   3.075   0.363 -1.2497 -0.5455 -0.6411
    9OCT    H13  212   0.634   3.238   0.403 -2.0425 -2.8473 -0.7151
    9OCT     C2  213   0.582   3.195   0.198  0.7083  0.1251 -0.0978
    9OCT    H21  214   0.526   3.123   0.144 -0.5375  0.0585  0.3382
    9OCT    H22  215   0.523   3.286   0.202  0.6374 -0.8098 -0.2365
    9OCT     C3  216   0.717   3.216   0.125 -0.0955 -0.6003 -0.0259
    9OCT    H31  217   0.764   3.319   0.151  2.0842  0.1790 -1.0573
    9OCT    H32  218   0.777   3.131   0.152 -1.4182  2.9917 -0.9940
    9OCT     C4  219   0.693   3.237  -0.022  0.2940  0.1739  0.4902
    9OCT    H41  220   0.611   3.161  -0.064 -2.1037  3.9694  0.7052
    9OCT    H42  221   0.649   3.333  -0.027  2.4633 -4.0221  0.0465
    9OCT     C5  222   0.812   3.215  -0.106  0.4097  0.4491  0.8335
    9OCT    H51  223   0.902   3.280  -0.083  0.6545  2.7895 -2.9620
    9OCT    H52  224   0.830   3.107  -0.101 -1.5334 -0.3868  0.7413
    9OCT     C6  225   0.789   3.226  -0.261 -0.2447  0.2201  0.0834
    9OCT    H61  226   0.695   3.179  -0.287 -1.6416 -1.6535  0.2342
    9OCT    H62  227   0.800   3.336  -0.277  0.2877 -0.2442  1.4694
    9OCT     C7  228   0.880   3.150  -0.354 -0.3107  0.1007  0.3270
    9OCT    H71  229   0.863   3.038  -0.343  0.7724 -2.5292  2.0761
    9OCT    H72  230   0.857   3.179  -0.456 -2.7993 -0.0866  1.4420
    9OCT     C8  231   1.030   3.170  -0.312 -0.1522  0.0742 -0.2900
    9OCT    H81  232   1.077   3.260  -0.352 -0.0452 -0.5006 -3.6134
    9OCT    H82  233   1.032   3.167  -0.196  1.6730 -2.0666  3.4527
    9OCT    H83  234   1.093   3.087  -0.357  0.9019  0.6299 -0.5444
   10OCT     C1  235   2.838   2.330   4.303  0.1468  1.0547  0.3578
   10OCT    H11  236   2.838   2.381   4.207  2.6731  0.4166  2.9851
   10OCT    H12  237   2.739   2.349   4.354 -2.2183  2.3185  3.4188
   10OCT    H13  238   2.914   2.369   4.374  0.5257  0.6452  2.3924
   10OCT     C2  239   2.856   2.181   4.271  0.4401  0.2698 -0.4102
   10OCT    H21  240   2.948   2.170   4.220 -1.4178  2.8500 -2.3410
   10OCT    H22  241   2.854   2.127   4.372 -0.7286 -1.0033 -0.9262
   10OCT     C3  242   2.742   2.121   4.191  0.1536 -0.4897 -0.2263
   10OCT    H31  243   2.643   2.152   4.241 -0.6453  2.0033  0.1306
   10OCT    H32  244   2.742   2.181   4.097 -4.6500  0.7531 -0.5567
   10OCT     C4  245   2.743   1.970   4.151 -0.4254 -0.1755 -0.1040
   10OCT    H41  246   2.645   1.946   4.102 -0.7528  0.2514 -0.3912
   10OCT    H42  247   2.833   1.951   4.087 -2.2902 -1.7025 -0.2369
   10OCT     C5  248   2.759   1.867   4.268  0.0474  0.8858 -0.3287
   10OCT    H51  249   2.864   1.869   4.305 -1.4471 -0.9281  0.4531
   10OCT    H52  250   2.689   1.887   4.357 -1.8668 -0.2454  0.6654
   10OCT     C6  251   2.736   1.722   4.220 -0.3300 -0.2184 -0.6203
   10OCT    H61  252   2.635   1.708   4.173  0.7199 -0.4437 -0.0689
   10OCT    H62  253   2.814   1.685   4.141  2.1079 -2.2449  1.1383
   10OCT     C7  254   2.739   1.621   4.333  0.3327 -0.5890 -0.3641
   10OCT    H71  255   2.839   1.628   4.385 -0.7589  2.6386  0.5150
   10OCT    H72  256   2.659   1.654   4.415 -1.8073  2.1132  1.2450
   10OCT     C8  257   2.717   1.475   4.292  0.4760  0.1495 -0.3976
   10OCT    H81  258   2.809   1.440   4.242 -2.4574 -1.1095  0.0498
   10OCT    H82  259   2.718   1.408   4.377  2.4296  1.1494 -0.3140
   10OCT    H83  260   2.640   1.457   4.220  0.4754  2.9089 -0.1498
   11OCT     C1  261   4.216   0.190   2.115  0.3858  0.3390 -0.6779
   11OCT    H11  262   4.157   0.270   2.157  2.8515 -2.2284 -0.6508
   11OCT    H12  263   4.151   0.102   2.118 -0.1542  0.1510  0.5965
   11OCT    H13  264   4.309   0.186   2.177  2.9371 -0.7787 -0.3758
   11OCT     C2  265   4.256   0.227   1.975  0.5923  1.0939  0.0065
   11OCT    H21  266   4.295   0.137   1.926 -1.4394  1.5480 -2.3749
   11OCT    H22  267   4.167   0.264   1.919 -1.4530 -0.3539 -0.4008
   11OCT     C3  268   4.359   0.339   1.972 -0.6516  0.3261 -0.0720
   11OCT    H31  269   4.334   0.417   2.040  1.5213 -0.9569 -1.1135
   11OCT    H32  270   4.458   0.302   2.011  1.2457 -0.5797 -0.3292
   11OCT     C4  271   4.372   0.391   1.830  0.1414 -0.4441  0.0408
   11OCT    H41  272   4.394   0.320   1.750 -0.2637  3.0150 -3.4212
   11OCT    H42  273   4.275   0.428   1.802  3.1534 -1.7713  0.8886
   11OCT     C5  274   4.456   0.519   1.814 -0.3544  0.5967  0.0885
   11OCT    H51  275   4.427   0.596   1.883  0.1111  0.1227  0.3105
   11OCT    H52  276   4.563   0.496   1.838 -0.5260 -1.0050  0.2372
   11OCT     C6  277   4.445   0.575   1.673  0.4616 -0.0306 -0.2467
   11OCT    H61  278   4.486   0.494   1.607 -0.5441 -0.2680  3.4376
   11OCT    H62  279   4.342   0.593   1.644  0.9697  2.2405 -3.2864
   11OCT     C7  280   4.539   0.691   1.647  0.2786 -0.3203  0.0689
   11OCT    H71  281   4.499   0.780   1.707  1.4783  1.7971 -0.3428
   11OCT    H72  282   4.644   0.666   1.687  0.6718  0.0242 -0.8259
   11OCT     C8  283   4.563   0.718   1.494  0.6242 -0.0868 -0.5648
   11OCT    H81  284   4.674   0.721   1.474  0.8636 -0.4189 -0.8292
   11OCT    H82  285   4.519   0.632   1.436 -0.7192 -0.1050 -0.7897
   11OCT    H83  286   4.500   0.801   1.450 -1.3975  0.0502 -1.3926
   12OCT     C1  287   4.195   3.453   2.204  0.1665  0.2295  0.3209
   12OCT    H11  288   4.182   3.446   2.317  0.2881  1.3886 -0.3992
   12OCT    H12  289   4.161   3.353   2.169  1.0068 -0.2176 -0.5040
   12OCT    H13  290   4.303   3.467   2.176  0.3222  0.1872  0.9288
   12OCT     C2  291   4.114   3.571   2.144 -0.4279 -0.0865 -0.6553
   12OCT    H21  292   4.111   3.567   2.032 -3.0535 -1.0116 -0.7433
   12OCT    H22  293   4.008   3.555   2.169 -0.0427  0.6386 -1.4285
   12OCT     C3  294   4.148   3.709   2.208 -0.4203  0.0546  0.8224
   12OCT    H31  295   4.131   3.695   2.316 -2.3364 -0.2594  0.5277
   12OCT    H32  296   4.252   3.745   2.185 -0.0950 -0.2517 -0.3277
   12OCT     C4  297   4.064   3.811   2.137  0.2180  0.6318 -0.5408
   12OCT    H41  298   4.068   3.812   2.031 -0.6843  3.4657 -0.3767
   12OCT    H42  299   3.955   3.783   2.153  1.5269 -0.5315 -2.3263
   12OCT     C5  300   4.092   3.960   2.169  0.1055  0.0187  0.0719
   12OCT    H51  301   4.006   4.020   2.128  2.1244  0.7022 -1.1515
   12OCT    H52  302   4.090   3.974   2.274  1.2363 -0.4720 -1.5386
   12OCT     C6  303   4.222   4.028   2.122  0.8443 -0.8376 -0.2366
   12OCT    H61  304   4.304   3.954   2.141 -0.2540 -0.2105 -1.1535
   12OCT    H62  305   4.224   4.037   2.012  0.7187 -0.3497 -1.2599
   12OCT     C7  306   4.246   4.161   2.188  0.3839  0.1814  0.1613
   12OCT    H71  307   4.185   4.234   2.143  3.2381 -0.3626  3.8196
   12OCT    H72  308   4.226   4.154   2.296  0.5323  0.0988  0.2971
   12OCT     C8  309   4.394   4.207   2.176  0.2684  0.5644  0.1197
   12OCT    H81  310   4.463   4.151   2.246  2.2040  0.3616 -0.1274
   12OCT    H82  311   4.416   4.201   2.066 -1.1719  0.2708 -0.3833
   12OCT    H83  312   4.400   4.309   2.206 -0.3126 -2.7593 -1.1220
   13OCT     C1  313   0.050   3.539   0.844  0.2538  0.5183  0.8120
   13OCT    H11  314   0.063   3.570   0.737 -2.5963  0.5030  0.5410
   13OCT    H12  315   0.090   3.625   0.906  0.0516  2.4978 -0.0763
   13OCT    H13  316   0.116   3.450   0.868  2.0706  1.0166  3.0234
   13OCT     C2  317  -0.097   3.511   0.877  0.3802 -0.8074 -0.0452
   13OCT    H21  318  -0.139   3.429   0.816 -1.2940 -0.8947  0.2283
   13OCT    H22  319  -0.095   3.477   0.982  0.7060  1.4937  1.3982
   13OCT     C3  320  -0.193   3.637   0.856 -0.2588  0.6052 -0.4108
   13OCT    H31  321  -0.291   3.620   0.906  1.2320  0.1682 -1.9157
   13OCT    H32  322  -0.151   3.720   0.906 -1.6440 -3.6764  0.7739
   13OCT     C4  323  -0.215   3.669   0.708  0.3096 -0.8247  0.5945
   13OCT    H41  324  -0.125   3.678   0.653  0.3731 -1.3234  3.0164
   13OCT    H42  325  -0.267   3.588   0.658  2.5988  1.9571  0.2411
   13OCT     C5  326  -0.314   3.793   0.695  0.3345 -0.1572 -0.3647
   13OCT    H51  327  -0.395   3.775   0.765  0.5839 -0.9416  1.4075
   13OCT    H52  328  -0.254   3.879   0.724  0.0672 -2.3454 -0.7594
   13OCT     C6  329  -0.362   3.812   0.552  0.5052 -0.0931  0.1443
   13OCT    H61  330  -0.268   3.808   0.489  1.2903  1.1300  1.1081
   13OCT    H62  331  -0.439   3.732   0.516 -0.7013 -0.7278 -1.1999
   13OCT     C7  332  -0.411   3.955   0.523 -0.2801  0.4527  1.1842
   13OCT    H71  333  -0.331   4.026   0.561  0.6079  2.1434  0.7600
   13OCT    H72  334  -0.413   3.959   0.414  0.2449 -1.3436  1.6233
   13OCT     C8  335  -0.544   3.982   0.590 -0.7467 -0.2862  0.6339
   13OCT    H81  336  -0.527   3.971   0.697  3.6555  0.5259 -2.2375
   13OCT    H82  337  -0.586   4.074   0.549 -1.8556 -1.8176 -3.8826
   13OCT    H83  338  -0.624   3.915   0.563  1.2359  1.6108 -0.3551
   14OCT     C1  339   4.324   2.190   1.188  0.3758 -0.2676  0.1417
   14OCT    H11  340   4.252   2.272   1.221 -0.6314  1.4926  0.5087
   14OCT    H12  341   4.377   2.144   1.272  1.4920 -0.2419  0.1577
   14OCT    H13  342   4.408   2.233   1.130  0.3702 -1.0272  1.2772
   14OCT     C2  343   4.246   2.105   1.089 -0.6124  1.2470  0.4302
   14OCT    H21  344   4.321   2.035   1.057 -0.1162  1.6602 -0.2116
   14OCT    H22  345   4.168   2.043   1.140  1.4784  0.7403  3.5844
   14OCT     C3  346   4.185   2.171   0.971 -0.0887 -0.1959 -0.1960
   14OCT    H31  347   4.145   2.090   0.904 -0.5183 -1.8842 -0.2795
   14OCT    H32  348   4.111   2.247   1.000 -0.3348 -0.0180  3.0411
   14OCT     C4  349   4.289   2.247   0.886  0.1540 -0.0319  0.4340
   14OCT    H41  350   4.298   2.345   0.943  0.3737  1.9145  1.1586
   14OCT    H42  351   4.390   2.194   0.897  2.4780  2.2250  0.8218
   14OCT     C5  352   4.238   2.282   0.746  0.0404  0.2303  0.2727
   14OCT    H51  353   4.231   2.186   0.704  2.8091 -1.9037  1.7070
   14OCT    H52  354   4.142   2.325   0.759  0.7529 -1.3489  0.0861
   14OCT     C6  355   4.330   2.370   0.666 -0.1158 -0.4915  0.3791
   14OCT    H61  356   4.437   2.344   0.683 -1.7345 -3.3799  1.0138
   14OCT    H62  357   4.302   2.351   0.559 -2.8520 -0.3094  0.7982
   14OCT     C7  358   4.305   2.523   0.682 -0.2616  0.9144 -0.0248
   14OCT    H71  359   4.197   2.540   0.648  0.8830 -0.2942 -1.2499
   14OCT    H72  360   4.298   2.552   0.789 -0.1032  0.8736 -2.2693
   14OCT     C8  361   4.401   2.605   0.608  0.9029  0.7844  0.3083
   14OCT    H81  362   4.413   2.569   0.506  0.3762  1.9872  2.4717
   14OCT    H82  363   4.359   2.706   0.593  0.0156  1.1129  1.1884
   14OCT    H83  364   4.496   2.606   0.661  1.1236  0.3602 -0.8212
   15OCT     C1  365   1.773   2.084   3.772 -0.0541 -0.3937 -0.3329
   15OCT    H11  366   1.833   2.018   3.695  2.7918  0.4983 -0.5841
   15OCT    H12  367   1.690   2.040   3.826  1.3037  0.2570 -2.9333
   15OCT    H13  368   1.731   2.160   3.707 -0.2600 -0.8646 -1.0237
   15OCT     C2  369   1.870   2.155   3.872  0.0229 -0.1060 -0.1340
   15OCT    H21  370   1.814   2.225   3.933 -0.5739 -0.1049 -1.2954
   15OCT    H22  371   1.921   2.071   3.931  3.2607 -1.3301 -0.5842
   15OCT     C3  372   1.984   2.227   3.804 -0.1193  0.2375 -0.5045
   15OCT    H31  373   2.075   2.228   3.876 -1.1042 -0.0858  1.6378
   15OCT    H32  374   2.004   2.174   3.715 -2.3666  3.7757  1.2763
   15OCT     C4  375   1.965   2.372   3.774 -0.8652 -0.1807 -1.1855
   15OCT    H41  376   1.876   2.390   3.718  3.1317  0.7936  0.1299
   15OCT    H42  377   1.956   2.431   3.873  0.6553  4.0302 -1.5138
   15OCT     C5  378   2.072   2.439   3.684 -0.3047 -0.8261  0.3339
   15OCT    H51  379   2.172   2.452   3.731 -0.1291  0.1132  0.6261
   15OCT    H52  380   2.087   2.363   3.606 -0.9422 -1.4254  2.7649
   15OCT     C6  381   2.013   2.577   3.628  0.3167  0.0637 -0.1038
   15OCT    H61  382   1.917   2.559   3.578  2.4964 -0.3835  2.6497
   15OCT    H62  383   1.977   2.626   3.721 -3.3438 -1.2576 -1.1796
   15OCT     C7  384   2.105   2.649   3.540 -0.6894 -0.6520 -0.0286
   15OCT    H71  385   2.044   2.727   3.497  0.0299 -1.3780 -0.6181
   15OCT    H72  386   2.187   2.693   3.604  0.1493  1.1972 -0.1691
   15OCT     C8  387   2.177   2.567   3.432  0.1330  0.1548 -0.4722
   15OCT    H81  388   2.092   2.507   3.380  1.2707 -1.2617 -1.6741
   15OCT    H82  389   2.214   2.642   3.358 -0.6898  0.6776  0.2441
   15OCT    H83  390   2.261   2.505   3.469  4.0687  0.7876 -3.4335
   16OCT     C1  391   1.414   4.033   0.951 -0.2096  0.5131 -0.6000
   16OCT    H11  392   1.454   3.973   0.866 -0.6834  1.5812 -0.1612
   16OCT    H12  393   1.353   3.976   1.016  2.9502  0.4588  1.7662
   16OCT    H13  394   1.356   4.108   0.905  0.9708 -0.2603  0.5016
   16OCT     C2  395   1.527   4.094   1.029  0.0316 -0.1883  0.7752
   16OCT    H21  396   1.489   4.177   1.092  1.5353 -0.5614  0.2280
   16OCT    H22  397   1.593   4.027   1.084 -1.1569 -0.3242 -0.4642
   16OCT     C3  398   1.623   4.175   0.931 -0.5201  0.4317 -0.3870
   16OCT    H31  399   1.709   4.219   1.001  1.2971  1.7197  1.3351
   16OCT    H32  400   1.667   4.092   0.861  1.0657 -4.3383 -2.2272
   16OCT     C4  401   1.556   4.280   0.846 -0.1229 -0.5960 -0.1480
   16OCT    H41  402   1.488   4.227   0.779  0.5038 -1.6029 -0.9112
   16OCT    H42  403   1.489   4.341   0.914 -1.9346  0.0657  1.7088
   16OCT     C5  404   1.654   4.368   0.765 -0.0482  0.3016  0.1476
   16OCT    H51  405   1.695   4.304   0.680 -0.5110 -0.3306 -0.3466
   16OCT    H52  406   1.597   4.451   0.719  0.7862 -1.5555  0.1151
   16OCT     C6  407   1.769   4.425   0.848 -0.3150 -0.0961  0.8813
   16OCT    H61  408   1.725   4.469   0.939  0.2052 -0.6742 -1.0941
   16OCT    H62  409   1.846   4.349   0.882  1.3702 -0.5665 -0.8134
   16OCT     C7  410   1.831   4.539   0.766 -0.4322 -0.2801  0.4240
   16OCT    H71  411   1.861   4.505   0.661  2.4892  0.9218 -1.9561
   16OCT    H72  412   1.762   4.620   0.749 -0.0751  0.3960  0.2231
   16OCT     C8  413   1.967   4.589   0.816 -0.1925  0.3883 -0.0544
   16OCT    H81  414   1.992   4.683   0.770 -1.0006 -0.7276 -0.1216
   16OCT    H82  415   1.971   4.607   0.927 -3.8581  0.9472 -1.2528
   16OCT    H83  416   2.043   4.509   0.785 -0.3278  0.7590  1.1344
   17OCT     C1  417   0.689   3.890   2.482 -0.6882  0.0457 -0.7756
   17OCT    H11  418   0.725   3.984   2.465  0.3116 -4.3011 -1.1550
   17OCT    H12  419   0.717   3.833   2.394 -2.7814  1.1985 -1.1053
   17OCT    H13  420   0.583   3.880   2.489  0.8920 -1.1327 -0.1482
   17OCT     C2  421   0.756   3.839   2.616  0.1483  0.3543 -0.4704
   17OCT    H21  422   0.860   3.792   2.593 -1.3111 -1.9076 -2.6416
   17OCT    H22  423   0.773   3.910   2.700  2.1581 -0.0120  2.1854
   17OCT     C3  424   0.675   3.715   2.667  0.1498 -0.5529  0.4628
   17OCT    H31  425   0.569   3.725   2.672  2.1424 -2.6888  2.7273
   17OCT    H32  426   0.684   3.634   2.594 -2.5647  1.9888  0.0787
   17OCT     C4  427   0.730   3.671   2.806 -0.0137  1.1300  0.1187
   17OCT    H41  428   0.834   3.658   2.791 -0.9711  1.7532  0.7449
   17OCT    H42  429   0.713   3.749   2.886  1.8887  0.2634  2.7257
   17OCT     C5  430   0.660   3.534   2.831 -0.3165  0.2304  0.1298
   17OCT    H51  431   0.689   3.466   2.745  1.8656  2.5666 -2.0570
   17OCT    H52  432   0.718   3.497   2.922  3.3858  1.9144  0.3417
   17OCT     C6  433   0.512   3.525   2.863  0.3773  0.7515  0.6494
   17OCT    H61  434   0.476   3.608   2.930 -0.8078  1.7234 -0.5927
   17OCT    H62  435   0.452   3.540   2.772 -0.3937 -0.6489 -0.9307
   17OCT     C7  436   0.468   3.390   2.927  0.0846  0.2534  0.2439
   17OCT    H71  437   0.504   3.307   2.867  1.4214 -0.0033  0.1075
   17OCT    H72  438   0.525   3.380   3.027  2.7382  0.2862  2.0126
   17OCT     C8  439   0.316   3.375   2.944 -0.9730 -0.3756 -0.9288
   17OCT    H81  440   0.291   3.292   3.013  0.1821 -0.3194 -0.9538
   17OCT    H82  441   0.278   3.470   2.987  0.6308  1.0139  0.8139
   17OCT    H83  442   0.270   3.362   2.843  0.0438 -2.7913  2.1178
   18OCT     C1  443   3.148   1.846   1.742  0.2122 -0.6611 -0.1064
   18OCT    H11  444   3.216   1.812   1.817 -0.4777 -0.1935 -2.1898
   18OCT    H12  445   3.067   1.908   1.799 -2.2753  1.4560  0.3370
   18OCT    H13  446   3.115   1.753   1.691 -1.7495 -1.7301  0.9541
   18OCT     C2  447   3.225   1.947   1.656  0.9730  0.9129  0.3318
   18OCT    H21  448   3.308   1.903   1.598  0.4166  0.7551 -1.3287
   18OCT    H22  449   3.172   1.993   1.573  2.0203  0.2304 -1.7061
   18OCT     C3  450   3.287   2.067   1.734 -0.0118  0.3004 -0.4382
   18OCT    H31  451   3.316   2.149   1.657  0.2161  1.3410 -1.6021
   18OCT    H32  452   3.217   2.105   1.808 -2.5174  0.3405 -0.4869
   18OCT     C4  453   3.417   2.026   1.799  0.0687 -0.5765 -0.7887
   18OCT    H41  454   3.405   1.953   1.882 -2.0218 -1.8679 -0.8124
   18OCT    H42  455   3.474   1.978   1.722 -1.3104 -0.7359  0.8983
   18OCT     C5  456   3.495   2.151   1.858 -0.1530  0.2789  0.1288
   18OCT    H51  457   3.529   2.214   1.775  1.9467  0.9285  2.0582
   18OCT    H52  458   3.434   2.217   1.918 -0.4863  2.6959  1.2651
   18OCT     C6  459   3.624   2.116   1.933 -0.2274 -0.5180  0.3472
   18OCT    H61  460   3.607   2.057   2.018  3.8463  0.1344 -1.1912
   18OCT    H62  461   3.691   2.065   1.866  0.5859  2.5606  1.4654
   18OCT     C7  462   3.700   2.244   1.986 -0.2459 -0.5559  0.5903
   18OCT    H71  463   3.640   2.309   2.045  1.6320 -1.9299 -2.5157
   18OCT    H72  464   3.789   2.210   2.046  1.0072 -0.3341  2.4321
   18OCT     C8  465   3.764   2.324   1.874  0.0402  0.2753  0.0992
   18OCT    H81  466   3.681   2.377   1.821  1.0358  1.3302 -0.2015
   18OCT    H82  467   3.842   2.388   1.927  1.3673 -2.2678 -0.0381
   18OCT    H83  468   3.824   2.254   1.806 -1.8951  1.0287 -1.2848
   19OCT     C1  469   3.265   1.770   1.233  0.4459  0.3126 -0.2289
   19OCT    H11  470   3.259   1.684   1.160  0.9026  0.8114  1.5499
   19OCT    H12  471   3.161   1.769   1.288 -3.6601  1.1974 -1.2265
   19OCT    H13  472   3.284   1.871   1.183 -0.2279 -0.5169 -0.9974
   19OCT     C2  473   3.372   1.726   1.326  0.4367 -0.2476 -0.7727
   19OCT    H21  474   3.467   1.771   1.285  0.9756 -1.0550 -0.1857
   19OCT    H22  475   3.346   1.774   1.429  1.0310 -0.0670  1.2564
   19OCT     C3  476   3.398   1.574   1.336  0.9336 -0.3380 -0.9720
   19OCT    H31  477   3.300   1.523   1.362 -0.0133 -0.4264 -0.5776
   19OCT    H32  478   3.422   1.532   1.233 -0.7823 -0.8185 -1.0032
   19OCT     C4  479   3.501   1.536   1.446 -0.3846 -0.4040  0.5911
   19OCT    H41  480   3.606   1.567   1.420 -1.1647 -1.4782  1.4390
   19OCT    H42  481   3.477   1.581   1.545  1.8537 -0.3201 -0.1480
   19OCT     C5  482   3.528   1.386   1.452  0.1054 -0.3763 -0.4431
   19OCT    H51  483   3.430   1.326   1.475 -1.7776  0.8126  0.8260
   19OCT    H52  484   3.563   1.357   1.346  0.3325  0.1005  1.2432
   19OCT     C6  485   3.638   1.351   1.551 -0.0598  0.4843 -0.1497
   19OCT    H61  486   3.732   1.407   1.510 -0.3534  2.1236  0.2820
   19OCT    H62  487   3.603   1.388   1.649  0.6846  1.0660 -1.0861
   19OCT     C7  488   3.672   1.201   1.570  0.0288 -0.4878 -0.4598
   19OCT    H71  489   3.679   1.159   1.473  0.9485 -0.1959  0.6343
   19OCT    H72  490   3.779   1.202   1.613  2.0522  1.8432  3.8090
   19OCT     C8  491   3.567   1.122   1.646 -0.1445  0.5240  0.1645
   19OCT    H81  492   3.486   1.096   1.586  2.0040 -1.0383 -0.5492
   19OCT    H82  493   3.606   1.023   1.672 -2.1152  0.0312 -1.5645
   19OCT    H83  494   3.548   1.180   1.744  0.3700  1.9431  0.1776
   20OCT     C1  495   2.339   0.762   0.362  0.3513  0.1350  0.6423
   20OCT    H11  496   2.418   0.729   0.427 -0.5496 -1.0384  1.0101
   20OCT    H12  497   2.338   0.874   0.359 -0.8264  0.3846 -2.5026
   20OCT    H13  498   2.241   0.730   0.407  0.8421  1.2974  3.6281
   20OCT     C2  499   2.346   0.696   0.221 -0.2190 -0.0696  0.1041
   20OCT    H21  500   2.327   0.590   0.236  0.1715 -1.3473  0.0495
   20OCT    H22  501   2.263   0.736   0.165 -1.6644 -2.1688  0.6896
   20OCT     C3  502   2.466   0.727   0.136  0.1077  0.1914 -0.1031
   20OCT    H31  503   2.481   0.836   0.125  1.7877 -2.1527  1.8159
   20OCT    H32  504   2.564   0.687   0.169  0.8243 -0.8204 -1.6575
   20OCT     C4  505   2.447   0.686  -0.016  0.9526 -0.1409  0.7377
   20OCT    H41  506   2.375   0.760  -0.073 -3.9313  0.1317 -1.0636
   20OCT    H42  507   2.550   0.698  -0.066  3.1809  2.0840 -2.7482
   20OCT     C5  508   2.387   0.547  -0.034  0.8014 -0.0015 -0.0203
   20OCT    H51  509   2.281   0.544  -0.010  1.0914 -0.4070 -2.2768
   20OCT    H52  510   2.389   0.535  -0.140 -1.8121  3.6948  1.7100
   20OCT     C6  511   2.459   0.437   0.035  0.0896 -0.8048 -0.9078
   20OCT    H61  512   2.498   0.464   0.131 -0.3910 -1.0189 -0.4564
   20OCT    H62  513   2.372   0.371   0.062 -2.9215  2.8768  0.3073
   20OCT     C7  514   2.567   0.374  -0.053  0.0146 -0.2339 -1.0014
   20OCT    H71  515   2.512   0.350  -0.146  0.9829 -1.1373 -0.5806
   20OCT    H72  516   2.656   0.438  -0.066  2.7074 -2.2969  0.5245
   20OCT     C8  517   2.633   0.249   0.011  0.8085  0.3377 -0.5281
   20OCT    H81  518   2.713   0.217  -0.066  0.0896  1.0087 -2.3391
   20OCT    H82  519   2.671   0.276   0.112 -0.0284  0.1376 -0.4713
   20OCT    H83  520   2.552   0.172   0.031  0.7111  0.8058  0.6868
   21OCT     C1  521   3.195   1.926   2.797 -0.7459  0.7966 -0.2303
   21OCT    H11  522   3.301   1.922   2.838 -1.2933  2.1580  2.3242
   21OCT    H12  523   3.141   1.893   2.886  0.4610 -0.0876  2.3037
   21OCT    H13  524   3.184   1.843   2.722 -2.9482  1.4377  0.9281
   21OCT     C2  525   3.143   2.057   2.748 -0.2815 -0.4077  0.3040
   21OCT    H21  526   3.041   2.052   2.707  3.5592 -0.4554  0.0020
   21OCT    H22  527   3.140   2.137   2.828 -1.3727  0.6547 -2.3329
   21OCT     C3  528   3.242   2.096   2.637 -0.0495 -0.6115  0.1528
   21OCT    H31  529   3.276   2.007   2.590  0.4363  0.5048 -2.5843
   21OCT    H32  530   3.193   2.152   2.562  0.8006 -1.6795 -0.3493
   21OCT     C4  531   3.370   2.163   2.699  0.0915 -0.0999 -0.2133
   21OCT    H41  532   3.413   2.091   2.771 -0.0142 -1.3589 -1.4779
   21OCT    H42  533   3.435   2.158   2.609 -1.0303 -1.2290  0.5353
   21OCT     C5  534   3.353   2.311   2.750  0.5474  0.0685  0.5611
   21OCT    H51  535   3.303   2.374   2.680 -0.8490 -0.1289 -0.4905
   21OCT    H52  536   3.275   2.308   2.824  1.3858  0.8820  0.7152
   21OCT     C6  537   3.483   2.378   2.799  0.4295 -0.3513  1.0531
   21OCT    H61  538   3.445   2.459   2.862 -1.1493 -2.4306  2.1331
   21OCT    H62  539   3.540   2.322   2.873 -1.3758  1.9219 -3.7290
   21OCT     C7  540   3.573   2.424   2.687 -0.4946  0.3844 -0.0377
   21OCT    H71  541   3.626   2.328   2.662  2.1174  0.2113 -0.5880
   21OCT    H72  542   3.524   2.467   2.601 -0.6954  0.3832  3.5082
   21OCT     C8  543   3.679   2.535   2.745  0.4294  0.0598  0.5436
   21OCT    H81  544   3.619   2.611   2.789  0.5163 -1.4983 -1.0469
   21OCT    H82  545   3.733   2.491   2.830 -1.4532 -0.5591 -0.3388
   21OCT    H83  546   3.749   2.563   2.664  0.7451 -0.5084 -0.2014
   22OCT     C1  547   1.542   3.962   2.934  0.1754 -0.2651 -0.4429
   22OCT    H11  548   1.510   3.871   2.881  2.5849 -0.3040  1.6754
   22OCT    H12  549   1.499   4.057   2.887  0.6297 -1.6893 -1.2016
   22OCT    H13  550   1.653   3.971   2.933 -2.3606  0.9594 -1.1934
   22OCT     C2  551   1.499   3.957   3.085 -0.1358 -0.0673 -0.2891
   22OCT    H21  552   1.391   3.936   3.095 -2.6034 -0.5644 -1.2652
   22OCT    H22  553   1.554   3.867   3.122  2.8539  0.2778 -1.6554
   22OCT     C3  554   1.525   4.099   3.153  0.3429 -0.7743 -0.0731
   22OCT    H31  555   1.631   4.122   3.148 -2.5381 -0.4946  0.6655
   22OCT    H32  556   1.482   4.183   3.091  3.3414  0.0421 -0.8178
   22OCT     C4  557   1.446   4.107   3.290 -0.7238 -0.2135  0.7470
   22OCT    H41  558   1.345   4.056   3.276  0.4003 -2.0082  0.7351
   22OCT    H42  559   1.499   4.041   3.359  0.2910  0.4494 -0.6017
   22OCT     C5  560   1.433   4.251   3.355  0.0658 -0.3209 -0.5307
   22OCT    H51  561   1.536   4.286   3.375  0.7134 -4.0349 -0.6504
   22OCT    H52  562   1.373   4.319   3.288 -0.3174 -1.2425  0.4800
   22OCT     C6  563   1.357   4.260   3.489 -0.0090 -0.0302  0.4379
   22OCT    H61  564   1.247   4.242   3.465 -0.1351 -0.3768 -0.0106
   22OCT    H62  565   1.395   4.182   3.556 -1.5575 -0.5423 -1.7320
   22OCT     C7  566   1.373   4.389   3.568 -0.4054  0.5050 -0.2643
   22OCT    H71  567   1.475   4.395   3.603  0.6751 -2.8500 -0.4071
   22OCT    H72  568   1.349   4.472   3.490 -0.5748 -1.0160  1.5078
   22OCT     C8  569   1.274   4.400   3.679  0.5636 -0.4947  0.0657
   22OCT    H81  570   1.287   4.494   3.741  1.0207 -0.9918  1.9821
   22OCT    H82  571   1.171   4.382   3.643  1.8811 -0.4418 -0.8784
   22OCT    H83  572   1.305   4.307   3.739  1.0299 -1.1309  2.6412
   23OCT     C1  573   1.671   0.180   0.352  0.4362  0.2103 -0.2120
   23OCT    H11  574   1.681   0.070   0.365  0.1978  0.6030 -1.3198
   23OCT    H12  575   1.708   0.212   0.253  0.7843  0.0263  2.7595
   23OCT    H13  576   1.738   0.228   0.433  0.8601 -0.4131  1.4816
   23OCT     C2  577   1.528   0.218   0.366  0.5366  1.0946  0.2849
   23OCT    H21  578   1.455   0.173   0.282 -0.7714  0.6191  0.0613
   23OCT    H22  579   1.488   0.173   0.451  3.4511  1.4846 -2.1648
   23OCT     C3  580   1.510   0.362   0.389  0.3814  0.1534 -0.3097
   23OCT    H31  581   1.543   0.383   0.494  0.2366 -0.3060 -2.5474
   23OCT    H32  582   1.566   0.424   0.313  0.8206 -1.3124 -1.6068
   23OCT     C4  583   1.360   0.411   0.373  0.1162 -0.1550  0.5296
   23OCT    H41  584   1.322   0.359   0.274 -0.2266 -3.5457 -1.7241
   23OCT    H42  585   1.294   0.357   0.449  3.2206  0.1990  2.6013
   23OCT     C5  586   1.339   0.562   0.384 -0.0669  0.0017  0.5773
   23OCT    H51  587   1.231   0.594   0.373 -1.0670  0.8696 -1.3491
   23OCT    H52  588   1.386   0.589   0.481 -2.7429  0.4031  0.3400
   23OCT     C6  589   1.430   0.645   0.287  0.8035  0.1030 -0.1904
   23OCT    H61  590   1.537   0.623   0.317  3.2692 -0.3757  1.2578
   23OCT    H62  591   1.406   0.609   0.181 -2.3291 -2.8597 -1.4054
   23OCT     C7  592   1.422   0.804   0.288  0.5209 -0.1215 -0.6028
   23OCT    H71  593   1.445   0.848   0.384 -0.0215  1.2202  1.0012
   23OCT    H72  594   1.492   0.848   0.216 -2.8452 -2.3548 -2.3636
   23OCT     C8  595   1.283   0.855   0.251 -0.1018 -0.6704 -0.6437
   23OCT    H81  596   1.292   0.971   0.244  0.6789  2.2341 -1.5668
   23OCT    H82  597   1.251   0.809   0.157  1.4327 -0.1614  1.5649
   23OCT    H83  598   1.207   0.850   0.327 -1.7038 -1.1625 -3.3153
   24OCT     C1  599   1.394   3.998   1.869  0.3617 -0.4382 -0.5313
   24OCT    H11  600   1.291   3.956   1.881  1.1648  0.1720  0.4332
   24OCT    H12  601   1.410   4.084   1.938  0.2465  0.3872 -0.6109
   24OCT    H13  602   1.400   4.059   1.774 -1.6108  3.4278  0.3941
   24OCT     C2  603   1.497   3.891   1.896  0.5578  0.2280  0.0353
   24OCT    H21  604   1.482   3.829   1.989  0.4495  0.0693  0.5337
   24OCT    H22  605   1.502   3.812   1.816  2.4526 -1.5491  0.1486
   24OCT     C3  606   1.641   3.949   1.893 -0.3782  0.4144  0.1090
   24OCT    H31  607   1.732   3.879   1.900  2.8976  0.2479 -0.2432
   24OCT    H32  608   1.668   3.987   1.790 -0.1938 -1.8035  1.9430
   24OCT     C4  609   1.666   4.062   1.996  0.1023 -0.4706 -0.1237
   24OCT    H41  610   1.605   4.150   1.961 -1.3448 -3.0258 -1.2941
   24OCT    H42  611   1.642   4.035   2.097  1.6984 -0.6152  1.6728
   24OCT     C5  612   1.810   4.103   2.013 -0.2711  0.2785 -0.2447
   24OCT    H51  613   1.877   4.021   2.049 -0.5764 -1.8313  0.1249
   24OCT    H52  614   1.857   4.141   1.914  1.2459  0.0909 -1.9560
   24OCT     C6  615   1.818   4.211   2.125  0.0895  0.5572 -0.4022
   24OCT    H61  616   1.714   4.258   2.138 -2.2638 -0.9507  1.4085
   24OCT    H62  617   1.830   4.161   2.226  0.0942 -2.0134  1.8472
   24OCT     C7  618   1.923   4.326   2.121  0.6136 -0.4592  0.4962
   24OCT    H71  619   1.908   4.382   2.217 -0.0947 -0.5155  3.2377
   24OCT    H72  620   2.025   4.279   2.124  0.5818  0.9066  0.5613
   24OCT     C8  621   1.900   4.415   2.000 -0.4083  0.0587 -0.1118
   24OCT    H81  622   1.791   4.437   1.987 -3.5751 -5.0416  0.5912
   24OCT    H82  623   1.941   4.514   2.016  1.3138 -1.5476  0.3565
   24OCT    H83  624   1.937   4.366   1.903 -0.5366 -1.2778 -0.6033
   25OCT     C1  625   3.783   3.617   1.597 -0.4683  0.5616 -0.3881
   25OCT    H11  626   3.866   3.618   1.671  0.5036  0.0143 -0.5036
   25OCT    H12  627   3.789   3.528   1.531 -0.5067  2.9575 -0.8692
   25OCT    H13  628   3.794   3.703   1.531  1.1498 -0.4486  1.0357
   25OCT     C2  629   3.656   3.618   1.685  0.9124 -0.7696  0.5623
   25OCT    H21  630   3.666   3.550   1.778  0.8649 -2.6207  2.4011
   25OCT    H22  631   3.654   3.716   1.735  0.6502 -0.5459 -1.4135
   25OCT     C3  632   3.530   3.584   1.595  0.0913 -0.2199 -0.5450
   25OCT    H31  633   3.549   3.619   1.493  1.2797 -0.9488  2.1221
   25OCT    H32  634   3.515   3.470   1.607  0.0720 -2.9913  1.8005
   25OCT     C4  635   3.411   3.641   1.669  0.5803 -0.0810 -0.1174
   25OCT    H41  636   3.421   3.607   1.772  0.5116 -1.6134  2.0574
   25OCT    H42  637   3.422   3.755   1.660  1.1399  2.5368  0.3116
   25OCT     C5  638   3.284   3.596   1.605 -0.5434 -0.1449 -0.3769
   25OCT    H51  639   3.280   3.640   1.504  2.6317 -0.9888 -0.7523
   25OCT    H52  640   3.292   3.482   1.593  0.3208 -2.4439  0.5535
   25OCT     C6  641   3.153   3.625   1.686  0.3481 -0.5827 -0.8277
   25OCT    H61  642   3.084   3.556   1.649  3.7857 -0.8391 -0.9673
   25OCT    H62  643   3.169   3.610   1.795  3.9708  0.8565 -0.8559
   25OCT     C7  644   3.094   3.768   1.648  0.3223 -0.0403 -0.5106
   25OCT    H71  645   3.155   3.849   1.670 -2.9867 -1.3907 -1.8467
   25OCT    H72  646   3.077   3.761   1.542  1.1260  0.5465  0.9582
   25OCT     C8  647   2.964   3.798   1.727 -0.1703  0.0559  0.9266
   25OCT    H81  648   2.982   3.806   1.839 -1.0544 -0.9537  3.0164
   25OCT    H82  649   2.918   3.889   1.680 -2.2357  1.9348  0.3324
   25OCT    H83  650   2.899   3.710   1.700  1.6092 -0.7483 -1.6931
   26OCT     C1  651   0.796   0.180   2.011  0.2694  0.0553  0.5249
   26OCT    H11  652   0.879   0.113   1.975 -1.8783 -3.3867 -3.2568
   26OCT    H12  653   0.783   0.154   2.120 -0.4013 -1.0522 -0.7178
   26OCT    H13  654   0.697   0.150   1.966 -0.9353 -0.1251  1.7551
   26OCT     C2  655   0.817   0.328   1.983 -0.2247 -0.2269 -0.4965
   26OCT    H21  656   0.823   0.341   1.870  0.7946 -0.1400 -1.0756
   26OCT    H22  657   0.733   0.390   2.030  1.3146  0.8946  2.8908
   26OCT     C3  658   0.953   0.385   2.043  0.6003 -0.4937  0.1317
   26OCT    H31  659   0.956   0.358   2.153  0.3005 -0.5480 -0.0745
   26OCT    H32  660   1.041   0.327   1.997  2.5881 -1.1062 -0.8577
   26OCT     C4  661   0.985   0.538   2.012  0.0369  0.0141 -0.3719
   26OCT    H41  662   0.898   0.584   2.061 -0.1844 -2.9000  0.5543
   26OCT    H42  663   1.077   0.557   2.065 -1.2105 -2.7575 -0.3538
   26OCT     C5  664   1.001   0.558   1.862 -0.3580  0.3561 -0.7063
   26OCT    H51  665   1.086   0.493   1.832  1.5008 -1.0283 -2.0439
   26OCT    H52  666   0.903   0.542   1.808  0.5548 -1.7896 -0.0117
   26OCT     C6  667   1.061   0.695   1.834  0.5083  1.3937  0.0329
   26OCT    H61  668   0.980   0.769   1.874 -0.7852  0.7347  0.2546
   26OCT    H62  669   1.154   0.703   1.894  1.9711 -1.0925  1.3592
   26OCT     C7  670   1.064   0.738   1.688 -0.2914 -0.0428  0.1259
   26OCT    H71  671   1.128   0.664   1.637  1.3807  0.0706 -1.1410
   26OCT    H72  672   0.961   0.741   1.646 -3.2538 -1.1304  0.7820
   26OCT     C8  673   1.133   0.874   1.675 -0.0730 -0.6464  0.6137
   26OCT    H81  674   1.154   0.883   1.562 -1.8138  2.4097  1.7762
   26OCT    H82  675   1.061   0.958   1.698 -0.6887  0.9810 -0.3452
   26OCT    H83  676   1.227   0.881   1.735  1.5114 -0.3407  0.4436
   27OCT     C1  677   3.124   2.214   3.800 -0.0205 -0.1552 -0.7512
   27OCT    H11  678   3.095   2.210   3.691 -1.2419 -0.1136 -0.2722
   27OCT    H12  679   3.182   2.312   3.810 -0.3760  1.5600  0.1636
   27OCT    H13  680   3.189   2.127   3.830  0.6583  0.9985 -0.3976
   27OCT     C2  681   3.005   2.209   3.895  0.2948 -0.7052  0.2164
   27OCT    H21  682   2.946   2.120   3.868  0.2930  1.3145 -2.3260
   27OCT    H22  683   3.035   2.212   3.997  0.5340  0.6050  0.0987
   27OCT     C3  684   2.920   2.339   3.883  0.1076  0.4673 -0.8151
   27OCT    H31  685   2.890   2.349   3.779  0.8828 -0.4646  2.6129
   27OCT    H32  686   2.823   2.338   3.940  2.3007 -1.7137  0.0917
   27OCT     C4  687   2.991   2.466   3.927 -0.2216 -0.3773 -0.0808
   27OCT    H41  688   3.029   2.453   4.024 -1.7541  2.5439 -1.4326
   27OCT    H42  689   3.089   2.476   3.869 -1.1935 -2.3389 -0.0947
   27OCT     C5  690   2.900   2.589   3.938 -0.1317  0.2654 -0.1690
   27OCT    H51  691   2.878   2.625   3.830 -1.4941 -0.1407  0.1204
   27OCT    H52  692   2.814   2.549   3.990  0.8475 -1.4762 -1.4724
   27OCT     C6  693   2.960   2.701   4.021 -0.5728 -0.3877  0.0814
   27OCT    H61  694   3.046   2.741   3.967 -1.3565 -1.5765 -0.3106
   27OCT    H62  695   2.884   2.781   4.020  0.3571 -1.8572 -0.5531
   27OCT     C7  696   2.990   2.670   4.167  0.1394  0.0044 -0.0561
   27OCT    H71  697   2.907   2.623   4.218 -0.5917  3.0429  0.9475
   27OCT    H72  698   3.071   2.593   4.163 -0.6330  2.3338  0.4872
   27OCT     C8  699   3.036   2.787   4.247  0.4726  0.3487 -0.2112
   27OCT    H81  700   3.070   2.777   4.343  1.5308  1.3649 -3.0037
   27OCT    H82  701   3.130   2.823   4.195  2.7675 -0.1276 -1.3803
   27OCT    H83  702   2.959   2.863   4.239 -1.0837 -0.7115 -0.0389
   28OCT     C1  703   4.332   3.384   3.959 -0.2936 -0.9454  0.4194
   28OCT    H11  704   4.222   3.380   3.979  1.4423  0.6394 -2.8567
   28OCT    H12  705   4.414   3.373   4.034  1.0464  0.9841 -0.8291
   28OCT    H13  706   4.352   3.492   3.931  0.5869 -1.6182 -1.3980
   28OCT     C2  707   4.367   3.305   3.831 -0.6098 -0.5846  0.4265
   28OCT    H21  708   4.304   3.325   3.748 -0.4419 -2.6771  1.0300
   28OCT    H22  709   4.473   3.324   3.806  2.5925 -3.9683  2.4528
   28OCT     C3  710   4.365   3.156   3.869 -0.4550 -0.3010  0.0313
   28OCT    H31  711   4.377   3.146   3.976 -0.4598  2.0433 -1.8555
   28OCT    H32  712   4.263   3.119   3.833 -2.8708 -1.9324  0.8523
   28OCT     C4  713   4.479   3.070   3.806  0.1752 -0.3899 -0.3931
   28OCT    H41  714   4.574   3.089   3.858  0.3995  0.3353 -0.0185
   28OCT    H42  715   4.448   2.968   3.808  0.0602  0.5875 -0.6199
   28OCT     C5  716   4.503   3.094   3.651 -0.3693 -0.2313 -0.2878
   28OCT    H51  717   4.409   3.091   3.599 -0.6511  2.2059 -1.2177
   28OCT    H52  718   4.555   3.192   3.625  0.9172 -1.3483 -1.6961
   28OCT     C6  719   4.591   2.988   3.581  0.9347  0.8736 -1.2255
   28OCT    H61  720   4.637   3.028   3.490 -2.1579 -0.7337 -2.6760
   28OCT    H62  721   4.673   2.968   3.646 -0.2736 -0.7209 -5.3341
   28OCT     C7  722   4.522   2.851   3.543  0.3038 -0.2174 -0.2642
   28OCT    H71  723   4.462   2.828   3.635 -2.2361 -2.5813 -1.1815
   28OCT    H72  724   4.461   2.867   3.460  1.8022 -1.0510  1.8904
   28OCT     C8  725   4.617   2.739   3.502  0.4535 -0.3258 -0.7034
   28OCT    H81  726   4.558   2.655   3.468  3.0653 -0.3333 -1.5331
   28OCT    H82  727   4.687   2.759   3.418 -2.9820  0.5655  0.4826
   28OCT    H83  728   4.677   2.708   3.587 -1.4064  0.0798 -0.8910
   29OCT     C1  729   2.865   3.925   1.367  0.3621 -0.0243 -0.5248
   29OCT    H11  730   2.840   4.021   1.399  0.3965  0.2199 -0.3187
   29OCT    H12  731   2.961   3.895   1.421  3.1712  1.2277 -1.3162
   29OCT    H13  732   2.887   3.925   1.262  1.6773 -1.2434  1.7010
   29OCT     C2  733   2.755   3.820   1.395  0.0008 -0.1174 -0.5008
   29OCT    H21  734   2.763   3.797   1.502 -0.1748 -0.7383  0.1700
   29OCT    H22  735   2.651   3.855   1.364 -2.2506  0.2744  1.7807
   29OCT     C3  736   2.785   3.684   1.329 -0.1523  0.4260  0.4315
   29OCT    H31  737   2.697   3.619   1.325 -0.2414 -1.2918  0.1612
   29OCT    H32  738   2.811   3.711   1.222  1.7711 -0.9634 -3.2348
   29OCT     C4  739   2.914   3.615   1.368  0.3448  0.1438 -0.2470
   29OCT    H41  740   3.003   3.680   1.344  1.2287 -1.4716 -0.6225
   29OCT    H42  741   2.907   3.602   1.482  0.1777 -0.8097 -0.7622
   29OCT     C5  742   2.946   3.483   1.290  0.2099  0.5420  0.0737
   29OCT    H51  743   2.939   3.501   1.179  0.9994 -1.0202 -1.0165
   29OCT    H52  744   3.056   3.461   1.319  4.0724 -0.2848  0.2201
   29OCT     C6  745   2.856   3.366   1.328  0.7413  0.0596 -0.6152
   29OCT    H61  746   2.868   3.341   1.436  1.2144  0.0563  0.3097
   29OCT    H62  747   2.747   3.402   1.320  0.5268  0.8535  0.2272
   29OCT     C7  748   2.878   3.242   1.251 -0.1911  0.2511  0.4285
   29OCT    H71  749   2.890   3.256   1.142  0.4638 -0.8927  3.1443
   29OCT    H72  750   2.972   3.196   1.297  2.2055  0.4299  2.0722
   29OCT     C8  751   2.769   3.138   1.273  0.1846  0.1544  0.1417
   29OCT    H81  752   2.810   3.039   1.244 -1.8841  1.2254  1.7318
   29OCT    H82  753   2.745   3.129   1.382 -1.6079 -4.3705  0.5533
   29OCT    H83  754   2.685   3.167   1.208 -0.3892  0.9691 -0.0602
   30OCT     C1  755   3.428   0.667   3.768  0.6192 -0.5169  0.3657
   30OCT    H11  756   3.441   0.586   3.689 -1.4108  0.5559 -1.5657
   30OCT    H12  757   3.327   0.639   3.813  1.5051  0.5597 -0.8354
   30OCT    H13  758   3.408   0.756   3.703  1.2968 -0.1708 -1.0165
   30OCT     C2  759   3.546   0.685   3.866 -0.5863 -0.0984  0.2456
   30OCT    H21  760   3.633   0.713   3.813  0.9569 -0.4402  4.2998
   30OCT    H22  761   3.505   0.768   3.932 -2.2740  0.8783 -0.6072
   30OCT     C3  762   3.576   0.569   3.959  0.3592  0.6850 -0.9100
   30OCT    H31  763   3.637   0.599   4.051  0.8080 -1.1309  1.8049
   30OCT    H32  764   3.475   0.534   3.987 -0.2075  2.7613 -0.7979
   30OCT     C4  765   3.650   0.453   3.890 -0.5009  0.5389 -0.3602
   30OCT    H41  766   3.590   0.436   3.792  1.0855 -1.2311  0.0358
   30OCT    H42  767   3.761   0.467   3.870 -0.0352 -1.3631  1.8308
   30OCT     C5  768   3.653   0.321   3.970  0.6926  1.2342 -0.3752
   30OCT    H51  769   3.709   0.346   4.069 -0.8461 -0.2144  2.4900
   30OCT    H52  770   3.542   0.286   3.996 -2.0766 -1.7256  0.5386
   30OCT     C6  771   3.725   0.203   3.904 -0.5678 -0.4944  0.5145
   30OCT    H61  772   3.702   0.184   3.795  0.1234 -2.6516 -1.4877
   30OCT    H62  773   3.833   0.234   3.913 -0.4777  3.1243  2.6185
   30OCT     C7  774   3.735   0.071   3.979 -0.1609  0.1088 -0.1236
   30OCT    H71  775   3.773   0.089   4.078 -0.7459 -0.4605 -2.2754
   30OCT    H72  776   3.640   0.020   3.974  2.7067  1.5768  1.7882
   30OCT     C8  777   3.851  -0.019   3.918 -0.5705  0.2843 -0.2512
   30OCT    H81  778   3.842  -0.045   3.814  3.4548 -3.2733  1.7508
   30OCT    H82  779   3.951   0.027   3.932  1.3931 -0.2991 -0.9479
   30OCT    H83  780   3.847  -0.121   3.963 -3.4960 -0.1153  0.3375
   31OCT     C1  781   1.543   4.283   0.051 -0.8010 -0.6551  0.2802
   31OCT    H11  782   1.573   4.314  -0.050 -0.9615 -1.2669  0.4698
   31OCT    H12  783   1.523   4.381   0.107 -1.2492  0.7475  0.2599
   31OCT    H13  784   1.626   4.229   0.096  0.6173  0.2759 -0.4982
   31OCT     C2  785   1.418   4.205   0.055  0.2422  0.6824  0.1199
   31OCT    H21  786   1.333   4.271   0.014  0.7072 -0.4905 -2.5261
   31OCT    H22  787   1.432   4.126  -0.013  1.0823  0.6671 -1.2726
   31OCT     C3  788   1.386   4.153   0.197  0.0873  0.2171  0.1751
   31OCT    H31  789   1.298   4.087   0.185 -0.2538  0.3553 -1.3363
   31OCT    H32  790   1.472   4.096   0.250  1.2006 -0.1346  4.7416
   31OCT     C4  791   1.362   4.269   0.290  0.0113 -0.1697 -0.1399
   31OCT    H41  792   1.454   4.333   0.306  1.4069  3.5571 -0.0300
   31OCT    H42  793   1.296   4.340   0.236 -1.7251  0.0831  1.2384
   31OCT     C5  794   1.311   4.224   0.431 -1.0070 -0.8451  0.3855
   31OCT    H51  795   1.202   4.185   0.434 -0.4283 -0.6554 -0.4070
   31OCT    H52  796   1.369   4.150   0.480 -2.4139  2.3269  1.0334
   31OCT     C6  797   1.324   4.329   0.540 -0.8015 -0.7890  1.0488
   31OCT    H61  798   1.303   4.284   0.645  0.5723 -1.5321  1.3802
   31OCT    H62  799   1.426   4.378   0.536  1.3343 -0.9404  0.8143
   31OCT     C7  800   1.208   4.434   0.520  1.0399  0.7399  0.1432
   31OCT    H71  801   1.235   4.496   0.438  0.0262 -4.0377 -0.5711
   31OCT    H72  802   1.112   4.383   0.494 -1.0731 -1.0406  0.2563
   31OCT     C8  803   1.186   4.527   0.641 -0.0509 -0.2669 -0.2918
   31OCT    H81  804   1.097   4.596   0.619  0.1181  2.5335  1.3162
   31OCT    H82  805   1.146   4.469   0.729 -3.2438  0.0673 -0.1255
   31OCT    H83  806   1.284   4.578   0.676  0.6598  0.1579  2.8891
   32OCT     C1  807   0.241   1.720   2.807 -0.1356 -0.3081 -0.1752
   32OCT    H11  808   0.224   1.819   2.837  3.3886 -2.0013 -0.5783
   32OCT    H12  809   0.328   1.687   2.876  0.9331 -1.6639  1.7733
   32OCT    H13  810   0.275   1.720   2.698 -1.1424 -0.9239 -1.3190
   32OCT     C2  811   0.123   1.622   2.832  0.2814 -0.5336  0.6135
   32OCT    H21  812   0.095   1.619   2.941 -1.8861  1.7325  0.3076
   32OCT    H22  813   0.029   1.662   2.773 -2.4254 -0.8806 -1.1903
   32OCT     C3  814   0.167   1.485   2.783 -0.0340  0.6497 -0.1691
   32OCT    H31  815   0.205   1.498   2.681 -0.8604  1.4563  1.0132
   32OCT    H32  816   0.260   1.451   2.839 -1.3553  0.2932  0.9347
   32OCT     C4  817   0.073   1.369   2.791  0.5636  0.0755  0.1892
   32OCT    H41  818   0.035   1.361   2.898 -1.6650 -0.8956 -0.5240
   32OCT    H42  819  -0.009   1.388   2.725  2.3219  0.1933 -2.4441
   32OCT     C5  820   0.146   1.245   2.738  0.3083 -0.6361  0.0918
   32OCT    H51  821   0.191   1.262   2.635  2.2981 -2.0499  0.2418
   32OCT    H52  822   0.231   1.217   2.806  0.3945  0.2510  0.8377
   32OCT     C6  823   0.058   1.121   2.724 -0.4611  0.4121 -0.1361
   32OCT    H61  824   0.034   1.099   2.837  0.4849 -4.4893  1.5444
   32OCT    H62  825  -0.025   1.150   2.659 -0.4957 -0.0621  1.5952
   32OCT     C7  826   0.141   0.996   2.672 -0.7383  0.1911  0.5222
   32OCT    H71  827   0.173   1.021   2.567  0.9059  0.6771  2.6425
   32OCT    H72  828   0.232   0.983   2.737  2.5239  1.9258  2.5117
   32OCT     C8  829   0.061   0.863   2.669  0.0229 -0.5195  0.0452
   32OCT    H81  830   0.038   0.828   2.773  1.5693 -0.8101  2.2711
   32OCT    H82  831  -0.039   0.869   2.610 -0.5709  1.1105 -0.0010
   32OCT    H83  832   0.117   0.786   2.614  0.3293  1.4775 -0.9578
   33OCT     C1  833   0.624   3.919   1.590  0.0359  0.3537 -0.1729
   33OCT    H11  834   0.704   3.861   1.541 -0.0814  2.0802 -0.1260
   33OCT    H12  835   0.587   3.867   1.681 -1.9176 -1.6117  0.5014
   33OCT    H13  836   0.545   3.918   1.515  3.7119 -0.2251  0.6631
   33OCT     C2  837   0.661   4.063   1.628  0.0594 -0.2249  0.1699
   33OCT    H21  838   0.739   4.055   1.709 -1.9145  1.4763  0.6233
   33OCT    H22  839   0.711   4.120   1.544  0.2180 -1.2956 -0.8121
   33OCT     C3  840   0.540   4.145   1.679 -0.2050  0.7005 -0.8330
   33OCT    H31  841   0.464   4.138   1.599  1.0158 -1.4561 -0.7450
   33OCT    H32  842   0.498   4.072   1.756 -0.4324 -0.2452  0.3406
   33OCT     C4  843   0.580   4.278   1.742  0.2030  1.0607 -0.3737
   33OCT    H41  844   0.666   4.247   1.816 -1.9561 -2.0890  0.9545
   33OCT    H42  845   0.605   4.352   1.663 -1.3386  3.2860  1.3413
   33OCT     C5  846   0.474   4.352   1.827 -0.2907  0.0203  0.9460
   33OCT    H51  847   0.434   4.297   1.906  0.9551  2.2346 -1.7553
   33OCT    H52  848   0.530   4.440   1.874 -0.0664 -0.3084 -2.5355
   33OCT     C6  849   0.357   4.394   1.736  0.1515  0.5397  0.1126
   33OCT    H61  850   0.404   4.458   1.654  0.1824 -0.8672 -2.2550
   33OCT    H62  851   0.315   4.296   1.695 -1.3479  0.1739  0.7384
   33OCT     C7  852   0.240   4.474   1.803  0.0138  0.3536 -0.4081
   33OCT    H71  853   0.282   4.563   1.851  3.4159 -0.6459  0.6964
   33OCT    H72  854   0.181   4.511   1.716  0.0438  1.8835 -0.1504
   33OCT     C8  855   0.149   4.398   1.902  0.1591 -0.2066  1.3522
   33OCT    H81  856   0.083   4.463   1.961  1.4286 -0.2895  0.7602
   33OCT    H82  857   0.076   4.345   1.834  1.4235 -1.7887 -0.7604
   33OCT    H83  858   0.203   4.324   1.961 -1.6781 -3.1543 -1.8654
   34OCT     C1  859   0.344   1.946   1.053  0.3209 -0.3084  0.3164
   34OCT    H11  860   0.247   1.901   1.091 -4.3124  0.3022  0.9731
   34OCT    H12  861   0.320   2.023   0.985 -0.4050 -1.2687 -1.0088
   34OCT    H13  862   0.410   1.881   0.991 -0.4971 -0.5911  1.7655
   34OCT     C2  863   0.426   1.996   1.179 -0.3834  0.1068 -0.2507
   34OCT    H21  864   0.353   2.023   1.256  0.6650 -0.4309  0.3978
   34OCT    H22  865   0.482   1.899   1.217  2.2853 -1.4935  4.6072
   34OCT     C3  866   0.519   2.118   1.151  1.3573  0.1912  0.5699
   34OCT    H31  867   0.592   2.099   1.072 -0.4700  0.4762  0.3015
   34OCT    H32  868   0.452   2.201   1.118 -0.6907  1.2865  1.0004
   34OCT     C4  869   0.590   2.168   1.278 -0.0134  0.6817  0.2955
   34OCT    H41  870   0.608   2.271   1.262  0.7147 -1.8069 -0.3159
   34OCT    H42  871   0.523   2.152   1.368  3.1119  0.4675 -1.0123
   34OCT     C5  872   0.726   2.091   1.296 -0.3575 -0.8745  0.0067
   34OCT    H51  873   0.694   1.991   1.327 -2.4106  1.3516  0.1518
   34OCT    H52  874   0.771   2.088   1.196  0.8458 -1.6634 -0.4379
   34OCT     C6  875   0.809   2.157   1.405 -0.0023 -0.1883 -0.2243
   34OCT    H61  876   0.832   2.265   1.392 -1.3969 -0.3583  0.4693
   34OCT    H62  877   0.756   2.152   1.502  0.3982  0.4616 -0.4720
   34OCT     C7  878   0.939   2.078   1.431  0.7452 -0.1826  0.0757
   34OCT    H71  879   0.919   1.974   1.452 -0.9146  0.6074 -1.8340
   34OCT    H72  880   0.983   2.056   1.332 -1.4390 -0.9864 -2.1595
   34OCT     C8  881   1.038   2.147   1.526  0.4055 -0.0185 -0.8828
   34OCT    H81  882   1.011   2.135   1.632  3.3219 -1.4028  0.6693
   34OCT    H82  883   1.141   2.106   1.523  1.5224 -0.5589  0.3081
   34OCT    H83  884   1.048   2.253   1.502  0.0690 -1.1282  0.6980
   35OCT     C1  885   3.723   1.109   0.062  0.5468  0.0306  0.1293
   35OCT    H11  886   3.798   1.157  -0.007  2.0453 -0.4125 -0.2457
   35OCT    H12  887   3.729   0.998   0.042  1.5316 -0.0258 -1.8109
   35OCT    H13  888   3.620   1.148   0.051  1.1148  0.8449  1.2923
   35OCT     C2  889   3.759   1.145   0.212 -0.4961 -0.2587 -0.0584
   35OCT    H21  890   3.769   1.251   0.210  1.1375 -1.9221  0.4421
   35OCT    H22  891   3.675   1.127   0.283 -0.8034 -1.9476  0.1766
   35OCT     C3  892   3.887   1.093   0.268 -0.2766 -0.5737 -0.2221
   35OCT    H31  893   3.893   1.119   0.381 -1.8611  1.7454  1.8452
   35OCT    H32  894   3.868   0.975   0.269 -1.6245 -1.6380  1.4601
   35OCT     C4  895   4.022   1.125   0.201 -0.7943  0.3090 -0.4416
   35OCT    H41  896   4.105   1.078   0.263  0.8075 -1.2251  0.2815
   35OCT    H42  897   4.018   1.085   0.098 -1.6491  1.1930  0.7034
   35OCT     C5  898   4.059   1.272   0.192  0.3260 -0.3992 -0.0291
   35OCT    H51  899   4.154   1.297   0.142  2.3570 -1.1293 -1.3883
   35OCT    H52  900   3.984   1.316   0.115 -1.9897 -0.0876  0.8000
   35OCT     C6  901   4.055   1.346   0.328  0.2719 -0.8126  0.3404
   35OCT    H61  902   3.955   1.342   0.371  1.0868  0.4676  0.2662
   35OCT    H62  903   4.116   1.292   0.393 -2.3040  1.0033 -0.3344
   35OCT     C7  904   4.116   1.492   0.332  1.2338  0.1916 -0.6775
   35OCT    H71  905   4.220   1.486   0.306 -1.2572  0.8194  1.8000
   35OCT    H72  906   4.038   1.535   0.265 -2.0315 -0.8613  3.0830
   35OCT     C8  907   4.102   1.551   0.470 -0.7277 -0.2533 -0.1518
   35OCT    H81  908   4.149   1.656   0.478  2.0504  1.5167  0.2832
   35OCT    H82  909   4.005   1.557   0.506  1.7421 -1.6136 -2.0892
   35OCT    H83  910   4.157   1.489   0.543 -0.0773  3.2860  0.1558
   36OCT     C1  911   0.509   2.252   0.485 -0.4237  0.0944  0.0057
   36OCT    H11  912   0.431   2.295   0.418 -2.4137 -0.6061  2.0274
   36OCT    H12  913   0.450   2.242   0.586 -4.0314 -0.6532  1.9125
   36OCT    H13  914   0.589   2.333   0.485 -3.5065  0.4160 -1.9078
   36OCT     C2  915   0.572   2.120   0.451 -0.6370  0.8937 -0.3113
   36OCT    H21  916   0.672   2.103   0.505  0.4835  0.4398 -2.1776
   36OCT    H22  917   0.505   2.041   0.488  2.6229  1.3437 -0.6234
   36OCT     C3  918   0.595   2.107   0.301 -0.6473 -0.2638 -0.2109
   36OCT    H31  919   0.498   2.112   0.251 -0.4427 -2.3682  0.1424
   36OCT    H32  920   0.669   2.181   0.272  0.0309 -1.2867  1.3822
   36OCT     C4  921   0.668   1.975   0.263  0.4960 -0.6463 -0.3423
   36OCT    H41  922   0.770   1.978   0.322  1.9388  1.2868  0.6484
   36OCT    H42  923   0.612   1.892   0.311  1.8197  0.8804  1.2387
   36OCT     C5  924   0.692   1.952   0.116 -0.4681 -0.3092  0.4983
   36OCT    H51  925   0.601   1.970   0.055 -1.1554 -2.0546 -2.0953
   36OCT    H52  926   0.753   2.039   0.082 -0.2377  0.0821  0.6699
   36OCT     C6  927   0.749   1.815   0.090 -0.1007 -1.0570 -0.9311
   36OCT    H61  928   0.849   1.805   0.139  1.8989  0.8048 -0.9194
   36OCT    H62  929   0.682   1.747   0.148  1.0587  1.0580 -2.7913
   36OCT     C7  930   0.756   1.784  -0.056 -0.2355  0.3334  0.1312
   36OCT    H71  931   0.655   1.814  -0.103 -1.7459  0.6091 -0.6833
   36OCT    H72  932   0.829   1.849  -0.100 -0.6066 -1.4217 -0.0981
   36OCT     C8  933   0.787   1.635  -0.086 -0.2769 -0.2308 -0.6039
   36OCT    H81  934   0.822   1.626  -0.192 -2.0550 -0.8424 -0.8807
   36OCT    H82  935   0.877   1.620  -0.023 -0.4844  0.9548 -0.9564
   36OCT    H83  936   0.703   1.561  -0.071 -0.6205 -1.8796 -0.7294
   37OCT     C1  937   4.347   1.038   1.061 -0.6567 -0.3081 -0.4917
   37OCT    H11  938   4.428   1.047   1.144  0.3844  1.0652 -2.5476
   37OCT    H12  939   4.362   1.132   1.002 -1.7846  1.6117  0.1369
   37OCT    H13  940   4.248   1.051   1.119 -1.8118  0.2031  2.0324
   37OCT     C2  941   4.348   0.917   0.970  0.5017 -0.0790  0.1718
   37OCT    H21  942   4.295   0.939   0.877  0.7481  1.4552  0.6769
   37OCT    H22  943   4.453   0.893   0.941 -0.6422  1.5622 -0.9245
   37OCT     C3  944   4.291   0.799   1.043 -0.0648  0.6065  0.7574
   37OCT    H31  945   4.345   0.776   1.132 -1.3016  3.8773 -2.2398
   37OCT    H32  946   4.179   0.826   1.067 -0.1202 -0.7139  0.2367
   37OCT     C4  947   4.289   0.681   0.949 -0.3110  0.4338  0.0757
   37OCT    H41  948   4.235   0.720   0.865 -1.2659  0.0590  0.5931
   37OCT    H42  949   4.394   0.654   0.904  1.1567  0.4008 -1.6072
   37OCT     C5  950   4.238   0.549   1.008  0.2711 -0.0618  0.6700
   37OCT    H51  951   4.312   0.496   1.063 -0.4469 -1.5988 -0.7016
   37OCT    H52  952   4.162   0.586   1.072 -0.5285  0.2567 -1.8317
   37OCT     C6  953   4.187   0.464   0.895 -0.2207  0.6232  0.3784
   37OCT    H61  954   4.106   0.522   0.837  0.4673  1.7288 -2.8421
   37OCT    H62  955   4.258   0.434   0.816 -2.1963 -0.1196  0.1404
   37OCT     C7  956   4.118   0.336   0.954  0.6392  0.0138  0.1691
   37OCT    H71  957   4.049   0.381   1.032  1.5268  2.2056 -0.0768
   37OCT    H72  958   4.059   0.274   0.888  0.5442 -0.5538  2.1274
   37OCT     C8  959   4.219   0.235   0.998  0.4149 -0.3083 -0.0040
   37OCT    H81  960   4.279   0.215   0.913 -1.7693  1.1477  1.4057
   37OCT    H82  961   4.275   0.271   1.086  0.0344  1.2787  2.6752
   37OCT    H83  962   4.165   0.143   1.039 -0.7614  0.0575 -2.2539
   38OCT     C1  963   1.169   1.648   4.083  0.7457  0.3089 -0.0291
   38OCT    H11  964   1.148   1.616   3.982  0.8100  0.7120 -1.3942
   38OCT    H12  965   1.281   1.670   4.089  3.9901  0.9229  1.5128
   38OCT    H13  966   1.136   1.559   4.144  1.3391 -2.1202 -0.0833
   38OCT     C2  967   1.085   1.776   4.083  0.5726  0.7151  0.7522
   38OCT    H21  968   1.092   1.824   3.979  2.2541 -2.0559 -1.4950
   38OCT    H22  969   0.980   1.748   4.097 -0.8877  2.0360 -2.0389
   38OCT     C3  970   1.127   1.877   4.186  0.4652  0.3104  0.1250
   38OCT    H31  971   1.097   1.847   4.286  0.4247  0.0948  0.4455
   38OCT    H32  972   1.238   1.886   4.188 -0.1266 -0.3550 -0.0742
   38OCT     C4  973   1.074   2.022   4.163  0.0222  0.5718 -0.6107
   38OCT    H41  974   1.142   2.082   4.099  0.5121  1.0876  0.6858
   38OCT    H42  975   0.988   2.006   4.104  3.1695 -0.2103  0.0710
   38OCT     C5  976   1.049   2.094   4.293 -0.3886 -0.1350  0.1743
   38OCT    H51  977   0.969   2.038   4.344  1.2644  0.7540  3.6698
   38OCT    H52  978   1.143   2.082   4.361  2.5007 -1.0121  0.8374
   38OCT     C6  979   1.011   2.241   4.288  0.2741 -0.6974  0.2053
   38OCT    H61  980   1.101   2.294   4.259 -1.1174  1.0055  0.0976
   38OCT    H62  981   0.935   2.257   4.213 -1.2400 -0.2341 -0.5928
   38OCT     C7  982   0.974   2.293   4.431 -0.5396  0.0602  0.0033
   38OCT    H71  983   0.907   2.220   4.479  0.2416  0.1700 -0.4602
   38OCT    H72  984   1.068   2.288   4.493  1.3350  0.2805 -2.3729
   38OCT     C8  985   0.909   2.431   4.423 -0.7054  0.0959  0.0448
   38OCT    H81  986   0.884   2.458   4.529 -0.7401 -0.1245  1.8213
   38OCT    H82  987   0.999   2.501   4.392  3.7663  0.8722  1.3092
   38OCT    H83  988   0.826   2.432   4.352 -1.1975 -0.7473  0.7274
   39OCT     C1  989   2.004   1.175   3.828  0.4970 -0.4840 -0.2369
   39OCT    H11  990   1.989   1.071   3.789 -0.9058  1.3375 -1.7891
   39OCT    H12  991   1.980   1.249   3.746  0.3925 -0.1313  1.4913
   39OCT    H13  992   2.108   1.186   3.854  1.4916 -1.6251  0.2808
   39OCT     C2  993   1.900   1.195   3.939  0.5119  0.1019 -0.2484
   39OCT    H21  994   1.900   1.107   4.003 -0.2137  0.8870 -0.8354
   39OCT    H22  995   1.930   1.279   4.001  0.5158  1.5032  0.7221
   39OCT     C3  996   1.760   1.212   3.877  0.1937  0.2778  0.3009
   39OCT    H31  997   1.690   1.233   3.963  0.2879 -2.1242 -1.1526
   39OCT    H32  998   1.755   1.311   3.824  3.0262  1.5004 -0.8622
   39OCT     C4  999   1.703   1.095   3.790  0.6230  0.5916  0.2950
   39OCT    H41 1000   1.761   1.087   3.694  1.7133 -3.3615 -2.4493
   39OCT    H42 1001   1.722   1.005   3.847  1.4350  0.0742 -2.1182
   39OCT     C5 1002   1.551   1.121   3.745  0.4203  0.2539 -0.2007
   39OCT    H51 1003   1.483   1.124   3.832 -1.7937  0.7467 -1.7397
   39OCT    H52 1004   1.539   1.216   3.692  1.5521  2.0454 -0.8761
   39OCT     C6 1005   1.501   1.007   3.656 -0.4629  0.1635 -0.2388
   39OCT    H61 1006   1.522   0.902   3.692 -1.8791 -0.6819  0.7146
   39OCT    H62 1007   1.395   1.009   3.642  1.6825 -0.2816  0.2238
   39OCT     C7 1008   1.570   1.013   3.511  0.5341  0.4529 -0.4721
   39OCT    H71 1009   1.680   0.988   3.510  0.0284  2.5241 -1.5100
   39OCT    H72 1010   1.525   0.931   3.448  0.3577  0.2460 -0.8233
   39OCT     C8 1011   1.549   1.147   3.432  1.1765 -0.0184  0.3388
   39OCT    H81 1012   1.591   1.229   3.492  1.9350 -1.6262  0.6900
   39OCT    H82 1013   1.603   1.126   3.336  0.2282 -0.6927 -2.4915
   39OCT    H83 1014   1.436   1.158   3.421 -2.1826 -2.1375 -1.6456
   40OCT     C1 1015   3.105   0.166   0.187  0.5054 -0.0962 -0.1128
   40OCT    H11 1016   3.188   0.097   0.201 -0.5912  1.6028 -2.3358
   40OCT    H12 1017   3.120   0.237   0.100  2.1009  2.7870  1.5793
   40OCT    H13 1018   3.085   0.234   0.274  1.3171  2.1328  0.0618
   40OCT     C2 1019   2.983   0.078   0.160  0.1344 -0.2397  0.2835
   40OCT    H21 1020   2.981   0.003   0.239  0.1178  2.5022 -1.5881
   40OCT    H22 1021   2.892   0.137   0.170  4.6191  1.7045  0.2172
   40OCT     C3 1022   2.985  -0.012   0.038 -0.1312 -0.7537 -0.2691
   40OCT    H31 1023   2.995   0.048  -0.051  0.8726 -0.6373  1.7289
   40OCT    H32 1024   3.070  -0.084   0.047 -0.9330 -0.0235  2.1164
   40OCT     C4 1025   2.855  -0.100   0.028 -0.6544 -0.3074 -0.2517
   40OCT    H41 1026   2.837  -0.163   0.113 -1.9539 -2.7697  0.0099
   40OCT    H42 1027   2.768  -0.026   0.021 -0.4250 -0.7251  2.1388
   40OCT     C5 1028   2.842  -0.191  -0.089 -0.4008 -0.1749  0.5644
   40OCT    H51 1029   2.822  -0.134  -0.182  0.9662  0.0241 -0.2895
   40OCT    H52 1030   2.939  -0.241  -0.098 -2.4548 -2.7618  1.0608
   40OCT     C6 1031   2.723  -0.289  -0.085  0.4902  0.5688  0.1375
   40OCT    H61 1032   2.738  -0.344   0.012 -0.4160  1.9273  2.3812
   40OCT    H62 1033   2.627  -0.228  -0.079 -1.9006  0.7873  0.9159
   40OCT     C7 1034   2.720  -0.403  -0.193 -0.1475 -0.8695 -0.5100
   40OCT    H71 1035   2.730  -0.348  -0.288  0.7144  0.1067 -1.8959
   40OCT    H72 1036   2.817  -0.463  -0.191 -1.2914 -1.7691  1.4087
   40OCT     C8 1037   2.594  -0.492  -0.199 -0.4275  0.3689 -0.1931
   40OCT    H81 1038   2.581  -0.565  -0.115 -1.9023  1.6673  0.2211
   40OCT    H82 1039   2.508  -0.428  -0.214  0.0535 -2.5318  0.1324
   40OCT    H83 1040   2.610  -0.561  -0.286 -0.6372 -2.0658 -0.6335
   41OCT     C1 1041   3.665   0.235   2.226 -0.4388  0.0900  0.6213
   41OCT    H11 1042   3.635   0.198   2.128  1.4961  0.0801  0.9512
   41OCT    H12 1043   3.663   0.150   2.302 -0.1876 -0.4025  1.9901
   41OCT    H13 1044   3.598   0.311   2.266  1.4638 -0.8305  2.5064
   41OCT     C2 1045   3.811   0.283   2.202  0.0668 -0.1487 -0.2568
   41OCT    H21 1046   3.856   0.190   2.161 -2.0995 -2.7162 -0.6295
   41OCT    H22 1047   3.816   0.357   2.125  0.7709  0.7298  2.2779
   41OCT     C3 1048   3.875   0.328   2.331  0.3004  0.5933 -0.1433
   41OCT    H31 1049   3.854   0.241   2.400 -0.8174  1.2680  0.0779
   41OCT    H32 1050   3.980   0.347   2.317 -0.5326  1.0100 -1.2041
   41OCT     C4 1051   3.808   0.459   2.382 -0.6056 -0.1522 -0.3034
   41OCT    H41 1052   3.798   0.539   2.306  0.2439 -1.4029 -1.1718
   41OCT    H42 1053   3.715   0.433   2.431  2.6108 -3.5413  0.2298
   41OCT     C5 1054   3.889   0.522   2.501 -0.1831 -0.2678 -0.3425
   41OCT    H51 1055   4.000   0.531   2.470  2.3512  0.2456 -2.8386
   41OCT    H52 1056   3.869   0.636   2.513  1.4812  2.8817  2.1226
   41OCT     C6 1057   3.863   0.470   2.642  0.7642 -0.5258  0.1982
   41OCT    H61 1058   3.760   0.495   2.676  0.0108  0.7980 -0.4473
   41OCT    H62 1059   3.858   0.357   2.646  0.7624  1.6262  2.2965
   41OCT     C7 1060   3.963   0.528   2.736 -0.3421  0.0668  0.6155
   41OCT    H71 1061   4.063   0.504   2.686  0.1181  0.3404 -0.1881
   41OCT    H72 1062   3.946   0.641   2.742 -0.8372  3.3863 -2.1098
   41OCT     C8 1063   3.955   0.462   2.876 -0.0019 -0.2066 -0.6532
   41OCT    H81 1064   3.874   0.487   2.944  0.6113 -1.6275  4.8714
   41OCT    H82 1065   3.950   0.353   2.865 -0.8886  1.8877 -0.7487
   41OCT    H83 1066   4.052   0.488   2.929  0.7401 -2.8229  1.3560
   42OCT     C1 1067   0.363   0.146   3.328  0.0215  0.2813 -0.6865
   42OCT    H11 1068   0.311   0.097   3.237 -0.7052 -2.6570 -3.8410
   42OCT    H12 1069   0.335   0.092   3.421  1.4456 -2.6030 -0.8917
   42OCT    H13 1070   0.340   0.254   3.333  0.1353  0.8608 -1.2602
   42OCT     C2 1071   0.512   0.125   3.312  0.7296  0.1129 -0.7768
   42OCT    H21 1072   0.518   0.022   3.353 -2.3413 -0.2499  1.8136
   42OCT    H22 1073   0.537   0.124   3.202  0.5567  0.0843 -3.6511
   42OCT     C3 1074   0.607   0.224   3.387  0.0300 -0.2055 -0.2814
   42OCT    H31 1075   0.600   0.317   3.318  0.1039 -0.7197 -0.6137
   42OCT    H32 1076   0.566   0.250   3.487  0.4700 -1.1287  1.3869
   42OCT     C4 1077   0.752   0.175   3.394 -0.6622  0.2035  0.4787
   42OCT    H41 1078   0.758   0.074   3.439  1.4079  1.9563 -0.0609
   42OCT    H42 1079   0.785   0.177   3.288 -1.1796 -0.9968  2.4047
   42OCT     C5 1080   0.841   0.266   3.478 -0.6291 -0.7362  0.5267
   42OCT    H51 1081   0.856   0.364   3.443  0.2253 -2.1442 -0.4297
   42OCT    H52 1082   0.792   0.269   3.580 -1.5402 -2.9947 -0.1667
   42OCT     C6 1083   0.981   0.208   3.506  0.1582 -0.0303  0.6105
   42OCT    H61 1084   1.039   0.274   3.572 -1.5815 -0.7583  1.2451
   42OCT    H62 1085   0.970   0.120   3.568 -1.6289  0.9728  0.2128
   42OCT     C7 1086   1.065   0.169   3.379 -0.2423 -0.0753 -0.0320
   42OCT    H71 1087   1.154   0.114   3.409  0.8434 -0.9770 -0.2896
   42OCT    H72 1088   1.015   0.096   3.310  0.9747 -0.2183 -0.2911
   42OCT     C8 1089   1.099   0.290   3.287  0.2760 -0.0253 -0.2292
   42OCT    H81 1090   1.002   0.342   3.257 -1.7058  3.3142  0.4927
   42OCT    H82 1091   1.161   0.361   3.343 -1.6255  0.4556  0.3664
   42OCT    H83 1092   1.154   0.269   3.192 -1.1708 -0.1652  0.8077
   43OCT     C1 1093   1.981   0.860   0.243  0.1890  0.0750 -0.1897
   43OCT    H11 1094   2.080   0.821   0.221 -0.0495 -1.7158 -0.5021
   43OCT    H12 1095   1.955   0.839   0.350 -0.1891  3.3515  0.7928
   43OCT    H13 1096   1.904   0.819   0.178 -0.1013 -0.5170 -0.2119
   43OCT     C2 1097   1.968   1.012   0.229 -0.9593  0.0188  0.0596
   43OCT    H21 1098   2.007   1.060   0.326  2.4447 -0.5240 -1.9018
   43OCT    H22 1099   2.030   1.053   0.147 -0.1929 -2.1263  1.7041
   43OCT     C3 1100   1.817   1.059   0.233 -0.7410  0.3079 -1.0699
   43OCT    H31 1101   1.777   1.018   0.134 -0.6816  0.4983  2.0331
   43OCT    H32 1102   1.763   1.012   0.321  1.4293 -0.4696 -0.1526
   43OCT     C4 1103   1.791   1.214   0.234  0.3588  0.3672  0.7555
   43OCT    H41 1104   1.830   1.269   0.321 -0.2853  0.2351 -3.0717
   43OCT    H42 1105   1.850   1.247   0.141 -1.5129  0.7946 -1.5170
   43OCT     C5 1106   1.645   1.249   0.232 -0.1841  0.1914  0.0766
   43OCT    H51 1107   1.610   1.225   0.132  2.4329  1.0384 -0.1882
   43OCT    H52 1108   1.594   1.182   0.313 -0.9610 -0.2508 -1.7226
   43OCT     C6 1109   1.619   1.389   0.259 -0.0599  0.1052 -0.1595
   43OCT    H61 1110   1.665   1.419   0.361  0.6758  2.1182  0.6692
   43OCT    H62 1111   1.666   1.450   0.189 -2.5175 -3.6767  1.5816
   43OCT     C7 1112   1.469   1.439   0.245 -0.0633  0.9643 -0.5530
   43OCT    H71 1113   1.483   1.550   0.245 -0.2403  0.9313  2.3190
   43OCT    H72 1114   1.425   1.409   0.148  0.3602 -1.9601 -0.2227
   43OCT     C8 1115   1.381   1.396   0.358 -0.0582 -0.6931  0.5971
   43OCT    H81 1116   1.368   1.286   0.347 -1.4869 -1.8646  0.9513
   43OCT    H82 1117   1.416   1.420   0.457 -0.0348 -1.3473 -1.6939
   43OCT    H83 1118   1.275   1.450   0.345 -4.2470  1.9999 -1.7034
   44OCT     C1 1119   3.055   2.376   0.801  0.2034  0.2009  0.3319
   44OCT    H11 1120   3.006   2.290   0.759  2.6597  1.3216 -2.1817
   44OCT    H12 1121   3.134   2.348   0.873  1.0460  0.1064 -0.2619
   44OCT    H13 1122   2.977   2.423   0.860  0.0155 -1.1494  1.3520
   44OCT     C2 1123   3.107   2.465   0.687 -0.1009 -0.7100  0.3867
   44OCT    H21 1124   3.188   2.409   0.646 -2.7504  0.9376 -0.2362
   44OCT    H22 1125   3.036   2.464   0.606  1.8355 -1.1790  0.4375
   44OCT     C3 1126   3.144   2.607   0.714  0.2731 -0.6184 -0.9396
   44OCT    H31 1127   3.057   2.646   0.769  2.7797 -3.8096  0.6249
   44OCT    H32 1128   3.229   2.597   0.786  1.0855  0.4711  1.0404
   44OCT     C4 1129   3.189   2.686   0.597  0.5336 -0.1406  0.6406
   44OCT    H41 1130   3.296   2.650   0.567  3.3299  2.0046  1.9055
   44OCT    H42 1131   3.116   2.685   0.516 -3.0881  0.8949 -0.4510
   44OCT     C5 1132   3.213   2.834   0.628  0.0462 -0.9723  0.0722
   44OCT    H51 1133   3.124   2.869   0.691  0.4802 -0.6980 -0.0409
   44OCT    H52 1134   3.303   2.852   0.690 -2.9968  0.8735  2.1236
   44OCT     C6 1135   3.237   2.924   0.506  0.0039 -0.5567  0.3292
   44OCT    H61 1136   3.304   2.865   0.441 -4.7788 -1.8826 -1.3229
   44OCT    H62 1137   3.141   2.933   0.446 -0.1202  0.5160  0.4921
   44OCT     C7 1138   3.296   3.060   0.543  0.1455 -0.2983 -0.8047
   44OCT    H71 1139   3.223   3.119   0.602 -3.0863  0.3639  3.2009
   44OCT    H72 1140   3.397   3.050   0.598  3.4394 -1.3557  0.3899
   44OCT     C8 1141   3.332   3.141   0.420 -0.3914  0.0693  0.2643
   44OCT    H81 1142   3.361   3.241   0.443 -1.1559 -1.0791 -2.1264
   44OCT    H82 1143   3.408   3.092   0.364  0.4904 -1.1509  0.9040
   44OCT    H83 1144   3.240   3.150   0.360 -0.9821 -0.3250  1.3377
   45OCT     C1 1145   0.856   1.250   1.551  0.1557  0.5963 -0.3282
   45OCT    H11 1146   0.837   1.292   1.654 -1.8374 -1.2012  0.7564
   45OCT    H12 1147   0.962   1.210   1.541  2.0654 -2.0249 -3.4054
   45OCT    H13 1148   0.846   1.329   1.478 -0.3310  0.8442  1.0788
   45OCT     C2 1149   0.750   1.146   1.509 -0.1412 -0.2364 -0.2815
   45OCT    H21 1150   0.729   1.072   1.584 -0.9954 -0.2833 -1.9192
   45OCT    H22 1151   0.652   1.195   1.501  0.9033  1.1197  1.0851
   45OCT     C3 1152   0.783   1.076   1.371 -0.6714 -1.1747 -0.5373
   45OCT    H31 1153   0.891   1.059   1.373  0.4814  2.7365 -0.7596
   45OCT    H32 1154   0.740   0.982   1.363  0.7527  3.3343  1.1319
   45OCT     C4 1155   0.735   1.162   1.253  0.3636 -0.1125  0.4149
   45OCT    H41 1156   0.623   1.167   1.261 -2.4089  2.5836 -0.4893
   45OCT    H42 1157   0.786   1.266   1.266  2.2588  2.8973 -0.0184
   45OCT     C5 1158   0.770   1.120   1.111  0.3375  0.0103 -0.1880
   45OCT    H51 1159   0.878   1.090   1.096 -0.3145 -0.1127 -0.3119
   45OCT    H52 1160   0.716   1.025   1.075  0.6205 -1.1871 -0.7792
   45OCT     C6 1161   0.748   1.234   1.009 -0.8502 -0.2082  0.5700
   45OCT    H61 1162   0.651   1.273   1.025  1.8378 -0.2866 -1.1782
   45OCT    H62 1163   0.831   1.308   1.022  2.8151 -0.6763  0.0382
   45OCT     C7 1164   0.766   1.198   0.863  0.9069  0.4562  0.2347
   45OCT    H71 1165   0.870   1.163   0.842 -1.8615 -0.6308 -1.0158
   45OCT    H72 1166   0.690   1.110   0.842 -1.7038 -2.8544  0.2549
   45OCT     C8 1167   0.724   1.325   0.786 -0.6053  1.0183 -0.1239
   45OCT    H81 1168   0.616   1.358   0.802  1.0407  1.5672 -1.3743
   45OCT    H82 1169   0.776   1.418   0.815  1.9139  0.2128  2.4164
   45OCT    H83 1170   0.735   1.306   0.677  0.2802  2.4232  0.1614
   46OCT     C1 1171   2.244   1.303   1.688 -0.4748 -1.3939 -0.3016
   46OCT    H11 1172   2.200   1.211   1.654 -0.3728  0.9362 -0.7831
   46OCT    H12 1173   2.241   1.288   1.797 -0.0710 -3.2964 -1.3894
   46OCT    H13 1174   2.190   1.397   1.661  1.2199  0.2633  1.9417
   46OCT     C2 1175   2.388   1.307   1.631  0.1091 -0.5340  0.0579
   46OCT    H21 1176   2.439   1.217   1.667  0.2277  0.5617 -0.1014
   46OCT    H22 1177   2.382   1.291   1.525 -2.5782  0.7745 -0.8968
   46OCT     C3 1178   2.471   1.438   1.663  0.1793  0.1782  0.7388
   46OCT    H31 1179   2.569   1.438   1.618 -1.1777 -0.5022  0.8823
   46OCT    H32 1180   2.417   1.517   1.606  1.8357 -0.5399  0.8583
   46OCT     C4 1181   2.493   1.482   1.807  0.4594  0.2358  0.1190
   46OCT    H41 1182   2.398   1.485   1.869  3.0910 -0.2054  3.1773
   46OCT    H42 1183   2.552   1.404   1.862  0.8640 -0.9012 -1.3912
   46OCT     C5 1184   2.563   1.617   1.815 -0.5216 -1.0107  0.4099
   46OCT    H51 1185   2.662   1.616   1.766  0.3863  0.8021  1.5976
   46OCT    H52 1186   2.502   1.695   1.762  1.7796  0.9017 -0.9184
   46OCT     C6 1187   2.582   1.666   1.954  0.9272  0.7685 -1.1297
   46OCT    H61 1188   2.503   1.620   2.023  0.9278  1.2849  2.4849
   46OCT    H62 1189   2.676   1.624   1.999  1.4485  1.9416 -2.8150
   46OCT     C7 1190   2.576   1.824   1.973  0.1391  0.6750 -0.3616
   46OCT    H71 1191   2.648   1.869   1.909  0.2406 -0.6116  2.3230
   46OCT    H72 1192   2.473   1.850   1.937 -0.7739  1.7123 -0.7421
   46OCT     C8 1193   2.585   1.867   2.114  0.2036  0.6377 -0.2385
   46OCT    H81 1194   2.501   1.813   2.162  2.1657 -3.0518 -1.8343
   46OCT    H82 1195   2.673   1.844   2.173 -2.2536 -1.5586  2.3358
   46OCT    H83 1196   2.573   1.972   2.127  0.2877 -0.8171 -1.6535
   47OCT     C1 1197   1.185   0.721   1.301 -0.8826 -1.1982 -0.8918
   47OCT    H11 1198   1.152   0.710   1.411 -1.6663  2.2155 -1.0768
   47OCT    H12 1199   1.249   0.630   1.281 -1.2495  0.0726  1.0152
   47OCT    H13 1200   1.248   0.814   1.294  0.2610  3.0607 -1.3094
   47OCT     C2 1201   1.061   0.721   1.215 -0.0800 -0.3589 -0.0472
   47OCT    H21 1202   1.018   0.625   1.233  1.8608  1.6851  0.5345
   47OCT    H22 1203   1.005   0.803   1.267  0.5446 -0.0258 -1.8831
   47OCT     C3 1204   1.092   0.748   1.070  0.3772  0.1631  0.3791
   47OCT    H31 1205   1.129   0.853   1.049 -0.6789  1.4289  0.2162
   47OCT    H32 1206   1.178   0.685   1.045  0.7443  2.1596 -0.9242
   47OCT     C4 1207   0.981   0.722   0.973 -0.4571  0.0362 -0.1775
   47OCT    H41 1208   0.935   0.620   1.000 -0.0675  0.7054 -0.5814
   47OCT    H42 1209   0.899   0.794   0.995 -0.0800 -1.4603 -1.9586
   47OCT     C5 1210   1.024   0.747   0.831 -0.1142  0.1301 -0.1952
   47OCT    H51 1211   1.134   0.746   0.819  1.3862 -0.8637  0.8716
   47OCT    H52 1212   0.977   0.667   0.767 -0.3414 -0.2280  1.6588
   47OCT     C6 1213   0.988   0.888   0.777  0.1396  0.0583 -0.2349
   47OCT    H61 1214   0.892   0.914   0.821  0.9249 -1.0248  0.5889
   47OCT    H62 1215   1.060   0.962   0.817  1.3712 -1.3376  1.5090
   47OCT     C7 1216   1.001   0.884   0.623 -0.8443  0.1055  0.7502
   47OCT    H71 1217   1.105   0.877   0.588  0.6492 -1.7907 -0.6869
   47OCT    H72 1218   0.940   0.793   0.594  1.1730 -0.3950  0.0162
   47OCT     C8 1219   0.958   1.014   0.557  0.3493  0.2988 -0.1779
   47OCT    H81 1220   1.036   1.086   0.584 -2.9530 -1.0257  0.5018
   47OCT    H82 1221   0.937   1.009   0.452 -1.9252 -0.1724  0.8988
   47OCT    H83 1222   0.869   1.053   0.605 -1.0610 -2.2987 -2.4068
   48OCT     C1 1223   0.368   1.779   0.090  0.3741  0.0076 -0.0868
   48OCT    H11 1224   0.423   1.821   0.180  0.8967  3.3728  0.1364
   48OCT    H12 1225   0.443   1.753   0.010  0.8577  0.6004 -0.4993
   48OCT    H13 1226   0.300   1.858   0.056 -0.2716  0.4713  1.1877
   48OCT     C2 1227   0.285   1.654   0.129 -0.0985  0.6974  0.3296
   48OCT    H21 1228   0.346   1.597   0.205 -0.6166 -1.1703 -0.6135
   48OCT    H22 1229   0.205   1.696   0.189  2.8762  0.2182 -0.6479
   48OCT     C3 1230   0.229   1.569   0.015  0.6213 -0.0921 -0.1157
   48OCT    H31 1231   0.177   1.641  -0.059 -1.0458  0.0476  0.6738
   48OCT    H32 1232   0.310   1.511  -0.029  0.5175  1.4101 -0.7273
   48OCT     C4 1233   0.105   1.478   0.054  0.5400 -0.2116  0.1529
   48OCT    H41 1234   0.096   1.412  -0.034  0.3586  0.1532 -0.5305
   48OCT    H42 1235   0.120   1.413   0.143 -0.9609 -2.3448 -0.8723
   48OCT     C5 1236  -0.029   1.555   0.075  0.0693 -0.5340  0.2089
   48OCT    H51 1237  -0.105   1.480   0.113 -1.9242 -1.0004  2.0023
   48OCT    H52 1238  -0.018   1.625   0.162  1.1539 -1.5700  2.0522
   48OCT     C6 1239  -0.083   1.622  -0.046 -0.3982 -0.0963 -0.5759
   48OCT    H61 1240  -0.024   1.720  -0.057  0.8965  2.3367 -2.0039
   48OCT    H62 1241  -0.078   1.572  -0.143  0.6322 -0.6749 -1.5961
   48OCT     C7 1242  -0.227   1.670  -0.025 -0.1484 -0.4101  0.1988
   48OCT    H71 1243  -0.296   1.584  -0.003 -0.8141 -0.0703  0.7688
   48OCT    H72 1244  -0.237   1.727   0.073  1.2984  0.4267 -0.0731
   48OCT     C8 1245  -0.269   1.747  -0.143  0.2335  0.1336  0.6502
   48OCT    H81 1246  -0.298   1.688  -0.235 -2.9047  2.3382  0.7879
   48OCT    H82 1247  -0.364   1.804  -0.115  0.5324  0.7286  0.3353
   48OCT    H83 1248  -0.187   1.812  -0.184  0.2917  1.8102 -1.8239
   49OCT     C1 1249   0.830   2.071   3.819  0.0939  0.0027  0.1590
   49OCT    H11 1250   0.900   2.150   3.791 -0.4241  1.1399  2.5969
   49OCT    H12 1251   0.730   2.086   3.779  1.4435  2.2363 -2.0994
   49OCT    H13 1252   0.827   2.076   3.934  0.1494  0.0336 -0.8665
   49OCT     C2 1253   0.876   1.933   3.774 -0.0235  0.4935 -0.1341
   49OCT    H21 1254   0.981   1.914   3.811  0.3941 -1.5010 -1.5522
   49OCT    H22 1255   0.811   1.852   3.819  0.0533 -0.4109  1.1628
   49OCT     C3 1256   0.879   1.908   3.627 -0.3273  0.2806  1.3191
   49OCT    H31 1257   0.785   1.923   3.565 -0.6719  0.6732 -1.1221
   49OCT    H32 1258   0.952   1.981   3.582  1.8741 -2.2922 -1.9673
   49OCT     C4 1259   0.929   1.769   3.580  0.2752  0.5606 -0.1310
   49OCT    H41 1260   1.026   1.753   3.628 -3.0388 -1.2425 -1.5175
   49OCT    H42 1261   0.851   1.684   3.613 -1.4004 -2.4786 -0.5816
   49OCT     C5 1262   0.951   1.754   3.435 -0.1010 -0.0382 -0.0376
   49OCT    H51 1263   1.016   1.836   3.395  1.0912 -0.5728 -0.3356
   49OCT    H52 1264   1.021   1.671   3.412  1.7354  1.5487 -1.6636
   49OCT     C6 1265   0.825   1.713   3.356  0.0835  0.0658  0.1283
   49OCT    H61 1266   0.787   1.623   3.400 -0.3602 -0.9903  1.0948
   49OCT    H62 1267   0.741   1.789   3.368 -1.3375  0.4439 -1.5137
   49OCT     C7 1268   0.872   1.706   3.205 -0.0798  0.8155  0.1543
   49OCT    H71 1269   0.890   1.805   3.173 -1.4240 -0.4283  1.0841
   49OCT    H72 1270   0.974   1.651   3.199  3.1659  1.2988  0.4059
   49OCT     C8 1271   0.780   1.626   3.116 -0.4906 -0.2915  0.2017
   49OCT    H81 1272   0.823   1.591   3.021  1.6043  0.9512 -0.5528
   49OCT    H82 1273   0.734   1.545   3.177  2.3001 -1.1314  1.0306
   49OCT    H83 1274   0.687   1.684   3.091 -2.4642 -4.6944  0.1451
   50OCT     C1 1275   3.416   2.659   4.018  0.0486  0.2149 -0.2546
   50OCT    H11 1276   3.335   2.674   3.945  0.2899  0.6447  1.1411
   50OCT    H12 1277   3.456   2.559   4.017  0.6785  1.2328 -0.9793
   50OCT    H13 1278   3.355   2.666   4.113 -1.6888  4.1362 -0.3038
   50OCT     C2 1279   3.524   2.771   4.018  0.0704  0.0161 -0.2545
   50OCT    H21 1280   3.604   2.739   4.089  1.3550 -0.0574 -1.3450
   50OCT    H22 1281   3.573   2.783   3.924  0.8658  1.2244  0.7713
   50OCT     C3 1282   3.464   2.899   4.078  0.3702 -0.2185 -0.5408
   50OCT    H31 1283   3.403   2.941   3.991 -1.6008 -2.0346  0.1606
   50OCT    H32 1284   3.390   2.866   4.161 -1.6299 -0.6986 -1.2126
   50OCT     C4 1285   3.570   2.999   4.139  0.2202 -0.1206  0.7090
   50OCT    H41 1286   3.513   3.090   4.172  1.3550  1.8674  2.1762
   50OCT    H42 1287   3.590   2.965   4.246  0.6341  4.3625  3.1214
   50OCT     C5 1288   3.690   3.019   4.047 -0.0548 -0.2645 -0.6045
   50OCT    H51 1289   3.758   3.081   4.106 -1.6344 -0.8511  0.1321
   50OCT    H52 1290   3.743   2.925   4.026 -0.1482  1.1775 -0.3632
   50OCT     C6 1291   3.666   3.085   3.910 -0.1579  0.2684 -0.0259
   50OCT    H61 1292   3.597   3.023   3.859  1.3480 -0.3642  0.7708
   50OCT    H62 1293   3.633   3.189   3.938  0.5698  0.6464  3.3911
   50OCT     C7 1294   3.790   3.091   3.821 -0.0399 -0.2156  0.2327
   50OCT    H71 1295   3.832   2.991   3.793  0.0974 -2.3871 -2.2674
   50OCT    H72 1296   3.756   3.136   3.722  1.0397 -2.1161 -2.7149
   50OCT     C8 1297   3.904   3.174   3.891  0.3080  0.2225 -0.0898
   50OCT    H81 1298   3.939   3.121   3.974 -3.9080  2.1117 -0.2896
   50OCT    H82 1299   3.991   3.196   3.831 -3.3855  2.3213  0.4731
   50OCT    H83 1300   3.864   3.262   3.941  1.5301 -1.4311  2.5251
   51OCT     C1 1301   2.927   3.376   2.067 -0.1454 -0.0603 -0.1873
   51OCT    H11 1302   2.841   3.444   2.041  1.4820  0.3896 -0.7942
   51OCT    H12 1303   2.916   3.278   2.020  1.8255  0.4002 -1.3157
   51OCT    H13 1304   2.928   3.372   2.183  3.1975 -1.9642  0.0288
   51OCT     C2 1305   3.060   3.435   2.032  0.1753 -0.0393  0.0768
   51OCT    H21 1306   3.067   3.469   1.924  1.7270  2.2847 -0.9798
   51OCT    H22 1307   3.072   3.526   2.102 -1.5502 -0.2159  1.9189
   51OCT     C3 1308   3.175   3.338   2.072  0.3290 -0.3601  0.9295
   51OCT    H31 1309   3.178   3.298   2.175  1.6853 -1.2564  0.5023
   51OCT    H32 1310   3.153   3.249   2.000  2.7855 -1.3736 -0.0289
   51OCT     C4 1311   3.320   3.394   2.045 -1.1976 -0.8782  0.2888
   51OCT    H41 1312   3.344   3.403   1.936  0.0205  0.5103 -1.0649
   51OCT    H42 1313   3.325   3.495   2.090 -2.9924  0.3563 -3.3864
   51OCT     C5 1314   3.428   3.312   2.110  0.4773  0.7174  0.7592
   51OCT    H51 1315   3.412   3.317   2.218  1.8974  0.1714  0.0917
   51OCT    H52 1316   3.413   3.210   2.070  1.2535 -0.1703  0.1522
   51OCT     C6 1317   3.573   3.360   2.077  1.1368  0.5095  0.1800
   51OCT    H61 1318   3.650   3.299   2.132 -0.0530  0.7559 -0.5824
   51OCT    H62 1319   3.596   3.340   1.971 -2.2040  1.8228  0.3785
   51OCT     C7 1320   3.600   3.506   2.094 -0.0262 -0.2896  0.8048
   51OCT    H71 1321   3.531   3.568   2.032  0.3431 -0.8225 -0.9880
   51OCT    H72 1322   3.569   3.537   2.193 -1.6407 -0.9912 -0.7604
   51OCT     C8 1323   3.745   3.550   2.068 -0.0559 -0.9338 -0.7451
   51OCT    H81 1324   3.806   3.531   2.159  0.2085  3.1885 -1.8744
   51OCT    H82 1325   3.791   3.509   1.974  0.4472 -0.6624 -0.9470
   51OCT    H83 1326   3.752   3.666   2.049  0.2028  4.2287 -1.2067
   52OCT     C1 1327   1.144   1.399   3.421  0.1635 -0.1022 -0.0097
   52OCT    H11 1328   1.166   1.475   3.344  1.5744 -1.3775 -3.8442
   52OCT    H12 1329   1.179   1.420   3.522  0.1792 -0.1244  1.4134
   52OCT    H13 1330   1.220   1.318   3.393  2.1831  0.9965 -1.0605
   52OCT     C2 1331   0.992   1.373   3.417  0.0499  0.1526 -0.4632
   52OCT    H21 1332   0.972   1.289   3.490  1.0204 -1.9369 -0.1393
   52OCT    H22 1333   0.944   1.456   3.462 -0.2082  1.0437 -1.1985
   52OCT     C3 1334   0.933   1.331   3.282 -0.3303 -0.6003 -0.7505
   52OCT    H31 1335   0.826   1.367   3.284 -0.2032 -1.4539  1.8248
   52OCT    H32 1336   0.992   1.387   3.208 -2.8859 -1.2689  3.6329
   52OCT     C4 1337   0.947   1.181   3.256 -0.5092 -0.1452 -0.0633
   52OCT    H41 1338   1.054   1.147   3.253 -1.3787 -0.6832 -0.6560
   52OCT    H42 1339   0.892   1.124   3.335  0.1013  3.4940 -0.0804
   52OCT     C5 1340   0.881   1.142   3.122  0.1861 -0.6363  0.4001
   52OCT    H51 1341   0.914   1.207   3.032  1.3162  2.2195 -1.8667
   52OCT    H52 1342   0.895   1.035   3.090 -2.1638 -0.8318  0.6274
   52OCT     C6 1343   0.722   1.163   3.122 -0.0784 -0.3596 -0.4313
   52OCT    H61 1344   0.678   1.099   3.200 -0.3775  1.7957 -0.2983
   52OCT    H62 1345   0.688   1.269   3.131 -2.0799 -0.7041 -1.5249
   52OCT     C7 1346   0.661   1.103   2.992  0.2491  0.4626  0.1682
   52OCT    H71 1347   0.706   1.153   2.908 -2.5883 -0.8099  2.4545
   52OCT    H72 1348   0.687   0.996   2.992 -0.3495  1.3319  2.3275
   52OCT     C8 1349   0.503   1.116   3.001 -0.1216 -0.5660  0.5171
   52OCT    H81 1350   0.462   1.120   2.896  1.0473  1.7264 -0.8646
   52OCT    H82 1351   0.461   1.038   3.063 -1.6516  0.8180 -1.5157
   52OCT    H83 1352   0.475   1.219   3.036  0.4476  2.0805 -0.8699
   53OCT     C1 1353   0.946   2.990   2.244 -0.4732 -0.1801  0.1987
   53OCT    H11 1354   0.939   3.031   2.352  2.6948  1.0035  3.6823
   53OCT    H12 1355   1.058   2.998   2.209  0.6060 -1.7409  0.9046
   53OCT    H13 1356   0.890   3.056   2.181 -0.8612 -0.3556  3.0510
   53OCT     C2 1357   0.892   2.846   2.245  0.2103 -0.8197 -0.1963
   53OCT    H21 1358   0.921   2.791   2.146  0.9618 -1.4755 -0.9350
   53OCT    H22 1359   0.951   2.782   2.316  0.9207  0.4203 -1.3610
   53OCT     C3 1360   0.747   2.837   2.263  0.2436  0.0634  0.0926
   53OCT    H31 1361   0.715   2.907   2.347 -0.1331  0.6902 -0.1229
   53OCT    H32 1362   0.702   2.878   2.166 -1.6369  2.6271  0.5913
   53OCT     C4 1363   0.698   2.699   2.301 -0.2450  0.0498 -0.1535
   53OCT    H41 1364   0.763   2.624   2.257 -0.1112  1.7068 -1.8413
   53OCT    H42 1365   0.705   2.682   2.410 -0.8874 -0.8119  2.2510
   53OCT     C5 1366   0.555   2.667   2.256  0.8499 -0.3338 -0.6373
   53OCT    H51 1367   0.480   2.723   2.315  0.9381  0.5001 -0.4932
   53OCT    H52 1368   0.536   2.693   2.148 -0.3838 -0.9242 -0.7488
   53OCT     C6 1369   0.529   2.514   2.274 -0.2031 -0.1937 -0.2691
   53OCT    H61 1370   0.607   2.453   2.217 -1.4117 -0.4009  1.1669
   53OCT    H62 1371   0.527   2.489   2.378 -1.9936 -0.0942  0.3303
   53OCT     C7 1372   0.384   2.475   2.231 -0.0297  0.0886 -0.2951
   53OCT    H71 1373   0.365   2.392   2.296  0.9394  0.7654 -0.3672
   53OCT    H72 1374   0.320   2.555   2.284  0.5279  1.2777 -0.7081
   53OCT     C8 1375   0.362   2.469   2.083 -0.4030 -0.4231 -0.0603
   53OCT    H81 1376   0.431   2.397   2.038 -2.4137 -2.1623 -0.0172
   53OCT    H82 1377   0.259   2.438   2.056 -0.7027  0.9604 -1.8345
   53OCT    H83 1378   0.367   2.567   2.039  0.2432  1.9812  0.6178
   54OCT     C1 1379   0.449   1.528   3.381 -0.1774 -0.2207  0.2227
   54OCT    H11 1380   0.555   1.526   3.402 -0.6313 -0.2171 -1.1843
   54OCT    H12 1381   0.417   1.628   3.337  3.7988 -2.1627 -2.7503
   54OCT    H13 1382   0.397   1.511   3.480  0.7028 -0.6620 -0.1208
   54OCT     C2 1383   0.398   1.415   3.285  0.2569  0.4815  0.4923
   54OCT    H21 1384   0.449   1.435   3.188  1.7837  2.0181 -0.7879
   54OCT    H22 1385   0.444   1.321   3.315 -0.7267  1.5878 -1.9292
   54OCT     C3 1386   0.247   1.423   3.251 -0.8486 -0.3071 -0.1913
   54OCT    H31 1387   0.194   1.400   3.341 -1.3053  1.3442 -2.0522
   54OCT    H32 1388   0.215   1.520   3.214  0.2166 -1.8664  1.3138
   54OCT     C4 1389   0.191   1.313   3.155 -0.4753  0.2796  0.4288
   54OCT    H41 1390   0.090   1.328   3.115  0.6766 -0.0172  0.3849
   54OCT    H42 1391   0.262   1.304   3.070  4.4114 -3.4247  1.8801
   54OCT     C5 1392   0.190   1.168   3.220 -0.2772  0.5154  0.0316
   54OCT    H51 1393   0.295   1.153   3.251  1.5226  4.9724 -0.8230
   54OCT    H52 1394   0.128   1.164   3.312  2.8108  0.3713  1.8851
   54OCT     C6 1395   0.158   1.056   3.119  0.5267 -0.1089 -0.2591
   54OCT    H61 1396   0.047   1.071   3.098 -2.0206  1.5271 -0.8256
   54OCT    H62 1397   0.205   1.081   3.017  0.4481  0.5803 -0.5624
   54OCT     C7 1398   0.179   0.918   3.171 -0.3403 -0.3856 -0.1377
   54OCT    H71 1399   0.286   0.913   3.202 -2.6033  0.0493  0.0525
   54OCT    H72 1400   0.118   0.901   3.265 -1.3906 -0.7291  1.7583
   54OCT     C8 1401   0.161   0.801   3.078 -0.0869  0.5303 -0.1859
   54OCT    H81 1402   0.187   0.832   2.974 -1.1543  0.6302  0.0300
   54OCT    H82 1403   0.226   0.710   3.091  1.9236 -1.4583 -1.8116
   54OCT    H83 1404   0.055   0.775   3.066 -0.7859 -0.5950  0.2484
   55OCT     C1 1405   2.135   0.562   0.988  0.0481  0.6841 -0.0132
   55OCT    H11 1406   2.078   0.534   1.078 -1.3720 -3.4885 -2.1276
   55OCT    H12 1407   2.132   0.671   0.978  0.3953 -0.7826 -0.1779
   55OCT    H13 1408   2.082   0.528   0.896 -3.4346  1.7725 -2.4812
   55OCT     C2 1409   2.281   0.519   1.000  0.2643 -0.1995  0.3354
   55OCT    H21 1410   2.277   0.405   0.987  0.9401 -0.4194  0.2506
   55OCT    H22 1411   2.332   0.557   0.910  0.5380  0.8083  0.2212
   55OCT     C3 1412   2.357   0.539   1.133 -0.5400 -0.1345 -0.8434
   55OCT    H31 1413   2.336   0.637   1.179  0.3149 -0.7695 -0.9369
   55OCT    H32 1414   2.307   0.465   1.202  0.4532 -2.1596 -0.1432
   55OCT     C4 1415   2.506   0.505   1.122  0.7769  0.0911 -0.3436
   55OCT    H41 1416   2.530   0.420   1.057  0.6478 -1.3052  0.6979
   55OCT    H42 1417   2.552   0.588   1.059  0.4132  1.0596  0.1507
   55OCT     C5 1418   2.575   0.520   1.254 -0.0784  0.6543  0.0941
   55OCT    H51 1419   2.526   0.442   1.324 -2.4737 -1.9300  0.6434
   55OCT    H52 1420   2.679   0.485   1.242 -0.1246  1.7681  2.9185
   55OCT     C6 1421   2.578   0.670   1.310 -0.9291 -0.2936  0.7459
   55OCT    H61 1422   2.624   0.736   1.232 -1.2656  0.2848  0.6347
   55OCT    H62 1423   2.478   0.706   1.332  0.0557  1.1828  0.8922
   55OCT     C7 1424   2.657   0.678   1.444  0.6727 -0.5953  0.1710
   55OCT    H71 1425   2.636   0.595   1.510  1.7076  0.0999 -3.7437
   55OCT    H72 1426   2.761   0.657   1.423 -2.1534  0.8469  3.5149
   55OCT     C8 1427   2.646   0.811   1.521 -0.3671 -0.2652 -0.2848
   55OCT    H81 1428   2.537   0.838   1.563 -2.7285  3.1723  0.2204
   55OCT    H82 1429   2.724   0.816   1.604  0.8050  1.9956 -1.1777
   55OCT    H83 1430   2.661   0.891   1.445 -2.5665 -1.3900  3.2658
   56OCT     C1 1431   3.811   1.393   2.261 -0.3025 -0.3284  0.6226
   56OCT    H11 1432   3.817   1.488   2.202 -1.6360 -0.4056 -0.1745
   56OCT    H12 1433   3.706   1.357   2.249 -1.3202 -0.6331 -1.2358
   56OCT    H13 1434   3.825   1.403   2.369 -1.1986 -0.6968 -0.3971
   56OCT     C2 1435   3.906   1.291   2.196  0.1829  0.3876 -0.5883
   56OCT    H21 1436   4.011   1.328   2.211  2.2845  1.5962 -0.0038
   56OCT    H22 1437   3.895   1.193   2.252 -3.6765  2.5999  2.0749
   56OCT     C3 1438   3.873   1.262   2.052  0.4689  0.4041  0.5868
   56OCT    H31 1439   3.766   1.226   2.042 -2.0281  0.9613 -0.8542
   56OCT    H32 1440   3.881   1.356   1.999  0.3195 -0.4236  0.5120
   56OCT     C4 1441   3.968   1.149   2.004 -0.6563 -0.6709  0.2889
   56OCT    H41 1442   4.067   1.194   1.987 -0.4702 -0.8480  0.0253
   56OCT    H42 1443   3.975   1.071   2.083 -0.5299 -0.5947  2.2608
   56OCT     C5 1444   3.921   1.073   1.872  0.6324  0.1938 -0.1108
   56OCT    H51 1445   3.818   1.030   1.895 -0.5951  0.3616 -0.5269
   56OCT    H52 1446   3.921   1.148   1.791 -0.7118  1.0207  0.0931
   56OCT     C6 1447   4.021   0.968   1.842  0.0202 -0.0549  0.6187
   56OCT    H61 1448   4.012   0.928   1.741  3.1101 -1.8302  1.0998
   56OCT    H62 1449   4.126   1.012   1.840  1.8203  1.6070  1.2779
   56OCT     C7 1450   4.014   0.852   1.946 -0.1337 -0.6628 -0.6352
   56OCT    H71 1451   4.045   0.896   2.043 -0.3623  0.5808 -0.1796
   56OCT    H72 1452   3.916   0.814   1.953  2.5476 -1.9212  0.0805
   56OCT     C8 1453   4.105   0.743   1.912 -0.1346 -0.4248  0.1833
   56OCT    H81 1454   4.071   0.699   1.812 -1.5221 -1.7143  1.3174
   56OCT    H82 1455   4.211   0.774   1.919 -2.7124  2.1052 -0.6794
   56OCT    H83 1456   4.097   0.667   1.996  0.0261  3.1222 -0.2500
   57OCT     C1 1457   2.019   3.199   4.322 -0.5557  0.7780  0.9579
   57OCT    H11 1458   1.959   3.196   4.417 -0.0676 -0.6415  1.1002
   57OCT    H12 1459   2.083   3.114   4.315  0.1281  1.9818 -0.9862
   57OCT    H13 1460   2.088   3.289   4.306  1.5801  1.4916 -2.6659
   57OCT     C2 1461   1.924   3.171   4.204 -0.7924 -0.1995  0.0324
   57OCT    H21 1462   1.983   3.125   4.117 -0.5003  0.2416 -3.9983
   57OCT    H22 1463   1.849   3.097   4.234 -1.7726  0.8075 -0.1538
   57OCT     C3 1464   1.868   3.293   4.146 -0.7385  0.2310  0.2257
   57OCT    H31 1465   1.771   3.316   4.197 -2.2241  1.0481 -1.1644
   57OCT    H32 1466   1.944   3.386   4.164  2.1935 -1.4044 -2.4935
   57OCT     C4 1467   1.834   3.296   3.993 -0.0660 -0.1246  0.2383
   57OCT    H41 1468   1.913   3.264   3.924 -2.3559  1.3819 -0.6582
   57OCT    H42 1469   1.758   3.213   3.971 -0.8746  0.1252 -1.5802
   57OCT     C5 1470   1.770   3.433   3.945 -0.0459 -0.2196 -0.7437
   57OCT    H51 1471   1.690   3.472   4.020 -3.4325  0.0958  4.1827
   57OCT    H52 1472   1.851   3.511   3.957  2.1905  2.5714 -0.4060
   57OCT     C6 1473   1.690   3.403   3.819  0.0700  0.0696 -0.2492
   57OCT    H61 1474   1.657   3.493   3.776 -0.6332 -0.2099  1.1563
   57OCT    H62 1475   1.747   3.347   3.741 -0.1768 -1.6547 -0.0615
   57OCT     C7 1476   1.551   3.339   3.841  0.2970  0.1610  0.2652
   57OCT    H71 1477   1.509   3.306   3.744  1.5778  0.8183  1.4548
   57OCT    H72 1478   1.564   3.246   3.904  1.2514  1.5646  0.4324
   57OCT     C8 1479   1.450   3.438   3.903 -0.0877 -0.0221 -0.0040
   57OCT    H81 1480   1.361   3.385   3.939 -1.5676  0.3448 -1.0119
   57OCT    H82 1481   1.487   3.481   3.992 -0.0776 -1.9660  0.2582
   57OCT    H83 1482   1.431   3.521   3.836  0.4949 -1.4281  0.1556
   58OCT     C1 1483   2.634   3.192   4.121  0.1561  0.2758  0.3838
   58OCT    H11 1484   2.640   3.285   4.182  0.6616 -0.1029 -1.3099
   58OCT    H12 1485   2.703   3.200   4.033 -2.7546 -1.3459 -1.5556
   58OCT    H13 1486   2.531   3.192   4.080 -0.2562  2.5574  2.7054
   58OCT     C2 1487   2.673   3.068   4.199 -0.0867  1.0586 -0.3444
   58OCT    H21 1488   2.787   3.061   4.210  1.1513 -0.2644  1.7399
   58OCT    H22 1489   2.620   3.078   4.301  0.6438  2.4396  1.2518
   58OCT     C3 1490   2.624   2.941   4.133 -0.3052  0.1524  0.1369
   58OCT    H31 1491   2.512   2.954   4.117 -1.4100  1.0789  0.7445
   58OCT    H32 1492   2.681   2.931   4.041 -0.1698  1.7823  1.1544
   58OCT     C4 1493   2.651   2.817   4.216  0.7152 -0.2269  0.2624
   58OCT    H41 1494   2.755   2.791   4.238 -2.3532 -3.4079  0.0929
   58OCT    H42 1495   2.603   2.822   4.313  0.8437  1.0149 -1.3248
   58OCT     C5 1496   2.574   2.692   4.157 -0.3095  0.3505 -0.1291
   58OCT    H51 1497   2.479   2.738   4.119  1.0965  1.6695 -1.5870
   58OCT    H52 1498   2.620   2.658   4.064 -1.6699  0.0014 -2.7459
   58OCT     C6 1499   2.548   2.586   4.260  0.3287 -0.0665 -0.8232
   58OCT    H61 1500   2.645   2.536   4.292 -4.4186 -1.8271  2.2719
   58OCT    H62 1501   2.504   2.628   4.360 -0.0233 -0.1887  1.0014
   58OCT     C7 1502   2.458   2.467   4.221  0.2041 -0.2420 -0.4234
   58OCT    H71 1503   2.501   2.418   4.140 -1.0528 -1.2606 -0.0411
   58OCT    H72 1504   2.451   2.389   4.308 -2.0131 -0.8387 -0.1384
   58OCT     C8 1505   2.311   2.513   4.196 -0.0281  0.0849  0.6313
   58OCT    H81 1506   2.261   2.556   4.278  0.8137 -0.1281  0.6915
   58OCT    H82 1507   2.317   2.588   4.121 -2.4927  2.4313  2.3303
   58OCT    H83 1508   2.249   2.427   4.163 -1.3687  1.9396  1.3999
   59OCT     C1 1509   0.415   2.507   3.169  0.8464 -0.2120 -0.4823
   59OCT    H11 1510   0.327   2.474   3.109  0.1077  1.5915  0.6550
   59OCT    H12 1511   0.483   2.418   3.177 -1.1666 -0.2931 -2.5428
   59OCT    H13 1512   0.369   2.525   3.270 -0.4187 -3.5617 -2.4625
   59OCT     C2 1513   0.498   2.625   3.129 -0.6389 -0.3918  0.0328
   59OCT    H21 1514   0.552   2.596   3.034 -2.0398 -1.8537 -1.9421
   59OCT    H22 1515   0.432   2.708   3.112 -1.9760 -2.0464  2.3269
   59OCT     C3 1516   0.611   2.648   3.236  0.1350  0.2903 -0.7651
   59OCT    H31 1517   0.559   2.676   3.332 -1.5208 -2.6987 -0.7643
   59OCT    H32 1518   0.660   2.547   3.269 -0.7837 -0.3297 -0.4465
   59OCT     C4 1519   0.710   2.755   3.196  0.5037 -0.2902 -0.1558
   59OCT    H41 1520   0.784   2.783   3.277  1.5482  1.8880  0.9519
   59OCT    H42 1521   0.766   2.727   3.102 -2.8105 -0.5739 -1.6920
   59OCT     C5 1522   0.643   2.892   3.157 -0.2812  0.3225  0.0216
   59OCT    H51 1523   0.587   2.877   3.059 -1.9412 -1.8672  0.9692
   59OCT    H52 1524   0.559   2.903   3.237 -1.6105 -1.3001 -0.8802
   59OCT     C6 1525   0.744   3.005   3.149  0.1634  0.6980 -0.6573
   59OCT    H61 1526   0.785   3.022   3.256  2.2387  1.2745 -1.9637
   59OCT    H62 1527   0.825   2.982   3.086 -1.0323  0.1176  1.2414
   59OCT     C7 1528   0.684   3.136   3.111 -0.1773 -0.3528 -0.2746
   59OCT    H71 1529   0.636   3.129   3.008  1.3757 -1.8580  1.3283
   59OCT    H72 1530   0.608   3.164   3.190  0.5172  0.7877  3.1505
   59OCT     C8 1531   0.790   3.248   3.120  1.1126 -0.0480  0.1932
   59OCT    H81 1532   0.874   3.217   3.055 -0.4796  0.6414  2.3268
   59OCT    H82 1533   0.759   3.341   3.072 -1.4265  0.5737  0.9223
   59OCT    H83 1534   0.829   3.265   3.220 -1.9492 -1.6611 -3.0128
   60OCT     C1 1535   0.492   2.870   3.985 -0.0473  0.4142  0.2538
   60OCT    H11 1536   0.480   2.931   3.903 -1.3801 -2.1578  0.5758
   60OCT    H12 1537   0.563   2.918   4.052  0.3145  1.9875  1.2105
   60OCT    H13 1538   0.535   2.772   3.955 -0.8514  0.1821 -2.1140
   60OCT     C2 1539   0.352   2.863   4.051  0.0009 -0.4169 -0.1199
   60OCT    H21 1540   0.276   2.843   3.964 -0.7869  0.3515 -0.2339
   60OCT    H22 1541   0.355   2.783   4.132  0.9545  0.5123  1.3925
   60OCT     C3 1542   0.308   2.985   4.131  0.0635 -0.8578  0.2460
   60OCT    H31 1543   0.383   3.024   4.214  2.2117 -1.6441 -0.5959
   60OCT    H32 1544   0.318   3.060   4.050  2.3217  1.1512 -0.2243
   60OCT     C4 1545   0.169   2.976   4.188 -0.1198  0.6470 -0.0102
   60OCT    H41 1546   0.103   2.944   4.097  0.9752  0.7890 -1.5473
   60OCT    H42 1547   0.153   2.897   4.265  1.3197 -0.7074 -0.1367
   60OCT     C5 1548   0.105   3.111   4.243 -0.8088 -0.3473  0.0290
   60OCT    H51 1549   0.117   3.185   4.165  2.4468 -0.3784  0.7670
   60OCT    H52 1550  -0.003   3.093   4.252 -0.4563 -1.8299 -0.1530
   60OCT     C6 1551   0.171   3.161   4.374  0.1738 -0.4169  0.5236
   60OCT    H61 1552   0.282   3.174   4.359 -0.0440 -1.8743  2.6519
   60OCT    H62 1553   0.114   3.256   4.401 -1.4483  1.3159 -2.0463
   60OCT     C7 1554   0.168   3.064   4.493  0.6353  0.2348  0.7696
   60OCT    H71 1555   0.220   2.973   4.462  0.9807 -1.2982 -2.4134
   60OCT    H72 1556   0.223   3.119   4.575 -1.3348  2.4220 -0.4076
   60OCT     C8 1557   0.030   3.023   4.544  0.3548 -0.0999 -0.3307
   60OCT    H81 1558   0.031   2.941   4.617 -1.0053  0.3254  0.5768
   60OCT    H82 1559  -0.029   3.111   4.580  2.4101 -0.2885  1.8428
   60OCT    H83 1560  -0.029   2.998   4.457 -0.5965 -0.0867  2.3468
   61OCT     C1 1561   2.805   0.293   3.718  0.5278 -0.3527  1.0170
   61OCT    H11 1562   2.806   0.402   3.729  0.7524  1.1359 -4.4217
   61OCT    H12 1563   2.827   0.281   3.607  0.1927  1.2253 -0.1887
   61OCT    H13 1564   2.704   0.246   3.736  0.2474  1.7601 -1.1247
   61OCT     C2 1565   2.923   0.228   3.793  0.3474  0.4975  0.4975
   61OCT    H21 1566   2.935   0.122   3.753 -0.9509  0.1437 -0.3173
   61OCT    H22 1567   3.011   0.283   3.764  0.1013 -1.3719  1.4469
   61OCT     C3 1568   2.899   0.213   3.939 -0.1141 -0.1299 -0.3857
   61OCT    H31 1569   2.829   0.298   3.975 -1.4976 -1.1576 -1.6742
   61OCT    H32 1570   2.829   0.116   3.951 -3.6088 -1.2695  0.4669
   61OCT     C4 1571   3.019   0.191   4.029  0.1433 -0.9277 -0.3484
   61OCT    H41 1572   2.991   0.177   4.128  0.6167 -1.6250 -1.8490
   61OCT    H42 1573   3.074   0.096   4.007  0.0208 -1.0784 -0.2101
   61OCT     C5 1574   3.118   0.317   4.037 -0.7108  0.6438  0.0026
   61OCT    H51 1575   3.190   0.299   4.123  1.6700 -0.3663  0.9640
   61OCT    H52 1576   3.166   0.304   3.937 -0.3961 -0.6718 -0.1001
   61OCT     C6 1577   3.065   0.457   4.057 -0.1686  0.3052  0.0606
   61OCT    H61 1578   3.033   0.504   3.964 -0.1305  0.5883  0.5963
   61OCT    H62 1579   2.974   0.453   4.121 -0.4715  0.2462  0.8396
   61OCT     C7 1580   3.166   0.550   4.113 -0.4736 -0.0254 -0.2707
   61OCT    H71 1581   3.178   0.499   4.219 -0.8282  0.1062  0.7083
   61OCT    H72 1582   3.263   0.524   4.062  0.6275 -0.9506 -0.7455
   61OCT     C8 1583   3.130   0.694   4.133  0.7794 -0.1700  0.5770
   61OCT    H81 1584   3.211   0.755   4.162 -2.3760 -0.6527 -1.7065
   61OCT    H82 1585   3.087   0.742   4.045  1.0184  0.3095  1.2098
   61OCT    H83 1586   3.048   0.712   4.206  0.5508 -0.2598  1.2295
   62OCT     C1 1587   0.102   0.441   2.899 -0.0576 -0.7993 -0.2144
   62OCT    H11 1588   0.112   0.492   2.799  0.1191 -0.7212 -1.9136
   62OCT    H12 1589   0.022   0.371   2.873  0.6738 -1.0267  0.7091
   62OCT    H13 1590   0.073   0.513   2.980  1.0271 -0.3600  0.7162
   62OCT     C2 1591   0.233   0.369   2.936 -0.3557  0.3104  0.1278
   62OCT    H21 1592   0.300   0.457   2.969  0.0179  0.3166  1.5419
   62OCT    H22 1593   0.227   0.300   3.023 -0.9898  1.6990 -0.4083
   62OCT     C3 1594   0.297   0.283   2.829 -0.2363 -0.6081  0.3815
   62OCT    H31 1595   0.228   0.204   2.797 -1.5612  2.6240 -0.3679
   62OCT    H32 1596   0.312   0.349   2.743 -0.0034 -1.6708 -0.6789
   62OCT     C4 1597   0.433   0.223   2.866 -0.7314  0.6231 -0.4308
   62OCT    H41 1598   0.427   0.162   2.956 -1.0459 -2.5301  1.5437
   62OCT    H42 1599   0.462   0.143   2.784  1.9896 -0.5860  2.1775
   62OCT     C5 1600   0.543   0.328   2.868  0.4422  0.0379 -0.2111
   62OCT    H51 1601   0.548   0.383   2.778  2.6181  1.2028  0.0017
   62OCT    H52 1602   0.507   0.408   2.936 -2.4191  2.3483 -1.6270
   62OCT     C6 1603   0.673   0.266   2.909 -0.5297  0.6785  0.2381
   62OCT    H61 1604   0.673   0.254   3.024  1.2011 -0.9150 -1.0252
   62OCT    H62 1605   0.686   0.162   2.865  1.6949  2.4679  0.3722
   62OCT     C7 1606   0.798   0.347   2.881 -0.1551 -1.1529 -0.1775
   62OCT    H71 1607   0.836   0.343   2.776  1.1057  1.0541  0.9288
   62OCT    H72 1608   0.760   0.451   2.897 -0.9831 -1.3328 -1.4567
   62OCT     C8 1609   0.918   0.314   2.969  0.5526  0.1635  0.2064
   62OCT    H81 1610   1.008   0.375   2.953 -1.4051  1.5370  2.3736
   62OCT    H82 1611   0.888   0.324   3.077  0.0057  1.0359  1.1550
   62OCT    H83 1612   0.944   0.208   2.967 -2.5116  0.1047 -0.3686
   63OCT     C1 1613   3.474   4.061   1.839 -0.3074  0.8260  0.4234
   63OCT    H11 1614   3.480   4.172   1.831  0.0449 -0.8289  0.3382
   63OCT    H12 1615   3.577   4.017   1.839  1.3027 -2.4539 -1.3822
   63OCT    H13 1616   3.427   4.008   1.752  2.4288  1.2099  0.3422
   63OCT     C2 1617   3.405   4.025   1.968  0.1210 -0.6715 -0.2505
   63OCT    H21 1618   3.464   4.049   2.056  0.1761  1.0191 -1.8244
   63OCT    H22 1619   3.319   4.093   1.978  1.6387 -1.6177 -1.1035
   63OCT     C3 1620   3.336   3.889   1.980  0.6566  0.2400  0.5851
   63OCT    H31 1621   3.278   3.869   1.886 -1.8771  1.2908  0.2376
   63OCT    H32 1622   3.424   3.820   1.989  1.7742 -0.6701 -0.4755
   63OCT     C4 1623   3.240   3.866   2.105 -0.2309  0.4419  0.4299
   63OCT    H41 1624   3.165   3.943   2.120  0.6741  0.2719  2.2380
   63OCT    H42 1625   3.188   3.772   2.089  0.3195  2.0244 -1.9406
   63OCT     C5 1626   3.322   3.854   2.238  0.4370 -0.2144 -0.2340
   63OCT    H51 1627   3.408   3.785   2.229 -1.1997 -0.7373 -0.0255
   63OCT    H52 1628   3.353   3.957   2.260 -1.8813 -0.1195 -0.7676
   63OCT     C6 1629   3.245   3.793   2.355  0.2405 -0.6949 -0.6729
   63OCT    H61 1630   3.149   3.842   2.380  1.7612  1.2015 -0.8250
   63OCT    H62 1631   3.208   3.696   2.324 -1.1447  0.4117 -1.3909
   63OCT     C7 1632   3.323   3.790   2.482 -0.3633  0.0868 -0.5028
   63OCT    H71 1633   3.271   3.736   2.560 -0.0373  1.8859  1.7461
   63OCT    H72 1634   3.416   3.731   2.455  0.3201  0.4799 -2.4342
   63OCT     C8 1635   3.373   3.923   2.545  0.6831  0.2721  0.1135
   63OCT    H81 1636   3.408   3.991   2.467  1.0782  0.2329 -0.2349
   63OCT    H82 1637   3.286   3.978   2.591 -0.7993 -1.3477  3.3018
   63OCT    H83 1638   3.442   3.922   2.629 -1.2057  0.6329 -2.4734
   64OCT     C1 1639   4.060   1.593   3.669 -0.6650 -0.0375  0.4594
   64OCT    H11 1640   4.144   1.666   3.665 -0.3455 -0.0644 -0.1195
   64OCT    H12 1641   3.975   1.642   3.720  1.0868 -1.7184 -2.2967
   64OCT    H13 1642   4.093   1.519   3.736  0.5468 -1.0129 -1.6693
   64OCT     C2 1643   4.026   1.531   3.538 -0.2426  0.7668 -0.0880
   64OCT    H21 1644   3.951   1.455   3.560 -1.0619  1.6004 -1.8250
   64OCT    H22 1645   3.991   1.601   3.464  1.4618 -0.1457  0.8895
   64OCT     C3 1646   4.149   1.463   3.486 -0.0148 -0.0887  0.2737
   64OCT    H31 1647   4.164   1.502   3.382  2.4323 -0.9429  0.3225
   64OCT    H32 1648   4.241   1.482   3.543  1.0315 -1.8060  0.7879
   64OCT     C4 1649   4.142   1.312   3.495 -0.4273 -0.2070  0.4842
   64OCT    H41 1650   4.155   1.285   3.606  0.3517 -1.0483  3.0220
   64OCT    H42 1651   4.044   1.279   3.468  0.0892  2.9822 -1.4220
   64OCT     C5 1652   4.241   1.236   3.401  0.4750  0.5455 -0.5370
   64OCT    H51 1653   4.346   1.276   3.419  0.5919  2.8510  1.2531
   64OCT    H52 1654   4.238   1.130   3.432  1.0014  2.4229  0.3334
   64OCT     C6 1655   4.225   1.260   3.251 -0.4342  0.7640  0.0024
   64OCT    H61 1656   4.255   1.357   3.226  0.6910 -2.1346 -1.8121
   64OCT    H62 1657   4.290   1.191   3.191  2.6088  0.7095 -0.6934
   64OCT     C7 1658   4.080   1.245   3.201  0.3301  0.0358  0.1759
   64OCT    H71 1659   4.025   1.151   3.225  0.6906  0.1845  1.2875
   64OCT    H72 1660   4.028   1.330   3.249 -2.0138  1.4005 -0.0908
   64OCT     C8 1661   4.077   1.282   3.050 -0.2453 -0.4272  0.1249
   64OCT    H81 1662   3.984   1.338   3.015  0.7819 -1.5844 -0.5708
   64OCT    H82 1663   4.173   1.326   3.012 -0.2107  0.8339  1.7704
   64OCT    H83 1664   4.065   1.185   2.991  0.6890 -1.9787  1.9960
   65OCT     C1 1665   0.722   2.295   0.812 -0.5136  0.5148  0.4536
   65OCT    H11 1666   0.622   2.304   0.861  1.3313 -2.1233 -0.8805
   65OCT    H12 1667   0.744   2.392   0.759  0.8999 -1.4620  0.0714
   65OCT    H13 1668   0.714   2.223   0.734  0.3280  1.6380 -0.9610
   65OCT     C2 1669   0.826   2.251   0.910  0.1539 -0.1975  0.0990
   65OCT    H21 1670   0.779   2.181   0.979  0.2065 -0.2956  1.9888
   65OCT    H22 1671   0.909   2.209   0.845  0.5767  0.0845 -2.9011
   65OCT     C3 1672   0.884   2.365   0.994  0.2249  0.0653  0.0662
   65OCT    H31 1673   0.939   2.312   1.076  1.4895  0.5584 -2.9459
   65OCT    H32 1674   0.959   2.405   0.922 -2.3371 -0.1694 -0.8701
   65OCT     C4 1675   0.785   2.472   1.048 -0.2506 -0.0705  0.1580
   65OCT    H41 1676   0.765   2.543   0.964 -0.5552  1.9405 -0.9231
   65OCT    H42 1677   0.699   2.415   1.069  1.3481  2.1898  1.3376
   65OCT     C5 1678   0.838   2.562   1.171  0.1911 -0.1923 -0.3422
   65OCT    H51 1679   0.760   2.647   1.197  0.1863 -1.7902  4.3304
   65OCT    H52 1680   0.839   2.489   1.257 -1.2659 -1.7646 -1.9017
   65OCT     C6 1681   0.973   2.623   1.150 -0.2566 -0.0398  0.0685
   65OCT    H61 1682   1.058   2.550   1.170  2.5779 -1.8811  1.0141
   65OCT    H62 1683   0.981   2.655   1.040  1.3876 -0.1953 -3.1429
   65OCT     C7 1684   1.021   2.743   1.239  0.3531 -0.1337  1.1011
   65OCT    H71 1685   0.959   2.837   1.218  1.5035 -0.2667 -1.4398
   65OCT    H72 1686   1.010   2.705   1.338 -0.5966 -0.4909 -1.5457
   65OCT     C8 1687   1.163   2.779   1.206  0.2924  0.5200 -0.2612
   65OCT    H81 1688   1.159   2.868   1.135  0.0026  1.2106  0.0152
   65OCT    H82 1689   1.203   2.814   1.300 -0.7818  0.6702  0.9351
   65OCT    H83 1690   1.219   2.695   1.162 -1.9349  0.3557 -1.5566
   66OCT     C1 1691   1.802   3.233   3.003  0.4199 -0.3434  0.5731
   66OCT    H11 1692   1.767   3.343   3.003 -0.7609  2.9327  0.6975
   66OCT    H12 1693   1.778   3.193   3.108  0.1221 -1.0757  2.2307
   66OCT    H13 1694   1.905   3.241   2.990 -2.7045  0.0156 -2.4997
   66OCT     C2 1695   1.729   3.160   2.892  0.2662  0.7123  0.2043
   66OCT    H21 1696   1.777   3.064   2.859  1.3824  0.1854  1.6776
   66OCT    H22 1697   1.626   3.136   2.923 -1.0934 -2.9082  0.4890
   66OCT     C3 1698   1.722   3.235   2.755 -0.3879 -0.3627  0.9773
   66OCT    H31 1699   1.661   3.323   2.780 -1.1890 -1.4137  0.7091
   66OCT    H32 1700   1.823   3.278   2.718  0.3935  1.3408  1.9782
   66OCT     C4 1701   1.649   3.177   2.631  0.6735  0.7327  0.9099
   66OCT    H41 1702   1.635   3.254   2.562  0.6156 -0.6384  1.8009
   66OCT    H42 1703   1.715   3.103   2.579  0.0436 -2.2837 -0.2745
   66OCT     C5 1704   1.516   3.111   2.662 -0.3760  0.5791 -0.1586
   66OCT    H51 1705   1.537   3.036   2.740  1.4219  1.6322 -1.4009
   66OCT    H52 1706   1.441   3.178   2.698 -0.0291  0.4495 -2.9362
   66OCT     C6 1707   1.457   3.042   2.541  1.3358  0.1978 -0.5562
   66OCT    H61 1708   1.433   3.116   2.458  0.4719  0.2317 -1.2675
   66OCT    H62 1709   1.522   2.972   2.504 -2.1027 -0.2404  2.2164
   66OCT     C7 1710   1.324   2.957   2.569  0.1876 -0.0238 -0.1018
   66OCT    H71 1711   1.350   2.890   2.655  0.4954 -1.8190  0.3361
   66OCT    H72 1712   1.245   3.024   2.613 -3.6095 -3.3676 -1.2108
   66OCT     C8 1713   1.260   2.878   2.460  0.2521 -0.0710 -0.4784
   66OCT    H81 1714   1.182   2.811   2.493 -0.3989  2.8146  0.9227
   66OCT    H82 1715   1.215   2.955   2.397  0.9804  1.7407  3.9706
   66OCT    H83 1716   1.334   2.823   2.397  0.0415 -0.1297 -0.1809
   67OCT     C1 1717   0.655   0.429   2.450  0.6327  0.3858  0.6377
   67OCT    H11 1718   0.646   0.354   2.532  0.9065 -2.2300 -0.4726
   67OCT    H12 1719   0.655   0.531   2.489 -0.7048 -1.3077 -2.7669
   67OCT    H13 1720   0.564   0.421   2.381  0.4430  0.8763 -1.2739
   67OCT     C2 1721   0.774   0.395   2.360  0.1910  0.5578 -0.1028
   67OCT    H21 1722   0.746   0.312   2.288  1.1134 -0.5709 -1.7753
   67OCT    H22 1723   0.804   0.475   2.291 -1.4598  0.0759 -0.1815
   67OCT     C3 1724   0.896   0.360   2.437  0.1389  0.3686  0.1649
   67OCT    H31 1725   0.873   0.297   2.523  0.5431 -0.0166  0.3704
   67OCT    H32 1726   0.978   0.314   2.376 -0.3599 -1.4307 -0.0398
   67OCT     C4 1727   0.962   0.492   2.483  0.0856  0.0007  0.1227
   67OCT    H41 1728   0.971   0.561   2.398  1.1096 -0.3569 -0.0578
   67OCT    H42 1729   0.914   0.548   2.564 -1.1209  1.5567 -1.4973
   67OCT     C5 1730   1.108   0.480   2.541  1.0624  0.3336 -0.1467
   67OCT    H51 1731   1.167   0.427   2.471 -2.7176  0.0220  1.3747
   67OCT    H52 1732   1.143   0.586   2.548 -0.1720  0.9415  2.4446
   67OCT     C6 1733   1.109   0.408   2.673  0.0339 -0.1745  0.5007
   67OCT    H61 1734   1.047   0.462   2.748 -1.2501 -1.4711  1.6462
   67OCT    H62 1735   1.066   0.304   2.649 -1.3968 -3.5114 -1.9154
   67OCT     C7 1736   1.256   0.397   2.727  0.0442  0.5736 -0.1379
   67OCT    H71 1737   1.255   0.325   2.814 -1.4512 -0.4333 -0.8097
   67OCT    H72 1738   1.329   0.345   2.655  0.8736 -1.6981  2.9311
   67OCT     C8 1739   1.322   0.523   2.774  0.7786 -0.8109  0.1484
   67OCT    H81 1740   1.270   0.555   2.866  1.6618  0.1236 -0.2103
   67OCT    H82 1741   1.428   0.504   2.796 -1.4369 -0.0004 -0.4203
   67OCT    H83 1742   1.328   0.606   2.699 -1.2532 -0.3332 -1.3255
   68OCT     C1 1743   2.416   1.965   3.621  0.0727 -0.2609  0.8275
   68OCT    H11 1744   2.334   1.910   3.580  3.3097  1.7573 -1.9818
   68OCT    H12 1745   2.504   1.933   3.558 -0.0562  0.1891  1.8415
   68OCT    H13 1746   2.432   1.937   3.728 -0.9697 -1.2498  0.2696
   68OCT     C2 1747   2.384   2.113   3.602 -0.4982 -0.3010  0.1397
   68OCT    H21 1748   2.340   2.133   3.503  0.8457 -0.6601  3.4983
   68OCT    H22 1749   2.300   2.149   3.671 -1.0904  2.4201 -0.0868
   68OCT     C3 1750   2.507   2.195   3.635  0.3473  0.5969  0.0193
   68OCT    H31 1751   2.500   2.196   3.744  0.2091 -1.1422  0.7064
   68OCT    H32 1752   2.608   2.146   3.612  1.4573 -2.5645  0.1048
   68OCT     C4 1753   2.496   2.344   3.591  0.7274 -0.0674  0.3589
   68OCT    H41 1754   2.404   2.393   3.633  0.2351  0.1021  0.5107
   68OCT    H42 1755   2.580   2.401   3.636 -2.3188 -0.2054 -1.3157
   68OCT     C5 1756   2.512   2.369   3.440 -0.0617  0.7457  0.7987
   68OCT    H51 1757   2.602   2.301   3.407  4.2285 -1.4719 -0.8379
   68OCT    H52 1758   2.417   2.335   3.391 -4.6810 -0.6732  2.1601
   68OCT     C6 1759   2.534   2.516   3.409  1.0061 -0.4301  0.3112
   68OCT    H61 1760   2.470   2.586   3.455  1.0570  0.4787 -2.6180
   68OCT    H62 1761   2.637   2.541   3.441 -0.7417  2.2760 -0.3259
   68OCT     C7 1762   2.511   2.529   3.261 -0.6362 -0.4045 -0.6600
   68OCT    H71 1763   2.585   2.457   3.210  0.2178  1.3559 -0.5597
   68OCT    H72 1764   2.405   2.508   3.238 -0.0184  1.4856 -4.7251
   68OCT     C8 1765   2.543   2.670   3.223  0.1459  0.3268 -0.0064
   68OCT    H81 1766   2.569   2.684   3.114 -2.5487 -0.9026 -0.8063
   68OCT    H82 1767   2.463   2.745   3.246  1.4192 -0.0692  0.3508
   68OCT    H83 1768   2.632   2.710   3.282 -0.3565 -1.2898  0.2851
   69OCT     C1 1769   3.200   0.577   1.596 -0.2961  0.2849 -0.4779
   69OCT    H11 1770   3.281   0.509   1.613 -0.0563  1.3675 -1.6759
   69OCT    H12 1771   3.246   0.677   1.574 -0.6384 -2.7071 -2.8547
   69OCT    H13 1772   3.149   0.584   1.695  0.2559  1.0802 -1.4265
   69OCT     C2 1773   3.100   0.545   1.486 -0.1565  0.2871 -0.0509
   69OCT    H21 1774   3.033   0.632   1.477  2.0130  1.7031 -0.4721
   69OCT    H22 1775   3.163   0.539   1.395 -2.1693 -0.1564 -1.7040
   69OCT     C3 1776   3.009   0.424   1.517  0.5614 -0.7101 -0.0483
   69OCT    H31 1777   3.079   0.348   1.574  2.6995 -1.1414  0.9399
   69OCT    H32 1778   2.928   0.448   1.594 -0.0951 -0.3067 -0.0504
   69OCT     C4 1779   2.953   0.358   1.386 -0.0277  0.0520 -0.6111
   69OCT    H41 1780   2.875   0.427   1.354 -0.3740  1.0284  2.6958
   69OCT    H42 1781   3.026   0.355   1.310  0.9394  1.8133  1.6485
   69OCT     C5 1782   2.891   0.222   1.406  0.0455 -0.8513  0.1512
   69OCT    H51 1783   2.970   0.151   1.435 -0.8407  3.4203 -1.8779
   69OCT    H52 1784   2.816   0.231   1.484  2.3494  2.3228 -0.6401
   69OCT     C6 1785   2.823   0.177   1.277  0.8899 -0.1180 -0.0288
   69OCT    H61 1786   2.752   0.255   1.237  1.1093 -0.2479 -0.5150
   69OCT    H62 1787   2.893   0.171   1.193 -2.0705 -0.1568 -1.3961
   69OCT     C7 1788   2.763   0.036   1.290 -0.5064  0.2969 -0.0791
   69OCT    H71 1789   2.843  -0.031   1.344  1.6431 -0.6553  0.3374
   69OCT    H72 1790   2.678   0.054   1.361  0.3005  1.2035 -0.2681
   69OCT     C8 1791   2.705  -0.012   1.157  0.1739 -0.1639 -0.0956
   69OCT    H81 1792   2.628   0.069   1.124 -0.4532  1.5672 -0.4269
   69OCT    H82 1793   2.785  -0.030   1.082  1.9571 -1.7355 -2.9779
   69OCT    H83 1794   2.647  -0.108   1.165 -0.8661 -2.8849  0.4706
   70OCT     C1 1795   2.425   1.904   2.737  0.1869 -0.9241 -0.5842
   70OCT    H11 1796   2.498   1.890   2.827 -0.3920  1.8415 -2.8841
   70OCT    H12 1797   2.336   1.975   2.768 -1.5199 -2.2259  2.4994
   70OCT    H13 1798   2.401   1.799   2.712  1.0607 -1.2579  1.5844
   70OCT     C2 1799   2.506   1.972   2.623  0.6221 -0.4016  0.4408
   70OCT    H21 1800   2.598   1.908   2.600  2.3232 -1.2013 -0.7163
   70OCT    H22 1801   2.446   1.983   2.527 -0.8449  1.8911 -0.6783
   70OCT     C3 1802   2.550   2.115   2.664 -0.0654 -0.0076  0.3144
   70OCT    H31 1803   2.463   2.174   2.691  0.8414  1.3932  0.1315
   70OCT    H32 1804   2.611   2.088   2.750  0.1554 -2.8709 -1.5624
   70OCT     C4 1805   2.630   2.192   2.563 -0.6264  0.5136 -0.5880
   70OCT    H41 1806   2.668   2.285   2.613  0.2522 -0.4723  2.6306
   70OCT    H42 1807   2.710   2.129   2.514  0.0072  0.0089 -1.9306
   70OCT     C5 1808   2.530   2.256   2.455 -0.1394  0.4185  0.2737
   70OCT    H51 1809   2.485   2.180   2.388  1.2478 -0.4316  1.1107
   70OCT    H52 1810   2.445   2.305   2.518 -0.8897  3.0246 -0.3517
   70OCT     C6 1811   2.594   2.374   2.371  0.4390 -0.1361 -0.4067
   70OCT    H61 1812   2.659   2.440   2.432 -0.0122 -0.3930 -1.1419
   70OCT    H62 1813   2.666   2.340   2.293  3.6814 -0.1557  2.1118
   70OCT     C7 1814   2.491   2.463   2.294 -0.0168 -0.0950  0.5490
   70OCT    H71 1815   2.440   2.409   2.214 -1.5157  1.0129 -0.8699
   70OCT    H72 1816   2.404   2.496   2.360 -1.2649 -0.8450  2.6496
   70OCT     C8 1817   2.568   2.581   2.225 -0.5445  0.3344  0.2786
   70OCT    H81 1818   2.637   2.546   2.140  0.1036 -1.6375 -1.4617
   70OCT    H82 1819   2.503   2.657   2.178 -2.3652 -1.3605 -0.9514
   70OCT    H83 1820   2.629   2.627   2.302  0.6105 -0.3287 -1.2169
   71OCT     C1 1821   3.253   2.180   1.196  0.2620  0.1346  0.2383
   71OCT    H11 1822   3.159   2.236   1.217  0.8596  1.3526  0.2549
   71OCT    H12 1823   3.310   2.224   1.109  0.9915  1.9893 -2.1060
   71OCT    H13 1824   3.221   2.074   1.161  1.3494 -0.3717 -2.0947
   71OCT     C2 1825   3.329   2.181   1.321 -0.2412 -0.6644 -1.2035
   71OCT    H21 1826   3.330   2.286   1.357 -3.8077 -0.6778 -0.0439
   71OCT    H22 1827   3.277   2.123   1.411  1.4811 -2.6927  1.4838
   71OCT     C3 1828   3.475   2.126   1.312 -0.3536  0.3343 -0.4278
   71OCT    H31 1829   3.478   2.028   1.252  0.5359 -1.5141  0.3473
   71OCT    H32 1830   3.525   2.208   1.265 -3.1297  0.4292 -1.0951
   71OCT     C4 1831   3.553   2.102   1.442  0.2602 -0.6393  0.1593
   71OCT    H41 1832   3.534   2.169   1.525 -0.9467  0.2421 -2.4764
   71OCT    H42 1833   3.538   2.001   1.486 -0.9251 -2.2946 -0.1008
   71OCT     C5 1834   3.705   2.111   1.415 -0.4730 -0.8423 -0.1169
   71OCT    H51 1835   3.719   2.037   1.339  0.0622 -0.7788  1.4669
   71OCT    H52 1836   3.742   2.208   1.377 -0.0460  3.5797  2.9921
   71OCT     C6 1837   3.782   2.072   1.539  0.5915  0.2828 -0.4480
   71OCT    H61 1838   3.787   2.167   1.606 -2.4457  0.5132  1.4079
   71OCT    H62 1839   3.733   1.991   1.594 -0.3235  0.6900 -2.5119
   71OCT     C7 1840   3.929   2.024   1.512 -0.1683 -0.1433 -0.1282
   71OCT    H71 1841   3.990   2.108   1.477 -0.4120 -2.1904 -2.3783
   71OCT    H72 1842   3.970   1.995   1.613 -0.0310  0.7978 -1.4308
   71OCT     C8 1843   3.951   1.914   1.416  0.2116 -0.6503  0.5634
   71OCT    H81 1844   3.948   1.952   1.308  0.0507 -1.4868 -1.5232
   71OCT    H82 1845   4.045   1.852   1.427  0.3287 -2.1413  0.0404
   71OCT    H83 1846   3.874   1.836   1.435 -1.1176  0.6451 -0.5205
   72OCT     C1 1847   2.771   3.624   0.592  0.0398 -0.0014 -1.1023
   72OCT    H11 1848   2.749   3.526   0.630  2.1383  2.3983  1.1302
   72OCT    H12 1849   2.835   3.605   0.502 -1.5771 -1.3573  0.1607
   72OCT    H13 1850   2.823   3.693   0.662 -0.7046  3.1344 -0.7173
   72OCT     C2 1851   2.645   3.697   0.548 -0.4293  0.2360 -0.2744
   72OCT    H21 1852   2.654   3.799   0.588 -1.3258  1.0908  4.7528
   72OCT    H22 1853   2.634   3.684   0.438 -1.3575  2.0686  0.2013
   72OCT     C3 1854   2.526   3.634   0.620 -0.5591  0.3318  0.8804
   72OCT    H31 1855   2.518   3.528   0.589 -1.3407 -0.6372  1.5178
   72OCT    H32 1856   2.533   3.626   0.728 -1.7995  2.2499 -0.8249
   72OCT     C4 1857   2.401   3.714   0.581 -0.1026  0.7196  0.3258
   72OCT    H41 1858   2.417   3.812   0.620 -0.2555 -1.4184 -1.1088
   72OCT    H42 1859   2.395   3.704   0.477  0.8795  1.1015  1.6231
   72OCT     C5 1860   2.276   3.657   0.649 -0.2933  0.0871 -0.1378
   72OCT    H51 1861   2.281   3.547   0.639  2.4702  0.5903 -0.8862
   72OCT    H52 1862   2.270   3.677   0.763 -1.2332  1.7609  2.1114
   72OCT     C6 1863   2.138   3.710   0.598 -0.1583 -0.1035  0.2041
   72OCT    H61 1864   2.133   3.815   0.621  3.3692  0.4657 -2.5465
   72OCT    H62 1865   2.141   3.706   0.487 -1.4520  2.4947 -0.5345
   72OCT     C7 1866   2.024   3.636   0.677 -0.6952 -0.0142  0.4411
   72OCT    H71 1867   2.051   3.531   0.677  2.1150 -0.6456  1.3591
   72OCT    H72 1868   2.030   3.673   0.780 -1.1005 -2.1899 -2.1239
   72OCT     C8 1869   1.883   3.664   0.638  0.0129 -0.3704 -0.2964
   72OCT    H81 1870   1.863   3.624   0.538 -1.3369  1.2884 -0.0438
   72OCT    H82 1871   1.812   3.623   0.717 -2.7782  3.8755 -2.7594
   72OCT    H83 1872   1.853   3.771   0.625  0.0381 -1.1545  0.2076
   73OCT     C1 1873   2.788   1.534   3.291  0.0339  0.2360 -0.3142
   73OCT    H11 1874   2.691   1.584   3.296 -1.1383 -2.2884  2.1997
   73OCT    H12 1875   2.786   1.432   3.253 -0.0738 -0.2107  2.7134
   73OCT    H13 1876   2.824   1.519   3.403  0.7585 -0.2206  1.0475
   73OCT     C2 1877   2.892   1.632   3.235  0.4254 -0.3562 -0.8259
   73OCT    H21 1878   2.875   1.661   3.133  3.7011 -0.9909  1.0192
   73OCT    H22 1879   2.897   1.733   3.295  1.1894 -1.3820 -1.5923
   73OCT     C3 1880   3.034   1.578   3.239 -0.2681  0.4887 -0.1533
   73OCT    H31 1881   3.072   1.593   3.347 -0.0809 -0.3775  1.5980
   73OCT    H32 1882   3.035   1.471   3.213 -1.7545  0.3247  0.5755
   73OCT     C4 1883   3.143   1.653   3.157  0.1943 -0.2611 -0.3005
   73OCT    H41 1884   3.105   1.663   3.058 -3.1071 -0.8886  1.9383
   73OCT    H42 1885   3.156   1.755   3.206  0.5588  0.8976  1.3577
   73OCT     C5 1886   3.269   1.572   3.170 -0.3913 -0.0634 -0.0543
   73OCT    H51 1887   3.272   1.538   3.276 -3.2636  0.1875 -1.6055
   73OCT    H52 1888   3.260   1.479   3.103 -0.0069  1.0410 -0.6963
   73OCT     C6 1889   3.399   1.646   3.135 -0.1619 -0.3684  0.2465
   73OCT    H61 1890   3.411   1.739   3.197  0.4820 -0.8430  0.6194
   73OCT    H62 1891   3.488   1.577   3.160  0.1395  0.3579 -3.5374
   73OCT     C7 1892   3.423   1.674   2.991  0.7254 -0.2198  0.1338
   73OCT    H71 1893   3.448   1.581   2.934  0.9272 -0.7279  1.2904
   73OCT    H72 1894   3.325   1.712   2.952 -0.4864 -2.5447  2.1878
   73OCT     C8 1895   3.536   1.775   2.960  0.5357  0.2827 -0.6412
   73OCT    H81 1896   3.553   1.760   2.851 -1.1522  1.2100  2.2470
   73OCT    H82 1897   3.507   1.875   2.982 -1.4740 -0.0298 -0.7531
   73OCT    H83 1898   3.625   1.747   3.014 -1.3462  1.1540 -0.3452
   74OCT     C1 1899   2.735   0.630   2.811  0.3506 -0.2092 -0.5405
   74OCT    H11 1900   2.668   0.545   2.815  1.1303  1.3358  2.6469
   74OCT    H12 1901   2.837   0.594   2.829 -1.1611 -1.1008  0.0462
   74OCT    H13 1902   2.710   0.697   2.898 -0.6616  1.2585 -1.7936
   74OCT     C2 1903   2.734   0.718   2.692 -0.6334  0.6749 -0.2084
   74OCT    H21 1904   2.634   0.733   2.648 -1.8326 -0.0133  0.7215
   74OCT    H22 1905   2.772   0.819   2.711  0.5930 -0.4677 -1.4621
   74OCT     C3 1906   2.829   0.669   2.582 -1.2162 -0.5433 -0.1796
   74OCT    H31 1907   2.937   0.698   2.610  1.4636  2.9911  0.5849
   74OCT    H32 1908   2.839   0.558   2.576  0.4657 -0.8999 -0.7650
   74OCT     C4 1909   2.798   0.720   2.440  0.3683 -0.2947  0.3843
   74OCT    H41 1910   2.695   0.699   2.406 -0.0888  1.7231 -2.0289
   74OCT    H42 1911   2.807   0.833   2.444  0.7253 -0.0582  0.6827
   74OCT     C5 1912   2.901   0.677   2.334  0.4956 -0.3535  0.2422
   74OCT    H51 1913   3.002   0.700   2.364  0.6153 -0.5689  1.2048
   74OCT    H52 1914   2.904   0.571   2.330 -0.4832  0.9356 -0.4473
   74OCT     C6 1915   2.872   0.737   2.195 -0.5012 -1.2036  0.3655
   74OCT    H61 1916   2.772   0.701   2.165  1.0690 -0.2813  0.7643
   74OCT    H62 1917   2.859   0.847   2.212 -1.2539  0.9761 -1.3225
   74OCT     C7 1918   2.977   0.722   2.086 -0.6109 -0.2616  0.0117
   74OCT    H71 1919   3.073   0.757   2.121 -1.2565 -2.3284 -3.1279
   74OCT    H72 1920   2.993   0.617   2.060  0.2365  2.6580 -1.2834
   74OCT     C8 1921   2.951   0.797   1.958  0.0300  0.1318 -0.1608
   74OCT    H81 1922   3.030   0.772   1.880 -0.3028 -3.1564  1.2233
   74OCT    H82 1923   2.856   0.772   1.906 -0.4066  0.5260  0.6065
   74OCT    H83 1924   2.945   0.900   1.972 -1.6288 -1.2990 -0.2669
   75OCT     C1 1925   1.383   2.111   2.355 -0.3078  0.4746  0.3512
   75OCT    H11 1926   1.284   2.106   2.323  2.1688 -0.2758  3.1272
   75OCT    H12 1927   1.398   2.183   2.434  0.3756  0.2318 -0.8520
   75OCT    H13 1928   1.448   2.143   2.274  1.6530  1.4360  0.7242
   75OCT     C2 1929   1.428   1.970   2.414 -0.3272  0.3762  0.4300
   75OCT    H21 1930   1.526   1.981   2.464 -0.6606 -3.5430 -0.0414
   75OCT    H22 1931   1.357   1.938   2.496 -1.9345 -2.3241  0.8858
   75OCT     C3 1932   1.438   1.845   2.322  0.1461 -0.0098 -0.0605
   75OCT    H31 1933   1.521   1.860   2.250 -2.1411  0.0133 -2.3447
   75OCT    H32 1934   1.455   1.753   2.395 -2.5042  0.5302  2.1790
   75OCT     C4 1935   1.301   1.817   2.253 -0.3594  0.1344 -0.3167
   75OCT    H41 1936   1.214   1.808   2.328 -0.2044 -1.0614  0.7448
   75OCT    H42 1937   1.267   1.892   2.178  1.6154  2.8941 -0.1260
   75OCT     C5 1938   1.300   1.675   2.197 -0.8085  0.6354  0.0848
   75OCT    H51 1939   1.198   1.664   2.150 -0.1762  1.0955 -1.1641
   75OCT    H52 1940   1.376   1.679   2.116 -1.3684 -0.5276 -0.9435
   75OCT     C6 1941   1.323   1.560   2.287  0.4984  0.0426 -0.7210
   75OCT    H61 1942   1.427   1.547   2.316 -1.1011 -1.6818 -1.0073
   75OCT    H62 1943   1.263   1.568   2.374  2.3517  1.3016  0.4021
   75OCT     C7 1944   1.294   1.426   2.226  0.3989  0.6423  0.1204
   75OCT    H71 1945   1.198   1.431   2.171  2.1238  0.7329  0.9937
   75OCT    H72 1946   1.374   1.410   2.140  1.7322  2.3455 -3.2936
   75OCT     C8 1947   1.280   1.307   2.327 -0.5430 -0.3317 -0.9489
   75OCT    H81 1948   1.363   1.308   2.403  0.6217 -1.1407  2.3780
   75OCT    H82 1949   1.184   1.328   2.376 -1.2632  0.0798  1.9483
   75OCT    H83 1950   1.277   1.206   2.288 -0.8310  1.9526  0.9401
   76OCT     C1 1951   0.243   4.118   2.623 -0.4680 -0.3759 -0.3592
   76OCT    H11 1952   0.274   4.036   2.558  0.2774  3.2048  0.1992
   76OCT    H12 1953   0.335   4.174   2.640 -0.1191 -0.6353  0.4723
   76OCT    H13 1954   0.201   4.080   2.725 -1.0437  0.6144  2.6855
   76OCT     C2 1955   0.136   4.204   2.563 -0.4361  0.0641  0.8656
   76OCT    H21 1956   0.168   4.243   2.464 -1.8061  1.0708  0.4952
   76OCT    H22 1957   0.054   4.141   2.534 -0.2420  1.5487 -1.7608
   76OCT     C3 1958   0.094   4.322   2.651 -0.1657  0.3930 -0.8157
   76OCT    H31 1959   0.081   4.292   2.757 -1.5746  3.2922 -1.3063
   76OCT    H32 1960   0.179   4.391   2.662 -0.3359 -1.5404  1.9149
   76OCT     C4 1961  -0.033   4.396   2.607  0.5296 -0.3716 -0.5655
   76OCT    H41 1962  -0.039   4.495   2.666 -0.4930  0.7447  1.3838
   76OCT    H42 1963  -0.022   4.407   2.497 -0.5681  0.6527  1.0597
   76OCT     C5 1964  -0.156   4.315   2.632  0.1058 -0.6928 -0.4210
   76OCT    H51 1965  -0.168   4.247   2.545 -0.6282  0.0348  1.0414
   76OCT    H52 1966  -0.153   4.246   2.718  0.7218  0.5241  0.4940
   76OCT     C6 1967  -0.286   4.391   2.647 -0.5562  0.0955 -0.4628
   76OCT    H61 1968  -0.370   4.332   2.690 -1.0293 -0.0370 -1.7373
   76OCT    H62 1969  -0.259   4.462   2.727  2.6691  1.0449 -0.8902
   76OCT     C7 1970  -0.332   4.470   2.520 -0.9372 -0.0392  0.0382
   76OCT    H71 1971  -0.440   4.505   2.540  0.5927  1.4926 -1.9959
   76OCT    H72 1972  -0.260   4.563   2.506  1.2120  2.2128  0.4533
   76OCT     C8 1973  -0.341   4.396   2.384  0.0577 -0.3586 -0.3436
   76OCT    H81 1974  -0.389   4.459   2.310  2.4894 -1.7451 -2.4506
   76OCT    H82 1975  -0.240   4.370   2.354 -1.9374  1.5810  0.9239
   76OCT    H83 1976  -0.407   4.307   2.385 -0.7450  1.1649 -0.2745
   77OCT     C1 1977   3.155   2.033   0.075  0.0287 -0.8337  0.2210
   77OCT    H11 1978   3.098   2.089   0.158 -2.3975  3.4096 -0.6344
   77OCT    H12 1979   3.235   2.107   0.037  1.2403  0.4363 -2.5949
   77OCT    H13 1980   3.080   2.010  -0.008 -0.4651 -2.5009  2.3511
   77OCT     C2 1981   3.227   1.906   0.109 -0.0383  1.0559  0.2179
   77OCT    H21 1982   3.297   1.885   0.021  1.0855  0.1948 -1.4376
   77OCT    H22 1983   3.290   1.921   0.202 -0.8155 -0.1804  0.6784
   77OCT     C3 1984   3.135   1.787   0.125 -0.4924 -0.3132 -0.7599
   77OCT    H31 1985   3.063   1.771   0.042 -0.9797  2.6239 -1.4194
   77OCT    H32 1986   3.206   1.698   0.133  1.1414 -2.1999  2.7053
   77OCT     C4 1987   3.053   1.793   0.256 -0.1009  0.0954  0.2990
   77OCT    H41 1988   3.117   1.816   0.343 -0.9868  2.2796  1.1496
   77OCT    H42 1989   2.979   1.875   0.244 -0.7575  0.3777 -0.8299
   77OCT     C5 1990   2.962   1.666   0.272  0.4039  0.4655 -0.0914
   77OCT    H51 1991   2.910   1.644   0.172 -1.6150 -0.7660 -2.3312
   77OCT    H52 1992   3.024   1.576   0.288  0.3733  0.4661  0.6550
   77OCT     C6 1993   2.865   1.676   0.391  0.3060  0.7507 -0.0658
   77OCT    H61 1994   2.922   1.667   0.487 -0.8218 -2.3168  2.4021
   77OCT    H62 1995   2.803   1.770   0.396  3.6817  0.9463 -0.0476
   77OCT     C7 1996   2.769   1.556   0.395  0.1739  0.1250  0.2376
   77OCT    H71 1997   2.718   1.544   0.296 -2.3096 -2.2681  2.0314
   77OCT    H72 1998   2.832   1.459   0.406  1.5873 -0.5157  0.3514
   77OCT     C8 1999   2.661   1.572   0.510  0.5151  0.1289  0.0591
   77OCT    H81 2000   2.602   1.475   0.515 -0.7962  1.1835 -1.1112
   77OCT    H82 2001   2.709   1.583   0.609  0.5877 -3.4228 -1.3658
   77OCT    H83 2002   2.597   1.657   0.478  0.6166 -1.0229 -0.3232
   78OCT     C1 2003   3.667   4.357   1.616  0.0422 -0.2709  0.1420
   78OCT    H11 2004   3.750   4.335   1.545  1.7086  0.1176 -1.0292
   78OCT    H12 2005   3.615   4.261   1.626  1.6084 -2.4506 -0.6551
   78OCT    H13 2006   3.606   4.432   1.565 -1.0614 -0.3952  2.2404
   78OCT     C2 2007   3.733   4.408   1.744  0.5876  0.1775  0.2748
   78OCT    H21 2008   3.656   4.419   1.821  0.8523  1.2201  2.1922
   78OCT    H22 2009   3.810   4.337   1.781 -0.3882  1.1999  0.8260
   78OCT     C3 2010   3.815   4.541   1.740 -0.3817  0.5397 -0.2694
   78OCT    H31 2011   3.859   4.555   1.842 -2.2734 -1.0798  0.1366
   78OCT    H32 2012   3.896   4.524   1.670 -0.9842 -1.5128 -0.9593
   78OCT     C4 2013   3.742   4.674   1.717  0.6728 -0.4502  0.3441
   78OCT    H41 2014   3.667   4.657   1.643 -0.2582  1.2711  2.3719
   78OCT    H42 2015   3.688   4.706   1.806  2.2982  0.9339  1.8219
   78OCT     C5 2016   3.840   4.789   1.682  0.4741  0.0806  0.8595
   78OCT    H51 2017   3.796   4.887   1.710 -0.5348 -3.0463 -1.6382
   78OCT    H52 2018   3.920   4.766   1.745 -1.5993  1.8356 -3.1895
   78OCT     C6 2019   3.870   4.793   1.529  0.1502 -0.1308 -0.3583
   78OCT    H61 2020   3.923   4.698   1.518 -5.0295  0.9401  1.4077
   78OCT    H62 2021   3.779   4.794   1.468  1.1463  2.4521  0.6534
   78OCT     C7 2022   3.963   4.917   1.490 -0.0542 -0.2181 -0.3264
   78OCT    H71 2023   3.928   5.012   1.538 -0.5749 -0.1408 -1.3774
   78OCT    H72 2024   4.068   4.893   1.515  0.9646  1.4618  0.3145
   78OCT     C8 2025   3.946   4.944   1.341 -0.5454 -0.0105 -0.2360
   78OCT    H81 2026   3.848   4.997   1.348  0.4135 -1.7728 -0.2309
   78OCT    H82 2027   4.031   5.006   1.311 -1.0575  0.9045 -0.2937
   78OCT    H83 2028   3.947   4.851   1.282  1.9725 -1.8183  0.9607
   79OCT     C1 2029   1.057   3.415   0.490 -0.7073  0.2283  0.0048
   79OCT    H11 2030   0.995   3.375   0.568  1.8002  2.5388  0.5230
   79OCT    H12 2031   1.014   3.396   0.391  0.2244 -0.1614  2.0106
   79OCT    H13 2032   1.155   3.357   0.504  2.2190 -1.3205  0.9791
   79OCT     C2 2033   1.078   3.559   0.522  0.1865  0.0021  0.0229
   79OCT    H21 2034   1.167   3.608   0.476 -2.0190  0.4495 -0.0684
   79OCT    H22 2035   0.980   3.609   0.486 -0.2577 -0.6169 -1.2961
   79OCT     C3 2036   1.087   3.586   0.672 -0.2509 -0.0215  0.1307
   79OCT    H31 2037   0.977   3.574   0.708 -0.0108 -0.1026  2.1613
   79OCT    H32 2038   1.142   3.511   0.721  0.9908  4.2457  0.2593
   79OCT     C4 2039   1.139   3.722   0.717 -0.6878 -0.0745  0.5022
   79OCT    H41 2040   1.115   3.728   0.819 -0.1707  0.6894  0.1692
   79OCT    H42 2041   1.247   3.729   0.697  0.1601 -0.0869  0.8418
   79OCT     C5 2042   1.067   3.834   0.636 -0.3182  0.3257 -0.6220
   79OCT    H51 2043   1.093   3.828   0.521  0.6383  3.3059 -1.4491
   79OCT    H52 2044   0.957   3.827   0.632 -3.0557 -1.9688  2.4985
   79OCT     C6 2045   1.106   3.977   0.675 -0.4023 -0.0375  0.4270
   79OCT    H61 2046   1.207   3.995   0.657 -1.9543  0.3990 -1.9477
   79OCT    H62 2047   1.053   4.041   0.606 -0.7435 -0.2195 -1.9886
   79OCT     C7 2048   1.056   4.009   0.816  0.2635  0.0609  0.4191
   79OCT    H71 2049   0.945   3.990   0.822 -0.9415  1.7512  1.1902
   79OCT    H72 2050   1.104   3.948   0.893 -1.6531 -2.9696 -1.1590
   79OCT     C8 2051   1.073   4.158   0.867 -0.0894 -0.3506 -0.2336
   79OCT    H81 2052   1.016   4.234   0.803 -0.3799 -1.7835 -1.3987
   79OCT    H82 2053   1.037   4.157   0.969 -0.4200  1.6227  0.8951
   79OCT    H83 2054   1.180   4.185   0.863 -0.6161  3.1316 -0.1526
   80OCT     C1 2055   2.804   2.650   0.510 -0.0506  0.4063 -0.2625
   80OCT    H11 2056   2.737   2.690   0.432  1.0815  1.1723  2.6733
   80OCT    H12 2057   2.882   2.727   0.537 -1.9514  0.6615  0.1263
   80OCT    H13 2058   2.863   2.574   0.458 -0.5461  1.0661  2.3355
   80OCT     C2 2059   2.725   2.608   0.629 -0.0731  0.0973 -0.4557
   80OCT    H21 2060   2.658   2.531   0.599  4.4930  1.3456  1.5308
   80OCT    H22 2061   2.790   2.567   0.704  2.4442 -0.0519 -0.8951
   80OCT     C3 2062   2.653   2.729   0.691  0.8165  0.0957 -0.6790
   80OCT    H31 2063   2.730   2.798   0.732  4.0536  0.2226  0.6113
   80OCT    H32 2064   2.583   2.773   0.610 -2.3462  0.0928 -1.7823
   80OCT     C4 2065   2.563   2.690   0.804 -0.4619 -0.6996 -0.5648
   80OCT    H41 2066   2.487   2.617   0.782  1.8652 -1.1390  1.3345
   80OCT    H42 2067   2.617   2.657   0.897 -1.5448 -0.5097  1.3345
   80OCT     C5 2068   2.492   2.820   0.861  0.3930  0.0103  0.1442
   80OCT    H51 2069   2.572   2.891   0.888 -1.1177 -3.1272 -0.1335
   80OCT    H52 2070   2.430   2.868   0.784 -2.5715  2.2047  1.9595
   80OCT     C6 2071   2.392   2.792   0.975 -0.1077  0.3467 -0.2672
   80OCT    H61 2072   2.325   2.713   0.944  0.6556  1.3178 -1.1716
   80OCT    H62 2073   2.451   2.750   1.064 -2.1739 -0.5450  0.8495
   80OCT     C7 2074   2.324   2.917   1.032 -0.4529 -0.5775 -0.7107
   80OCT    H71 2075   2.402   2.969   1.091  0.6839  0.1296 -0.1879
   80OCT    H72 2076   2.314   2.985   0.934 -0.8633  1.6140 -1.5993
   80OCT     C8 2077   2.198   2.893   1.110 -0.5936 -0.3148  0.1859
   80OCT    H81 2078   2.150   2.806   1.066 -0.2012 -2.4037 -3.3811
   80OCT    H82 2079   2.229   2.870   1.210  0.4570  0.4356 -3.1168
   80OCT    H83 2080   2.133   2.980   1.106 -1.5922 -4.3918 -0.7054
   81OCT     C1 2081   3.067   2.525   2.388  0.4532 -0.7462 -0.5540
   81OCT    H11 2082   3.076   2.448   2.467 -1.4598  0.3939 -1.8169
   81OCT    H12 2083   3.163   2.552   2.344  0.3453 -3.0321 -0.2836
   81OCT    H13 2084   3.025   2.620   2.439 -1.2202  1.9606  2.0380
   81OCT     C2 2085   2.980   2.469   2.272  0.0427  0.0054 -0.3420
   81OCT    H21 2086   2.881   2.444   2.323 -3.9322  2.9608 -0.9489
   81OCT    H22 2087   2.966   2.556   2.201 -0.0798  0.4549 -0.5235
   81OCT     C3 2088   3.042   2.362   2.197 -0.5062 -0.2506  0.0688
   81OCT    H31 2089   3.119   2.408   2.132  0.4210  1.1767 -2.0402
   81OCT    H32 2090   3.094   2.297   2.266 -0.9039  0.1046 -0.1974
   81OCT     C4 2091   2.941   2.283   2.118  0.3754 -0.6176 -0.1756
   81OCT    H41 2092   2.999   2.195   2.088  0.3552  1.0477  1.3143
   81OCT    H42 2093   2.869   2.264   2.188  1.1866  0.8511 -2.3245
   81OCT     C5 2094   2.864   2.348   2.002  1.3271 -0.5155 -0.3207
   81OCT    H51 2095   2.806   2.433   2.038  1.9575 -1.2160  1.2396
   81OCT    H52 2096   2.942   2.386   1.932 -1.1961  0.4285  1.5838
   81OCT     C6 2097   2.782   2.242   1.923  0.0318 -1.3249 -0.2043
   81OCT    H61 2098   2.722   2.199   2.000 -1.4140  2.2587 -0.3778
   81OCT    H62 2099   2.710   2.289   1.855 -0.5299  0.0991  2.0020
   81OCT     C7 2100   2.868   2.149   1.838  0.1447 -0.6136 -0.3569
   81OCT    H71 2101   2.940   2.098   1.903  0.7586  0.2361  1.4488
   81OCT    H72 2102   2.799   2.075   1.800  0.6736  0.5988 -0.5902
   81OCT     C8 2103   2.941   2.216   1.721 -0.4945 -0.3144 -0.3286
   81OCT    H81 2104   2.872   2.281   1.669 -0.2997  0.8915 -0.6502
   81OCT    H82 2105   3.025   2.275   1.757  0.9734 -0.7186 -1.1786
   81OCT    H83 2106   2.990   2.150   1.655 -0.5977  3.2914  1.0253
   82OCT     C1 2107   3.178   3.945   0.015 -0.8919  0.2152 -0.5277
   82OCT    H11 2108   3.215   3.888   0.113 -1.2885 -1.5177  0.2241
   82OCT    H12 2109   3.272   3.975  -0.034  0.5648 -0.7184 -0.3410
   82OCT    H13 2110   3.111   4.034   0.038 -1.2019 -2.4113  1.1979
   82OCT     C2 2111   3.109   3.842  -0.084 -0.4201 -0.3031  0.5506
   82OCT    H21 2112   3.003   3.829  -0.057  1.5210 -3.8173  0.5646
   82OCT    H22 2113   3.118   3.887  -0.187  0.9223  0.7111  0.0438
   82OCT     C3 2114   3.181   3.709  -0.091 -1.0021  0.3538  0.1713
   82OCT    H31 2115   3.290   3.726  -0.076  1.7357 -2.1749  1.7623
   82OCT    H32 2116   3.155   3.642  -0.007 -0.1635 -1.4881 -1.2449
   82OCT     C4 2117   3.138   3.642  -0.221  0.0623  0.2347  0.2402
   82OCT    H41 2118   3.159   3.709  -0.311 -1.4959 -0.9081 -1.5019
   82OCT    H42 2119   3.197   3.546  -0.227  2.2673 -2.8334  2.6046
   82OCT     C5 2120   2.989   3.599  -0.242 -0.1951  0.2692  0.4746
   82OCT    H51 2121   2.953   3.535  -0.163 -0.2584  2.7647 -0.4132
   82OCT    H52 2122   2.934   3.690  -0.220 -0.5172 -0.1973  0.5766
   82OCT     C6 2123   2.955   3.551  -0.387  0.2195  0.2920 -0.5101
   82OCT    H61 2124   2.964   3.626  -0.459  1.3900 -2.5193  2.9892
   82OCT    H62 2125   3.035   3.475  -0.409 -2.1610  0.8564 -0.8429
   82OCT     C7 2126   2.822   3.476  -0.395 -0.8423  0.2947 -0.6505
   82OCT    H71 2127   2.824   3.416  -0.488 -2.5415 -2.0675  0.3060
   82OCT    H72 2128   2.815   3.401  -0.318 -0.9009  0.7465  1.4688
   82OCT     C8 2129   2.697   3.567  -0.392 -0.0580  0.2425  0.4440
   82OCT    H81 2130   2.690   3.618  -0.484  1.0174 -3.4818 -1.0566
   82OCT    H82 2131   2.604   3.504  -0.384  0.6604  2.0706  2.1579
   82OCT    H83 2132   2.701   3.645  -0.312  0.2983 -0.4636  1.3763
   83OCT     C1 2133   2.997   2.448   2.764 -0.2427 -0.0668 -0.1832
   83OCT    H11 2134   2.998   2.435   2.652  1.0151  1.4584 -0.8052
   83OCT    H12 2135   3.033   2.548   2.780 -2.9692 -0.1645  1.5099
   83OCT    H13 2136   3.065   2.369   2.811 -0.3853 -2.2987  0.6829
   83OCT     C2 2137   2.854   2.437   2.818  0.2897  0.6882 -0.3444
   83OCT    H21 2138   2.814   2.339   2.787 -2.4321  1.5750 -2.4226
   83OCT    H22 2139   2.866   2.435   2.928 -2.4756 -5.3495 -1.6203
   83OCT     C3 2140   2.762   2.557   2.774 -0.5423  0.8153 -0.5123
   83OCT    H31 2141   2.801   2.643   2.821  0.6414 -3.2704 -0.7498
   83OCT    H32 2142   2.767   2.567   2.661  3.1797  0.5017  1.9063
   83OCT     C4 2143   2.617   2.540   2.820  0.7518 -0.1518 -0.1047
   83OCT    H41 2144   2.579   2.441   2.802  1.8684  0.1140 -1.3271
   83OCT    H42 2145   2.627   2.559   2.928 -0.6802  0.3998  0.3404
   83OCT     C5 2146   2.519   2.641   2.753  0.1034 -0.1077  0.2189
   83OCT    H51 2147   2.546   2.740   2.794 -0.6496  0.9955 -2.0438
   83OCT    H52 2148   2.512   2.642   2.644 -1.8024 -0.9464  1.0270
   83OCT     C6 2149   2.368   2.625   2.794 -0.2346 -0.1991  0.6048
   83OCT    H61 2150   2.316   2.713   2.760 -0.6061 -1.8279  3.0883
   83OCT    H62 2151   2.323   2.535   2.754  1.5574 -0.2142  2.4881
   83OCT     C7 2152   2.351   2.617   2.945 -0.5699  0.6131  0.1269
   83OCT    H71 2153   2.405   2.524   2.985 -0.6508 -3.4650  2.4314
   83OCT    H72 2154   2.405   2.701   2.986  0.7833 -2.9715 -0.7625
   83OCT     C8 2155   2.202   2.599   2.986  0.0265 -0.0666 -0.2524
   83OCT    H81 2156   2.144   2.678   2.931  0.6029 -2.0400 -1.2086
   83OCT    H82 2157   2.171   2.496   2.959 -2.9907  0.6589 -0.8188
   83OCT    H83 2158   2.190   2.610   3.098 -0.2668 -0.2728  2.0517
   84OCT     C1 2159   2.992   2.392   0.284 -0.2578 -0.4892 -0.7520
   84OCT    H11 2160   2.987   2.349   0.388  0.4182 -3.2540 -0.6127
   84OCT    H12 2161   2.889   2.422   0.250  1.2626  1.2378 -2.3483
   84OCT    H13 2162   3.014   2.299   0.230 -2.7620 -2.1228  1.4268
   84OCT     C2 2163   3.095   2.503   0.273  1.3220  0.1122  0.4093
   84OCT    H21 2164   3.033   2.599   0.255 -3.1628  2.5924 -2.2147
   84OCT    H22 2165   3.160   2.513   0.358  2.3209  0.8773 -0.4828
   84OCT     C3 2166   3.178   2.502   0.143  0.0514  0.5305  0.3465
   84OCT    H31 2167   3.229   2.399   0.147 -1.4543 -3.3072  1.3211
   84OCT    H32 2168   3.111   2.482   0.051  0.0317  2.2332 -3.4173
   84OCT     C4 2169   3.275   2.618   0.111 -0.0287  0.2297 -0.6483
   84OCT    H41 2170   3.319   2.599   0.012 -3.7567  1.4846  0.4123
   84OCT    H42 2171   3.211   2.711   0.105 -0.1667  1.0233  0.4459
   84OCT     C5 2172   3.376   2.639   0.222 -0.5577 -0.2748  0.3866
   84OCT    H51 2173   3.327   2.636   0.321  0.7303 -2.3649 -0.3331
   84OCT    H52 2174   3.439   2.549   0.222  3.4512  1.8662  1.4450
   84OCT     C6 2175   3.462   2.764   0.204  0.3538  0.2440  0.1478
   84OCT    H61 2176   3.481   2.774   0.096  0.2545 -0.5938  1.4618
   84OCT    H62 2177   3.409   2.858   0.223 -2.1410 -0.6901 -1.6696
   84OCT     C7 2178   3.599   2.761   0.263 -1.0562  0.1231 -0.6423
   84OCT    H71 2179   3.649   2.668   0.253  1.4938  3.1010 -2.6904
   84OCT    H72 2180   3.654   2.841   0.201 -2.2195 -0.6264 -2.8265
   84OCT     C8 2181   3.597   2.815   0.407 -0.4275 -0.1628 -0.4659
   84OCT    H81 2182   3.543   2.910   0.413  0.0865  2.2063 -1.2073
   84OCT    H82 2183   3.555   2.732   0.479 -1.0306 -2.7245  2.0701
   84OCT    H83 2184   3.703   2.827   0.446  1.8333 -0.6586  1.4823
   85OCT     C1 2185   1.509   0.676   2.995 -0.3247 -0.0167  0.1574
   85OCT    H11 2186   1.429   0.689   3.076  1.3834  1.6511 -2.3644
   85OCT    H12 2187   1.470   0.722   2.898 -0.8295  1.8841  0.8501
   85OCT    H13 2188   1.531   0.566   2.982 -1.3222 -2.4620  0.4119
   85OCT     C2 2189   1.634   0.754   3.039  0.5775 -0.1850  0.5268
   85OCT    H21 2190   1.653   0.722   3.143 -2.1858  0.7857  0.7921
   85OCT    H22 2191   1.724   0.735   2.971 -0.7146  0.4631  0.0455
   85OCT     C3 2192   1.606   0.903   3.058 -0.1355 -0.2455  0.8454
   85OCT    H31 2193   1.518   0.918   3.114 -1.1336  0.4901 -1.2810
   85OCT    H32 2194   1.690   0.932   3.123  0.5491  3.0667 -0.4680
   85OCT     C4 2195   1.623   0.989   2.933  0.2952  0.1111  0.4187
   85OCT    H41 2196   1.716   0.952   2.875  0.6732  1.4450  0.9271
   85OCT    H42 2197   1.534   0.969   2.864  0.2456 -2.0431 -0.3769
   85OCT     C5 2198   1.651   1.136   2.973 -0.6424 -0.2900 -0.0820
   85OCT    H51 2199   1.565   1.198   2.941  1.0461 -0.7320  1.5655
   85OCT    H52 2200   1.664   1.143   3.083  2.9466 -2.3521 -0.8033
   85OCT     C6 2201   1.771   1.209   2.911  0.1021  0.1015 -0.0622
   85OCT    H61 2202   1.864   1.164   2.941 -1.4283  0.0751  1.4765
   85OCT    H62 2203   1.762   1.201   2.809 -0.3774  0.0314  2.6371
   85OCT     C7 2204   1.782   1.355   2.958  0.1115 -0.6838 -0.0439
   85OCT    H71 2205   1.681   1.397   2.953  0.9545 -1.4104 -0.3895
   85OCT    H72 2206   1.800   1.351   3.068 -1.4896 -1.2279  2.8025
   85OCT     C8 2207   1.889   1.432   2.882 -0.3228  0.3395 -0.3506
   85OCT    H81 2208   1.870   1.536   2.884 -1.3548 -2.0796  0.3986
   85OCT    H82 2209   1.992   1.405   2.921 -2.4106  1.8013 -1.2592
   85OCT    H83 2210   1.893   1.403   2.775 -2.3854  0.3995 -2.1192
   86OCT     C1 2211   0.572   1.658   2.136 -1.0350 -0.3160 -0.0252
   86OCT    H11 2212   0.655   1.736   2.130  1.1066 -2.4762 -1.8111
   86OCT    H12 2213   0.479   1.709   2.160  0.6741 -0.5597  0.4302
   86OCT    H13 2214   0.591   1.596   2.225  0.6963  0.3143  1.8286
   86OCT     C2 2215   0.564   1.577   2.000 -0.0470  0.6269 -0.1638
   86OCT    H21 2216   0.547   1.645   1.916 -2.5338 -1.2393 -0.4384
   86OCT    H22 2217   0.670   1.525   1.991  2.5110 -1.2154  1.4465
   86OCT     C3 2218   0.453   1.478   2.014  0.2050  0.6608 -0.4362
   86OCT    H31 2219   0.446   1.412   2.102  0.2413  0.0951  1.2608
   86OCT    H32 2220   0.357   1.534   2.025 -1.0588 -1.0599 -2.0337
   86OCT     C4 2221   0.418   1.391   1.894 -0.9639  0.2608  0.3608
   86OCT    H41 2222   0.398   1.456   1.806  0.0798  0.2613  0.2803
   86OCT    H42 2223   0.507   1.331   1.877 -0.6711 -0.9570 -0.0594
   86OCT     C5 2224   0.294   1.296   1.918 -0.2218 -0.2807 -0.3622
   86OCT    H51 2225   0.322   1.221   1.993 -0.2593  0.3188 -1.2571
   86OCT    H52 2226   0.212   1.361   1.958 -0.7382  2.1125 -2.2013
   86OCT     C6 2227   0.250   1.237   1.786  0.4006 -0.9134  0.4611
   86OCT    H61 2228   0.163   1.167   1.805 -0.4009 -0.3086 -0.3085
   86OCT    H62 2229   0.207   1.327   1.733 -0.2498 -0.9326 -1.2390
   86OCT     C7 2230   0.352   1.158   1.709 -0.0545  0.1091 -0.1337
   86OCT    H71 2231   0.443   1.210   1.689 -1.0132  0.7614  1.1336
   86OCT    H72 2232   0.383   1.061   1.762  0.7481 -1.6299  1.3976
   86OCT     C8 2233   0.277   1.108   1.582 -0.1154 -0.3503  0.2780
   86OCT    H81 2234   0.346   1.040   1.525  2.2922  2.0504  2.4074
   86OCT    H82 2235   0.183   1.057   1.614 -0.8571 -0.1027  1.8722
   86OCT    H83 2236   0.251   1.198   1.519 -3.1543  0.2207  2.5403
   87OCT     C1 2237   1.970   0.244   1.631  0.3294 -0.8542 -0.5051
   87OCT    H11 2238   2.056   0.182   1.595 -0.5113 -2.9223 -2.0022
   87OCT    H12 2239   1.983   0.273   1.735  0.5317 -0.5323  0.6194
   87OCT    H13 2240   1.888   0.178   1.629  1.2768  2.2745 -1.6915
   87OCT     C2 2241   1.939   0.364   1.544 -0.2823 -0.6967  0.0736
   87OCT    H21 2242   1.939   0.331   1.438  1.6291  0.7305  0.4277
   87OCT    H22 2243   1.844   0.409   1.573  0.4208 -3.2488  1.4042
   87OCT     C3 2244   2.049   0.471   1.568 -1.0193  0.7234 -0.0224
   87OCT    H31 2245   2.038   0.522   1.663 -1.1900 -0.7703 -1.2713
   87OCT    H32 2246   2.144   0.424   1.573 -2.2376 -0.9400  0.1362
   87OCT     C4 2247   2.048   0.565   1.440  0.2579  0.3909  0.0538
   87OCT    H41 2248   2.047   0.513   1.341  0.7137  1.6721 -2.9874
   87OCT    H42 2249   1.958   0.630   1.447 -0.3402  0.7449  1.2342
   87OCT     C5 2250   2.157   0.669   1.446 -0.0860 -0.5141  0.0347
   87OCT    H51 2251   2.145   0.712   1.547  2.6291 -0.2082 -1.0552
   87OCT    H52 2252   2.261   0.627   1.444  2.5624 -2.1033 -1.1486
   87OCT     C6 2253   2.135   0.763   1.337 -0.0292 -0.8721  0.4116
   87OCT    H61 2254   2.120   0.711   1.238 -1.6948 -3.7755  0.0509
   87OCT    H62 2255   2.031   0.807   1.348  1.4015  1.1988 -0.3433
   87OCT     C7 2256   2.237   0.876   1.326 -0.5835  0.1007 -0.0184
   87OCT    H71 2257   2.332   0.835   1.342 -1.1635  2.9576  0.2659
   87OCT    H72 2258   2.231   0.933   1.223  1.4321  1.3280 -1.3517
   87OCT     C8 2259   2.208   0.992   1.431 -0.5357 -0.1387  0.1631
   87OCT    H81 2260   2.267   0.987   1.528  1.1450 -1.4475  2.1147
   87OCT    H82 2261   2.218   1.095   1.397  1.0551 -0.9925  0.8077
   87OCT    H83 2262   2.102   0.982   1.445  1.3297 -1.2074 -0.1126
   88OCT     C1 2263   1.884   0.286   3.654  0.4234  0.0740 -0.0073
   88OCT    H11 2264   1.776   0.296   3.665  1.5803 -0.8662 -0.0656
   88OCT    H12 2265   1.889   0.185   3.624  1.7439  2.3244  2.4014
   88OCT    H13 2266   1.935   0.305   3.753  0.5840  0.7626  0.7379
   88OCT     C2 2267   1.953   0.396   3.566 -0.0010 -0.1527 -0.1029
   88OCT    H21 2268   2.062   0.372   3.575  1.3927 -1.0282 -0.4743
   88OCT    H22 2269   1.927   0.388   3.463  0.8208  0.1129  1.3759
   88OCT     C3 2270   1.923   0.541   3.598 -0.6900 -0.0493  0.5953
   88OCT    H31 2271   1.814   0.562   3.580 -1.0693  0.5428  0.4451
   88OCT    H32 2272   1.956   0.570   3.694  1.4185  0.0718 -2.6332
   88OCT     C4 2273   2.011   0.628   3.510 -0.8951  0.2425 -0.1159
   88OCT    H41 2274   2.118   0.612   3.537 -1.5242  0.3755 -0.6692
   88OCT    H42 2275   1.996   0.600   3.409 -1.1079 -0.5756  3.6703
   88OCT     C5 2276   1.974   0.776   3.532 -0.0856  0.7610  0.9764
   88OCT    H51 2277   1.876   0.773   3.596 -3.2458 -3.1850 -0.7873
   88OCT    H52 2278   2.049   0.826   3.587 -0.5851  0.1569 -1.3841
   88OCT     C6 2279   1.961   0.844   3.394 -0.4695  0.6278  0.8824
   88OCT    H61 2280   2.035   0.787   3.334 -1.9347 -2.0212 -0.2004
   88OCT    H62 2281   1.869   0.812   3.343  2.3481 -0.5795  0.1737
   88OCT     C7 2282   1.981   0.993   3.384  0.1333 -0.4564 -0.1245
   88OCT    H71 2283   1.901   1.051   3.453 -2.2788  2.4442  2.4006
   88OCT    H72 2284   2.086   1.028   3.418  0.3509  1.5103  0.3959
   88OCT     C8 2285   1.974   1.029   3.238  0.2229 -0.2191  1.0019
   88OCT    H81 2286   1.971   1.144   3.228 -1.0861  1.3573  0.4069
   88OCT    H82 2287   2.064   0.994   3.181 -0.0552 -0.9684 -2.5250
   88OCT    H83 2288   1.878   0.998   3.191 -1.1120  0.6481 -1.5705
   89OCT     C1 2289   2.333   1.861   4.065 -0.2500  1.2088 -0.1367
   89OCT    H11 2290   2.428   1.905   4.058 -1.1706 -2.1441 -1.0099
   89OCT    H12 2291   2.347   1.769   4.130 -0.1786 -0.5413  0.2938
   89OCT    H13 2292   2.306   1.817   3.965  0.2992  0.0489  0.5633
   89OCT     C2 2293   2.232   1.947   4.133  1.2403  0.0341  0.2041
   89OCT    H21 2294   2.183   2.023   4.062 -0.8698  0.4671 -0.3113
   89OCT    H22 2295   2.146   1.886   4.176 -1.2183 -1.5939  1.2074
   89OCT     C3 2296   2.293   2.026   4.242 -0.0034  0.3960  0.2810
   89OCT    H31 2297   2.373   2.089   4.179  0.7083  1.6422 -0.9012
   89OCT    H32 2298   2.222   2.099   4.277  0.2856 -2.0409 -1.9215
   89OCT     C4 2299   2.354   1.948   4.355  0.3236 -0.7236  0.2258
   89OCT    H41 2300   2.429   1.875   4.320  1.3921 -0.7654  0.9521
   89OCT    H42 2301   2.412   2.024   4.420  3.8968  2.6613  0.2364
   89OCT     C5 2302   2.248   1.877   4.433 -0.2834  0.6097 -0.0893
   89OCT    H51 2303   2.164   1.946   4.475 -2.0939  1.1880  2.7655
   89OCT    H52 2304   2.197   1.802   4.365  0.2936 -4.3407 -0.7286
   89OCT     C6 2305   2.296   1.799   4.565  0.4445  0.2796 -0.2128
   89OCT    H61 2306   2.327   1.868   4.648 -0.6324  0.4764 -0.5519
   89OCT    H62 2307   2.196   1.746   4.592  0.4909 -2.0208  0.1360
   89OCT     C7 2308   2.406   1.696   4.549 -0.5512  0.3042 -0.0538
   89OCT    H71 2309   2.504   1.746   4.520 -0.2308  0.6276 -0.5209
   89OCT    H72 2310   2.426   1.654   4.650  0.4024  2.2453 -2.3162
   89OCT     C8 2311   2.375   1.595   4.434 -0.0460  0.8535  0.4455
   89OCT    H81 2312   2.387   1.645   4.340  0.6806  0.7835  1.2164
   89OCT    H82 2313   2.454   1.517   4.428 -0.7566 -0.6575 -0.6223
   89OCT    H83 2314   2.281   1.545   4.456  1.5730 -2.7346  2.1897
   90OCT     C1 2315   2.254   2.257   0.211 -0.4052 -0.2158  0.5821
   90OCT    H11 2316   2.248   2.221   0.110 -0.6859  2.1127  0.0586
   90OCT    H12 2317   2.214   2.186   0.288  0.1157 -0.0093  4.7951
   90OCT    H13 2318   2.183   2.341   0.222  0.5691 -1.3209  0.6401
   90OCT     C2 2319   2.396   2.300   0.249 -0.2748 -0.3118  0.3713
   90OCT    H21 2320   2.446   2.364   0.172  1.5788  0.9073  1.7298
   90OCT    H22 2321   2.380   2.360   0.346  0.1649  1.2943  1.3274
   90OCT     C3 2322   2.476   2.174   0.285  0.3026 -0.1224  0.2726
   90OCT    H31 2323   2.448   2.154   0.386  1.9064  2.4393  0.3970
   90OCT    H32 2324   2.440   2.087   0.225  1.1313  0.2188 -1.1913
   90OCT     C4 2325   2.630   2.188   0.269  0.0598  0.4585  0.1293
   90OCT    H41 2326   2.654   2.212   0.165  0.6584 -0.0954 -0.0509
   90OCT    H42 2327   2.659   2.277   0.332 -0.6192 -3.7605  1.5151
   90OCT     C5 2328   2.701   2.056   0.306  0.4352 -0.3179  0.4972
   90OCT    H51 2329   2.633   1.968   0.309 -1.1229  0.1617 -0.9997
   90OCT    H52 2330   2.768   2.040   0.216  0.3072 -1.1666  0.6880
   90OCT     C6 2331   2.798   2.086   0.428 -0.0953  0.1773  0.0342
   90OCT    H61 2332   2.886   2.016   0.425  1.2568  1.2790 -0.2623
   90OCT    H62 2333   2.840   2.190   0.430  4.0467 -0.1430  2.8839
   90OCT     C7 2334   2.734   2.064   0.568  0.0441  0.1435  0.0363
   90OCT    H71 2335   2.626   2.102   0.560  1.1052  0.9354 -0.6282
   90OCT    H72 2336   2.729   1.954   0.587  1.9295  1.3076 -1.5207
   90OCT     C8 2337   2.789   2.149   0.680 -0.4945  0.8108 -0.0497
   90OCT    H81 2338   2.736   2.126   0.775 -1.4402  0.4853 -0.7838
   90OCT    H82 2339   2.898   2.124   0.697  1.7374  2.3926 -1.3065
   90OCT    H83 2340   2.778   2.256   0.647 -2.8602  2.2058 -1.9706
   91OCT     C1 2341   1.774   3.042   1.325  0.7843 -0.4500 -0.2353
   91OCT    H11 2342   1.758   2.942   1.368 -0.6370 -0.1306  0.4560
   91OCT    H12 2343   1.827   3.025   1.230 -0.6816 -0.2316 -2.3848
   91OCT    H13 2344   1.837   3.092   1.407  0.3386  1.9159  0.0327
   91OCT     C2 2345   1.645   3.116   1.305 -0.1795  0.8517  0.3816
   91OCT    H21 2346   1.582   3.079   1.393  3.7304 -0.7423  0.4952
   91OCT    H22 2347   1.648   3.224   1.296 -0.3914  1.5872  3.0576
   91OCT     C3 2348   1.584   3.069   1.175  0.1498 -0.2394  0.1951
   91OCT    H31 2349   1.488   3.129   1.153 -2.3350  2.6727  1.6896
   91OCT    H32 2350   1.647   3.071   1.081  0.2036 -1.8726 -1.0713
   91OCT     C4 2351   1.531   2.923   1.176 -0.1124  0.0436  0.4667
   91OCT    H41 2352   1.509   2.899   1.283  1.5506  2.1708  2.5379
   91OCT    H42 2353   1.448   2.923   1.106 -1.9374  1.7525 -1.3388
   91OCT     C5 2354   1.633   2.821   1.121  0.2877  0.1213  0.1142
   91OCT    H51 2355   1.682   2.857   1.031  1.9627  0.9890  0.3598
   91OCT    H52 2356   1.715   2.799   1.199 -1.0935  2.0079 -0.5247
   91OCT     C6 2357   1.566   2.688   1.090  0.2728  0.1291  0.5506
   91OCT    H61 2358   1.505   2.661   1.177  1.4992 -0.0657 -0.6322
   91OCT    H62 2359   1.500   2.710   1.004  1.3163  1.8642  1.4617
   91OCT     C7 2360   1.668   2.575   1.039  0.2883 -0.5600  0.1659
   91OCT    H71 2361   1.731   2.611   0.957 -1.8368 -1.1662  2.5036
   91OCT    H72 2362   1.740   2.546   1.119  0.7066 -0.9494 -1.2787
   91OCT     C8 2363   1.585   2.457   0.980  0.1036  0.0908  0.5245
   91OCT    H81 2364   1.518   2.419   1.063 -1.8678 -2.4172 -1.2084
   91OCT    H82 2365   1.528   2.495   0.886  2.6126 -0.2014 -1.6204
   91OCT    H83 2366   1.646   2.374   0.940 -2.0644 -1.8311 -1.0169
   92OCT     C1 2367   3.934   3.345   2.577  0.0475 -0.0817  0.7175
   92OCT    H11 2368   3.839   3.295   2.594 -1.0762  0.8748 -0.8343
   92OCT    H12 2369   4.003   3.274   2.541 -0.7848  2.1942 -0.3536
   92OCT    H13 2370   3.967   3.389   2.677  0.4851  3.7813  1.5383
   92OCT     C2 2371   3.928   3.471   2.484 -0.1652 -0.0803 -0.0702
   92OCT    H21 2372   4.027   3.517   2.507  1.2893  0.5029  0.9615
   92OCT    H22 2373   3.930   3.440   2.378  2.0405  0.7979  1.6216
   92OCT     C3 2374   3.824   3.583   2.518 -0.9005  0.1961  0.1531
   92OCT    H31 2375   3.720   3.547   2.497 -0.5015  0.9414  2.3669
   92OCT    H32 2376   3.838   3.604   2.624 -1.8686 -0.5004  2.2434
   92OCT     C4 2377   3.844   3.712   2.430  0.5638  0.1629  0.3014
   92OCT    H41 2378   3.949   3.761   2.445  0.7329  0.3845  0.7903
   92OCT    H42 2379   3.842   3.685   2.326 -2.3642  2.0438  0.9975
   92OCT     C5 2380   3.741   3.818   2.452  0.0535 -0.0761  0.6421
   92OCT    H51 2381   3.642   3.779   2.420 -0.5738 -1.0873 -1.5110
   92OCT    H52 2382   3.741   3.853   2.557  0.1235  1.2324 -0.1209
   92OCT     C6 2383   3.773   3.942   2.358  0.1086  0.1104 -0.0864
   92OCT    H61 2384   3.869   3.997   2.384  0.3447  2.2893  2.1787
   92OCT    H62 2385   3.807   3.895   2.262 -0.4855  0.4598 -0.5102
   92OCT     C7 2386   3.650   4.030   2.337  0.3777  0.6322  0.3665
   92OCT    H71 2387   3.565   3.977   2.295  2.9435  1.6831 -3.0107
   92OCT    H72 2388   3.607   4.062   2.434  2.3019  0.0326  1.9073
   92OCT     C8 2389   3.685   4.158   2.257 -0.1034 -0.2900 -0.2437
   92OCT    H81 2390   3.732   4.132   2.159 -0.3138  2.1902 -0.6515
   92OCT    H82 2391   3.593   4.225   2.242 -0.6489 -1.4273 -0.4828
   92OCT    H83 2392   3.752   4.220   2.321 -0.4491  1.5655  0.6211
   93OCT     C1 2393   2.639   1.022   1.810 -0.2619 -0.0849 -0.7474
   93OCT    H11 2394   2.580   1.104   1.751  0.2240  0.1299 -0.2402
   93OCT    H12 2395   2.705   0.969   1.736 -0.7360 -3.5035  0.1816
   93OCT    H13 2396   2.571   0.950   1.861 -1.1523 -0.6371  3.4446
   93OCT     C2 2397   2.712   1.092   1.926 -0.3708 -0.2475 -0.3830
   93OCT    H21 2398   2.630   1.135   1.993 -1.4293 -0.7552  1.4126
   93OCT    H22 2399   2.759   1.016   1.990 -1.5213 -0.0378  0.5187
   93OCT     C3 2400   2.810   1.198   1.868 -0.0018  0.0530  0.4733
   93OCT    H31 2401   2.903   1.160   1.836  1.5424  2.6070 -0.7877
   93OCT    H32 2402   2.755   1.244   1.776  0.5419 -0.2530  1.2686
   93OCT     C4 2403   2.842   1.315   1.971 -0.1983 -0.4510 -0.6467
   93OCT    H41 2404   2.925   1.380   1.940 -0.1099  0.2700 -0.1062
   93OCT    H42 2405   2.745   1.357   2.003 -2.2531  2.9651 -0.5255
   93OCT     C5 2406   2.896   1.253   2.103 -0.2247 -0.2895  0.1208
   93OCT    H51 2407   2.912   1.331   2.181  2.6175  0.8093  2.6510
   93OCT    H52 2408   2.826   1.180   2.136 -0.9060 -0.9909 -1.8864
   93OCT     C6 2409   3.038   1.207   2.089 -0.1195  0.0833 -0.0989
   93OCT    H61 2410   3.047   1.129   2.007 -0.1387  0.8031 -1.6077
   93OCT    H62 2411   3.117   1.280   2.063  1.9261 -1.0778 -0.7886
   93OCT     C7 2412   3.079   1.134   2.219  0.2029  0.2327  0.4072
   93OCT    H71 2413   3.047   1.211   2.293 -0.9285  1.5812  1.1201
   93OCT    H72 2414   3.012   1.047   2.237  0.7227  3.1274 -0.0666
   93OCT     C8 2415   3.232   1.097   2.230 -0.1914 -0.0766  0.4568
   93OCT    H81 2416   3.290   1.185   2.235 -3.0126 -0.2919  2.1786
   93OCT    H82 2417   3.252   1.050   2.329 -2.4039 -3.9070  0.4088
   93OCT    H83 2418   3.260   1.027   2.142 -0.3418  0.3349 -3.2730
   94OCT     C1 2419   3.427   2.442   2.169  0.3470  0.6636  0.5963
   94OCT    H11 2420   3.402   2.347   2.227 -2.6095  0.1425  0.9418
   94OCT    H12 2421   3.336   2.503   2.163 -2.1749  0.8619  0.7212
   94OCT    H13 2422   3.458   2.396   2.065 -0.2123 -2.4486 -2.0742
   94OCT     C2 2423   3.540   2.530   2.227 -0.2732 -0.1384 -0.3344
   94OCT    H21 2424   3.551   2.617   2.158  1.1477 -0.8052  0.9492
   94OCT    H22 2425   3.496   2.567   2.324 -2.4884  1.1059  0.9891
   94OCT     C3 2426   3.670   2.469   2.263 -0.2311  0.0401 -0.2789
   94OCT    H31 2427   3.753   2.464   2.183  3.7132  0.0001  2.9836
   94OCT    H32 2428   3.720   2.547   2.328 -1.9214 -1.2838  0.2239
   94OCT     C4 2429   3.670   2.341   2.352  0.2223 -0.0123 -0.2169
   94OCT    H41 2430   3.598   2.359   2.434  0.3685 -0.2266  0.1423
   94OCT    H42 2431   3.650   2.247   2.293  0.7928 -2.0660  0.8579
   94OCT     C5 2432   3.801   2.318   2.428 -0.5402  0.3203 -0.0829
   94OCT    H51 2433   3.824   2.387   2.506 -0.3243  1.2749 -0.5804
   94OCT    H52 2434   3.812   2.215   2.466 -1.8091  0.6776 -2.1130
   94OCT     C6 2435   3.931   2.329   2.346 -0.4543  0.3409  0.0372
   94OCT    H61 2436   3.934   2.278   2.249  0.1764 -0.7028  0.4259
   94OCT    H62 2437   3.951   2.434   2.311  0.6729  0.6076 -1.1721
   94OCT     C7 2438   4.061   2.300   2.420 -0.1868 -0.0658 -0.2783
   94OCT    H71 2439   4.058   2.350   2.522 -1.5049 -2.1786 -0.4101
   94OCT    H72 2440   4.063   2.190   2.436  1.1545  1.2980  0.1392
   94OCT     C8 2441   4.190   2.348   2.345 -0.0808  0.7845 -0.4145
   94OCT    H81 2442   4.230   2.442   2.388  1.9217  0.3355 -1.6410
   94OCT    H82 2443   4.270   2.267   2.349 -0.0017 -2.3916  0.8712
   94OCT    H83 2444   4.168   2.362   2.237 -1.5252  0.9515  1.5487
   95OCT     C1 2445   2.141   3.226   3.458 -0.0717  0.0499  0.0406
   95OCT    H11 2446   2.239   3.283   3.460  1.6702 -0.0288 -1.7849
   95OCT    H12 2447   2.161   3.127   3.502 -1.4422  1.2507 -0.4732
   95OCT    H13 2448   2.101   3.202   3.363  0.9856 -0.4748  2.6572
   95OCT     C2 2449   2.041   3.312   3.538  0.1462  0.0523  0.2529
   95OCT    H21 2450   1.945   3.255   3.523 -0.1183 -0.1321 -1.4956
   95OCT    H22 2451   2.074   3.307   3.642  0.8514 -0.7794 -0.9481
   95OCT     C3 2452   2.019   3.450   3.481  0.1768 -0.4190 -0.0384
   95OCT    H31 2453   1.939   3.503   3.534 -1.7196  0.6352 -2.9990
   95OCT    H32 2454   2.115   3.502   3.504  0.5453 -0.9991  1.6064
   95OCT     C4 2455   2.001   3.458   3.331 -0.0118  0.2104 -0.1711
   95OCT    H41 2456   2.087   3.409   3.280 -1.3397 -0.8379  0.2387
   95OCT    H42 2457   1.903   3.403   3.310 -0.5571 -0.2275 -1.1451
   95OCT     C5 2458   1.988   3.601   3.284 -0.2559  0.4974 -0.4906
   95OCT    H51 2459   1.895   3.642   3.328 -1.8565  0.7115  1.0782
   95OCT    H52 2460   2.078   3.654   3.324 -0.0894 -0.3174  1.2891
   95OCT     C6 2461   1.980   3.603   3.130  0.2397  0.2512 -0.4676
   95OCT    H61 2462   2.067   3.545   3.098 -0.1198  0.9677  0.9438
   95OCT    H62 2463   1.891   3.552   3.099  0.6743  1.9080 -0.1884
   95OCT     C7 2464   1.981   3.745   3.080  0.3997  0.0943  0.6465
   95OCT    H71 2465   2.078   3.795   3.112  2.0528 -0.1201 -1.7290
   95OCT    H72 2466   1.990   3.744   2.969 -0.4653  1.6725  1.5712
   95OCT     C8 2467   1.860   3.830   3.123 -0.3302  0.2320  1.0168
   95OCT    H81 2468   1.880   3.936   3.088  0.3049  1.4339  1.7419
   95OCT    H82 2469   1.761   3.793   3.085 -0.2065 -2.5910  0.7063
   95OCT    H83 2470   1.841   3.833   3.233  1.6959 -1.6654  2.6401
   96OCT     C1 2471   2.837   3.765   2.578 -0.3178 -0.0192  0.0670
   96OCT    H11 2472   2.878   3.861   2.542  0.3986 -0.2493  0.3656
   96OCT    H12 2473   2.851   3.751   2.693  0.8509 -3.4906  3.0379
   96OCT    H13 2474   2.906   3.683   2.544 -1.2808 -0.6223  1.5721
   96OCT     C2 2475   2.693   3.740   2.535 -0.2362 -0.6921 -0.1091
   96OCT    H21 2476   2.631   3.804   2.600  1.2037 -2.4897 -1.5203
   96OCT    H22 2477   2.678   3.741   2.421  0.3904  3.2139 -0.8294
   96OCT     C3 2478   2.640   3.604   2.587 -0.2328 -0.2461  0.7820
   96OCT    H31 2479   2.686   3.583   2.690 -0.3977  0.1901  0.1418
   96OCT    H32 2480   2.528   3.607   2.594 -1.9039  1.2720 -0.5794
   96OCT     C4 2481   2.683   3.490   2.491  0.9907 -0.3664  0.6499
   96OCT    H41 2482   2.794   3.502   2.467  0.0300 -0.8038 -0.7440
   96OCT    H42 2483   2.668   3.390   2.545 -1.5091 -0.6500 -1.5779
   96OCT     C5 2484   2.587   3.479   2.366  0.3017 -0.1031 -0.6625
   96OCT    H51 2485   2.486   3.495   2.408  1.0992 -2.7149  2.3807
   96OCT    H52 2486   2.606   3.564   2.291  0.7176  3.9378 -0.9687
   96OCT     C6 2487   2.614   3.347   2.300 -0.2805 -0.3017 -0.0905
   96OCT    H61 2488   2.720   3.348   2.269  2.3727 -1.9008 -0.0262
   96OCT    H62 2489   2.605   3.260   2.374 -1.2638  0.2981  1.8343
   96OCT     C7 2490   2.537   3.319   2.172 -1.1575 -0.0456 -0.1902
   96OCT    H71 2491   2.563   3.382   2.085  0.2206  0.8501 -0.6824
   96OCT    H72 2492   2.555   3.211   2.147  0.3069  1.0779  0.6069
   96OCT     C8 2493   2.382   3.336   2.190  0.5102  0.0247 -0.1124
   96OCT    H81 2494   2.341   3.266   2.263 -0.5574  0.1096 -1.4663
   96OCT    H82 2495   2.362   3.438   2.228  0.4127  1.3795 -1.9310
   96OCT    H83 2496   2.332   3.325   2.095  2.1873  0.9252 -0.2340
   97OCT     C1 2497   1.066   0.975   2.386 -0.3269 -0.2815  0.4720
   97OCT    H11 2498   1.056   1.014   2.281 -1.6030  0.3529  1.2344
   97OCT    H12 2499   1.098   1.061   2.453 -1.4596 -1.2020  0.6753
   97OCT    H13 2500   1.151   0.898   2.383 -0.9883  0.1662  0.4762
   97OCT     C2 2501   0.927   0.930   2.420 -0.2192  0.4827 -0.4598
   97OCT    H21 2502   0.858   1.021   2.405  1.6183  1.8178 -2.0877
   97OCT    H22 2503   0.893   0.852   2.345 -2.3070  1.1815  1.9080
   97OCT     C3 2504   0.916   0.898   2.570 -0.0245  0.1151  0.0063
   97OCT    H31 2505   0.992   0.826   2.616  0.2068 -2.3745  3.0415
   97OCT    H32 2506   0.925   0.988   2.634  1.5304 -0.9651  1.2617
   97OCT     C4 2507   0.784   0.831   2.588 -0.0552  0.2592 -0.6709
   97OCT    H41 2508   0.694   0.894   2.566  0.4033  1.2045 -1.6739
   97OCT    H42 2509   0.784   0.742   2.526 -2.5117  0.5233  0.8651
   97OCT     C5 2510   0.774   0.779   2.731 -0.6477  0.0529 -0.1653
   97OCT    H51 2511   0.868   0.720   2.750 -0.0797  0.3374 -0.8497
   97OCT    H52 2512   0.775   0.869   2.793  1.2819 -0.3178 -1.1030
   97OCT     C6 2513   0.644   0.708   2.749  0.0678  0.5398 -0.4776
   97OCT    H61 2514   0.624   0.647   2.660 -0.2608  0.6256  0.7261
   97OCT    H62 2515   0.651   0.643   2.831  1.1402  2.0746  1.4235
   97OCT     C7 2516   0.521   0.790   2.783  0.8658 -0.1525 -0.3423
   97OCT    H71 2517   0.534   0.817   2.888 -0.9404 -0.9332 -1.6457
   97OCT    H72 2518   0.524   0.885   2.728  1.0739  0.9339  3.3625
   97OCT     C8 2519   0.379   0.728   2.756  0.1991 -0.1687 -0.4850
   97OCT    H81 2520   0.293   0.763   2.821 -1.2598 -0.4800 -0.4061
   97OCT    H82 2521   0.363   0.746   2.647 -0.0245  0.3876  1.6167
   97OCT    H83 2522   0.369   0.617   2.765  2.0006  0.4454 -2.0089
   98OCT     C1 2523   2.676   1.064   2.358 -0.1997  0.2199  0.2028
   98OCT    H11 2524   2.670   0.967   2.313  3.6632  1.1712  0.6395
   98OCT    H12 2525   2.660   1.132   2.277  0.6461  0.9957  0.9646
   98OCT    H13 2526   2.775   1.070   2.404 -2.2827 -0.6844  2.9447
   98OCT     C2 2527   2.564   1.072   2.468  0.0934 -0.0415  0.2871
   98OCT    H21 2528   2.466   1.040   2.445  0.1213 -1.7441  1.8668
   98OCT    H22 2529   2.586   1.011   2.555  1.3831  0.2667 -0.6150
   98OCT     C3 2530   2.544   1.223   2.505 -1.1263 -0.2475 -0.7958
   98OCT    H31 2531   2.523   1.273   2.411  4.3307 -2.8791 -0.0566
   98OCT    H32 2532   2.447   1.230   2.571 -1.6909  0.7486  2.6735
   98OCT     C4 2533   2.659   1.288   2.578 -0.4114 -0.1787  0.5945
   98OCT    H41 2534   2.665   1.262   2.681  0.8016  0.4094 -1.3388
   98OCT    H42 2535   2.757   1.257   2.533 -0.5650  1.5173  2.3274
   98OCT     C5 2536   2.659   1.443   2.574  0.1226 -0.3095  0.4422
   98OCT    H51 2537   2.653   1.475   2.474  1.6578 -0.7890  2.5640
   98OCT    H52 2538   2.574   1.481   2.632 -0.0285 -0.9797  0.0849
   98OCT     C6 2539   2.778   1.511   2.652 -0.3828 -0.0519  0.0731
   98OCT    H61 2540   2.779   1.488   2.763  0.4958  1.3204 -1.4041
   98OCT    H62 2541   2.869   1.480   2.605 -2.5176  0.0567 -0.7884
   98OCT     C7 2542   2.768   1.662   2.652  0.6609 -0.5018 -0.3660
   98OCT    H71 2543   2.787   1.712   2.557 -1.0574  1.3491  0.4371
   98OCT    H72 2544   2.665   1.694   2.693 -0.7936 -1.0745 -1.9828
   98OCT     C8 2545   2.862   1.722   2.756 -0.0464  1.0241 -0.7671
   98OCT    H81 2546   2.869   1.830   2.753 -0.8656  1.2751 -0.7434
   98OCT    H82 2547   2.817   1.707   2.855  0.0153  1.5642  0.7539
   98OCT    H83 2548   2.963   1.674   2.740 -0.6848 -0.2121 -0.4476
   99OCT     C1 2549   3.019   2.874   1.015  0.4496 -0.3599 -0.3127
   99OCT    H11 2550   3.101   2.811   1.048  3.9756  2.1111  0.4140
   99OCT    H12 2551   2.921   2.827   1.055 -2.6712 -0.3495  1.4428
   99OCT    H13 2552   3.029   2.864   0.907  0.3665 -0.9139  0.0400
   99OCT     C2 2553   3.035   3.017   1.068 -0.5581 -0.0180  0.4313
   99OCT    H21 2554   2.948   3.073   1.037  1.7139 -1.7280 -0.5087
   99OCT    H22 2555   3.024   3.017   1.182 -1.2770  0.0804  1.7735
   99OCT     C3 2556   3.161   3.095   1.043  0.5626 -0.3933  0.4796
   99OCT    H31 2557   3.197   3.068   0.937  1.9375  1.0196 -2.3655
   99OCT    H32 2558   3.144   3.208   1.054 -0.3047 -0.4125  0.3636
   99OCT     C4 2559   3.278   3.040   1.128  0.7392  0.0638  0.1055
   99OCT    H41 2560   3.261   3.065   1.232  0.8125  2.2935  0.5791
   99OCT    H42 2561   3.285   2.930   1.120  1.3975  2.0729  1.5968
   99OCT     C5 2562   3.411   3.104   1.082  0.5886 -0.6283 -0.1217
   99OCT    H51 2563   3.392   3.189   1.014  0.1213 -0.7014 -0.1788
   99OCT    H52 2564   3.468   3.126   1.175 -0.3179  1.2213 -0.2782
   99OCT     C6 2565   3.494   2.996   1.006  0.6480  0.2473 -0.4062
   99OCT    H61 2566   3.508   2.909   1.073 -1.7032 -0.5661 -1.1737
   99OCT    H62 2567   3.433   2.956   0.924  0.2236  0.5391  0.4351
   99OCT     C7 2568   3.624   3.045   0.961 -0.1504 -0.2087 -0.4992
   99OCT    H71 2569   3.607   3.138   0.893  0.0825  2.4474  0.9679
   99OCT    H72 2570   3.686   3.061   1.056  0.4363 -0.6390  3.0261
   99OCT     C8 2571   3.699   2.935   0.880  0.2931 -0.0061 -0.0346
   99OCT    H81 2572   3.745   2.862   0.958  0.0552  0.0247  1.1707
   99OCT    H82 2573   3.634   2.883   0.801 -1.6879  1.2157 -2.3621
   99OCT    H83 2574   3.784   2.984   0.836 -1.3385  0.0903 -0.4807
  100OCT     C1 2575   2.527   3.453   3.055 -0.2002  0.0382  0.1982
  100OCT    H11 2576   2.627   3.506   3.096  0.7102  2.3909  2.0750
  100OCT    H12 2577   2.520   3.347   3.099  1.2710 -2.0699  0.9978
  100OCT    H13 2578   2.542   3.435   2.939  0.6496  0.8209 -2.4387
  100OCT     C2 2579   2.397   3.528   3.093 -0.2507  0.1226  0.1408
  100OCT    H21 2580   2.308   3.480   3.058  0.8177  5.1896  1.2279
  100OCT    H22 2581   2.404   3.529   3.201  0.3589  0.1886 -0.9301
  100OCT     C3 2582   2.398   3.676   3.047  0.8447 -0.3631 -0.7743
  100OCT    H31 2583   2.401   3.660   2.939  0.5193 -1.0250  0.8657
  100OCT    H32 2584   2.301   3.723   3.054  1.8391 -0.3558  0.0328
  100OCT     C4 2585   2.511   3.768   3.094  0.5679 -0.2298 -0.0681
  100OCT    H41 2586   2.542   3.741   3.201 -0.7008 -2.5411 -0.2938
  100OCT    H42 2587   2.595   3.730   3.043 -1.5499 -1.5715  3.0045
  100OCT     C5 2588   2.491   3.915   3.077 -0.3586  0.0922  0.6352
  100OCT    H51 2589   2.458   3.938   2.970 -2.2111 -2.2895 -2.3261
  100OCT    H52 2590   2.405   3.946   3.139  2.2676  1.4570  0.4640
  100OCT     C6 2591   2.611   3.999   3.123  0.4143 -0.3623 -0.5042
  100OCT    H61 2592   2.596   4.104   3.122  2.0598 -3.4850 -1.9094
  100OCT    H62 2593   2.623   3.977   3.234 -0.5559  0.1459  1.3468
  100OCT     C7 2594   2.740   3.970   3.053  0.0914 -0.3637 -0.4840
  100OCT    H71 2595   2.817   4.037   3.098 -0.4889  0.9400  1.6583
  100OCT    H72 2596   2.769   3.868   3.094  1.4352  2.1404  2.8036
  100OCT     C8 2597   2.739   3.965   2.905 -0.2901 -0.1447  0.1256
  100OCT    H81 2598   2.678   3.879   2.862  3.1187  1.5802 -2.1691
  100OCT    H82 2599   2.708   4.057   2.864  2.7520 -1.2567 -2.0825
  100OCT    H83 2600   2.843   3.942   2.871 -1.4032  0.2010 -0.1859
  101OCT     C1 2601   4.084   0.595   3.723  0.0131 -0.1885  0.1696
  101OCT    H11 2602   4.104   0.583   3.613  0.8093  1.9234  1.7541
  101OCT    H12 2603   4.180   0.575   3.770  1.8265  0.2842 -1.1425
  101OCT    H13 2604   4.006   0.521   3.745  0.7069 -0.5645 -0.6404
  101OCT     C2 2605   4.024   0.738   3.752 -1.2059  0.8197 -0.6532
  101OCT    H21 2606   4.113   0.809   3.742 -1.7727 -1.4584  1.6938
  101OCT    H22 2607   3.944   0.772   3.683  0.6135 -3.7688 -2.4375
  101OCT     C3 2608   3.970   0.741   3.900 -0.4314 -1.0404  0.3303
  101OCT    H31 2609   3.891   0.668   3.912 -1.1437 -2.0104  0.1120
  101OCT    H32 2610   4.057   0.710   3.960 -3.5351 -1.3146  2.8507
  101OCT     C4 2611   3.916   0.881   3.937 -0.1280 -0.2019  0.6432
  101OCT    H41 2612   3.858   0.877   4.029  0.3853 -1.3842 -0.0683
  101OCT    H42 2613   4.009   0.940   3.955  0.9849 -0.1478  1.0728
  101OCT     C5 2614   3.835   0.964   3.839  0.1013  0.2015  0.1738
  101OCT    H51 2615   3.784   0.905   3.769  0.2892  3.7943  0.7784
  101OCT    H52 2616   3.749   1.011   3.902 -1.9463 -1.7619  1.8259
  101OCT     C6 2617   3.915   1.085   3.782  0.0769  0.2545 -0.7195
  101OCT    H61 2618   3.925   1.156   3.874  0.8201 -1.1690  1.5922
  101OCT    H62 2619   4.015   1.059   3.738 -0.3826 -0.0950 -2.5105
  101OCT     C7 2620   3.838   1.158   3.673  0.1532 -0.8940  0.0398
  101OCT    H71 2621   3.735   1.182   3.695 -0.3493  1.4716 -0.9493
  101OCT    H72 2622   3.890   1.256   3.669  1.2307  1.5219 -0.0920
  101OCT     C8 2623   3.847   1.086   3.538  0.7000 -0.4045 -0.5863
  101OCT    H81 2624   3.832   0.980   3.553  0.5278  1.1992 -3.4216
  101OCT    H82 2625   3.760   1.110   3.469 -1.9692 -0.0351  0.7033
  101OCT    H83 2626   3.939   1.092   3.483 -1.1380  0.3201  0.1621
  102OCT     C1 2627   1.691   1.444   0.717 -0.1109  0.0023 -0.1288
  102OCT    H11 2628   1.773   1.506   0.740 -2.1504 -1.5106  1.5199
  102OCT    H12 2629   1.708   1.350   0.782  1.1965 -1.2656 -0.2910
  102OCT    H13 2630   1.697   1.424   0.609 -1.0656  0.0817 -0.8637
  102OCT     C2 2631   1.578   1.523   0.749  0.3856 -0.4254 -0.5820
  102OCT    H21 2632   1.567   1.583   0.663 -2.2424 -1.8871  2.2177
  102OCT    H22 2633   1.482   1.461   0.771  0.1573 -0.8267 -0.1343
  102OCT     C3 2634   1.588   1.621   0.868  0.1578 -0.2706  0.1538
  102OCT    H31 2635   1.682   1.677   0.842  1.2919 -2.1721 -3.1537
  102OCT    H32 2636   1.499   1.685   0.871  0.3180  0.4789  0.7092
  102OCT     C4 2637   1.595   1.553   1.000 -0.7350  0.3582 -0.3946
  102OCT    H41 2638   1.498   1.509   1.027 -0.1601  0.3356  0.2337
  102OCT    H42 2639   1.670   1.469   0.988  0.1347 -2.5672  1.3227
  102OCT     C5 2640   1.638   1.638   1.114 -0.1908  0.5548  0.1933
  102OCT    H51 2641   1.750   1.653   1.117  0.3948 -0.5413  2.4126
  102OCT    H52 2642   1.592   1.735   1.114 -1.1471 -0.2448  1.0422
  102OCT     C6 2643   1.628   1.579   1.258 -0.0193 -0.1057  0.1335
  102OCT    H61 2644   1.526   1.555   1.278  2.7263 -0.9531  0.8906
  102OCT    H62 2645   1.681   1.484   1.268  0.8005 -0.5416  1.5878
  102OCT     C7 2646   1.676   1.683   1.367 -0.4851 -0.5338 -0.6598
  102OCT    H71 2647   1.778   1.724   1.357  0.5179 -0.2703  0.0612
  102OCT    H72 2648   1.603   1.771   1.345  1.2287  0.6479 -2.3977
  102OCT     C8 2649   1.668   1.624   1.509  0.1205  0.5824 -0.2081
  102OCT    H81 2650   1.746   1.538   1.505  0.2954  0.8103 -0.5779
  102OCT    H82 2651   1.701   1.702   1.578  3.1444 -1.9539 -2.5473
  102OCT    H83 2652   1.563   1.590   1.538  1.1309 -0.6893  0.4965
  103OCT     C1 2653   3.260   2.041   2.162 -0.8430  0.8445  0.3256
  103OCT    H11 2654   3.296   2.032   2.055  1.5893 -2.9352 -1.5871
  103OCT    H12 2655   3.191   1.958   2.186 -0.8265  0.0640 -0.1607
  103OCT    H13 2656   3.195   2.131   2.168 -3.0398  1.6873 -1.0928
  103OCT     C2 2657   3.386   2.032   2.249  0.5370 -0.1302 -0.3202
  103OCT    H21 2658   3.456   2.111   2.214  0.5976 -0.4543 -1.7302
  103OCT    H22 2659   3.360   2.048   2.355 -0.9121  0.7595 -1.4908
  103OCT     C3 2660   3.453   1.898   2.225  0.4352 -0.2536 -0.0380
  103OCT    H31 2661   3.392   1.811   2.252  2.2128 -0.6011 -0.2342
  103OCT    H32 2662   3.468   1.884   2.121  0.5222 -1.2540  1.3269
  103OCT     C4 2663   3.591   1.890   2.281 -0.3057 -0.1714 -0.8287
  103OCT    H41 2664   3.629   1.786   2.272 -0.0409 -0.1526 -0.8566
  103OCT    H42 2665   3.658   1.942   2.207 -1.2232 -0.6157 -1.0565
  103OCT     C5 2666   3.597   1.938   2.428 -0.3747 -0.2105  0.3498
  103OCT    H51 2667   3.584   2.050   2.431  0.4634  0.5153 -1.2643
  103OCT    H52 2668   3.500   1.893   2.468  0.9962 -1.6456  0.2963
  103OCT     C6 2669   3.730   1.912   2.498 -0.0502  0.2301 -0.3598
  103OCT    H61 2670   3.746   1.796   2.513 -1.6129 -1.9955  0.4406
  103OCT    H62 2671   3.814   1.951   2.436  2.1663  0.6931 -1.3357
  103OCT     C7 2672   3.726   1.970   2.639  0.5646  0.2756 -0.3866
  103OCT    H71 2673   3.689   2.076   2.647 -0.5711  1.9187  2.1554
  103OCT    H72 2674   3.653   1.905   2.692  4.0030  0.1409  0.8375
  103OCT     C8 2675   3.857   1.952   2.716  0.4696 -0.4938 -0.3338
  103OCT    H81 2676   3.838   1.992   2.816 -2.0112 -2.0177  1.5213
  103OCT    H82 2677   3.889   1.851   2.732 -0.3965  1.1096  0.3513
  103OCT    H83 2678   3.938   2.013   2.670 -1.6380 -1.6703  0.7561
  104OCT     C1 2679   0.313   2.816   0.282  0.0011  0.1981 -0.7142
  104OCT    H11 2680   0.344   2.920   0.265 -3.1262  1.3300  0.7682
  104OCT    H12 2681   0.365   2.745   0.218  1.1559 -0.8247  0.8644
  104OCT    H13 2682   0.205   2.802   0.262 -0.2943  2.9331 -1.6524
  104OCT     C2 2683   0.346   2.783   0.432 -0.0099  0.2339  0.7038
  104OCT    H21 2684   0.290   2.843   0.507  1.0666  0.8199  0.9373
  104OCT    H22 2685   0.323   2.676   0.457  1.3529  2.2251  1.4674
  104OCT     C3 2686   0.497   2.806   0.457  0.0836 -0.4787  0.5366
  104OCT    H31 2687   0.523   2.909   0.421  0.8201  0.8824  0.3192
  104OCT    H32 2688   0.527   2.821   0.560 -0.5149 -0.7079  0.9675
  104OCT     C4 2689   0.590   2.698   0.407  0.6300 -0.2374  0.1506
  104OCT    H41 2690   0.592   2.609   0.476  2.0936  1.2659 -0.5104
  104OCT    H42 2691   0.565   2.663   0.306 -0.3129  0.5257  0.8543
  104OCT     C5 2692   0.732   2.744   0.415  0.0234 -0.7578  0.1481
  104OCT    H51 2693   0.750   2.838   0.352 -1.0255  1.7199 -1.2669
  104OCT    H52 2694   0.754   2.793   0.512 -0.0443  2.3556 -1.2062
  104OCT     C6 2695   0.836   2.640   0.363  0.5412 -0.2923 -0.3749
  104OCT    H61 2696   0.794   2.594   0.270  2.3194  0.8788 -1.5338
  104OCT    H62 2697   0.927   2.686   0.341 -1.5753 -0.4361 -1.7212
  104OCT     C7 2698   0.877   2.537   0.466  0.4253  0.7745  0.4210
  104OCT    H71 2699   0.892   2.585   0.563 -0.3764 -1.8415 -0.0217
  104OCT    H72 2700   0.788   2.465   0.485 -3.8287  0.9984 -1.2448
  104OCT     C8 2701   1.003   2.456   0.429 -0.1945 -0.1985 -0.3845
  104OCT    H81 2702   1.040   2.385   0.508  1.4756  1.8840 -1.4093
  104OCT    H82 2703   1.004   2.400   0.337  1.7649 -1.3404  1.7045
  104OCT    H83 2704   1.083   2.537   0.412  0.2218 -0.3645 -1.1855
  105OCT     C1 2705   1.490   0.262   3.122 -0.5094  0.5708 -0.8876
  105OCT    H11 2706   1.417   0.329   3.066  0.0822  0.8828  0.5065
  105OCT    H12 2707   1.589   0.314   3.113  0.2582 -0.5578 -2.0484
  105OCT    H13 2708   1.511   0.170   3.070  1.5293  0.1914  2.6624
  105OCT     C2 2709   1.450   0.230   3.269 -0.1260  0.0395 -0.1185
  105OCT    H21 2710   1.353   0.172   3.262  0.5700 -1.8931 -0.3135
  105OCT    H22 2711   1.530   0.164   3.314 -1.8224 -1.1026  1.4190
  105OCT     C3 2712   1.432   0.354   3.358  0.3028 -0.7001  0.4164
  105OCT    H31 2713   1.374   0.443   3.308 -2.6129  3.7736  4.0131
  105OCT    H32 2714   1.366   0.341   3.446 -1.5164 -0.0802  1.2352
  105OCT     C4 2715   1.566   0.417   3.396 -0.5491 -0.3867  0.1274
  105OCT    H41 2716   1.614   0.347   3.473 -0.3741  0.2662  1.0032
  105OCT    H42 2717   1.632   0.421   3.311 -2.9242 -1.4019 -1.5036
  105OCT     C5 2718   1.547   0.573   3.427 -0.2308 -0.6171 -0.6199
  105OCT    H51 2719   1.646   0.616   3.437 -0.3797 -0.6590 -0.2515
  105OCT    H52 2720   1.487   0.621   3.344 -1.0449 -0.9788 -2.4892
  105OCT     C6 2721   1.460   0.615   3.555  0.2013  0.5928 -0.0829
  105OCT    H61 2722   1.447   0.732   3.549  0.6643  1.5611 -1.0779
  105OCT    H62 2723   1.357   0.574   3.548 -0.9640  0.3391  2.8526
  105OCT     C7 2724   1.540   0.588   3.685 -0.3592  0.0736  0.3631
  105OCT    H71 2725   1.583   0.479   3.681  1.7138 -3.5975 -1.4102
  105OCT    H72 2726   1.629   0.655   3.679 -1.4298 -2.1615  1.7943
  105OCT     C8 2727   1.470   0.615   3.813  0.0964 -0.1708  0.6004
  105OCT    H81 2728   1.369   0.558   3.806 -1.9486 -2.8996 -1.5244
  105OCT    H82 2729   1.526   0.585   3.904 -1.1576 -0.5819  1.9273
  105OCT    H83 2730   1.443   0.727   3.815  1.0306  0.5617 -0.9688
  106OCT     C1 2731   0.599   3.373   0.833 -0.1798 -0.2406  0.1109
  106OCT    H11 2732   0.608   3.393   0.724  0.4031 -4.5040  0.0681
  106OCT    H12 2733   0.604   3.452   0.899 -2.3596 -1.2794 -0.9970
  106OCT    H13 2734   0.676   3.302   0.855 -0.8494  2.6397 -0.4827
  106OCT     C2 2735   0.460   3.299   0.842  0.7182 -0.4651 -0.2279
  106OCT    H21 2736   0.457   3.244   0.937 -1.1030 -1.3182  1.0365
  106OCT    H22 2737   0.379   3.374   0.861 -0.8493 -0.9644 -0.1449
  106OCT     C3 2738   0.422   3.211   0.726  0.8729  0.2533 -0.2580
  106OCT    H31 2739   0.460   3.268   0.639 -2.2464 -0.7324 -0.3319
  106OCT    H32 2740   0.470   3.116   0.731 -0.2478  1.2138  0.7135
  106OCT     C4 2741   0.269   3.197   0.704  0.7404 -0.1107  0.3559
  106OCT    H41 2742   0.218   3.287   0.662  1.7726  0.4821  2.1658
  106OCT    H42 2743   0.261   3.120   0.629 -2.9401  1.5950  1.2600
  106OCT     C5 2744   0.184   3.143   0.819 -0.0171  0.2804 -0.6645
  106OCT    H51 2745   0.231   3.042   0.839  0.8737 -1.1098 -1.5239
  106OCT    H52 2746   0.200   3.208   0.910  1.9210 -1.5887  2.3076
  106OCT     C6 2747   0.036   3.134   0.784 -0.1858  0.0801  0.8481
  106OCT    H61 2748  -0.010   3.067   0.861 -1.2582 -0.4206  3.3869
  106OCT    H62 2749  -0.008   3.233   0.779  1.0313  1.7221  0.2905
  106OCT     C7 2750   0.009   3.070   0.643  0.7381  0.1189 -0.8589
  106OCT    H71 2751   0.055   3.136   0.566 -1.4875  0.6977  0.4612
  106OCT    H72 2752   0.054   2.968   0.638 -1.5853 -0.7478  0.1049
  106OCT     C8 2753  -0.145   3.065   0.604  0.1933 -0.4153 -0.4748
  106OCT    H81 2754  -0.206   3.008   0.680 -1.7488 -2.9205 -0.5746
  106OCT    H82 2755  -0.182   3.168   0.602 -1.1226 -0.3916 -1.4537
  106OCT    H83 2756  -0.163   3.021   0.507  2.0913 -0.2545 -0.1090
  107OCT     C1 2757   3.353   1.037   4.367  0.2456  0.0619  0.5784
  107OCT    H11 2758   3.414   0.995   4.450 -0.5328  0.2389  1.0600
  107OCT    H12 2759   3.349   0.973   4.277 -0.4795  1.6608 -0.4878
  107OCT    H13 2760   3.407   1.129   4.347  1.0209  0.8248  1.7848
  107OCT     C2 2761   3.216   1.079   4.418 -0.1321  0.6008  0.3464
  107OCT    H21 2762   3.169   1.134   4.333  2.7334  1.0028 -1.4730
  107OCT    H22 2763   3.153   0.984   4.436 -0.0641  1.7110  2.8036
  107OCT     C3 2764   3.208   1.155   4.546 -0.0886  0.5999  0.7245
  107OCT    H31 2765   3.099   1.173   4.551  0.0325 -0.7243 -2.4351
  107OCT    H32 2766   3.233   1.089   4.634  0.1218 -1.0910 -0.7206
  107OCT     C4 2767   3.283   1.290   4.558  0.8663  0.5795 -0.2401
  107OCT    H41 2768   3.394   1.280   4.544 -0.0870 -0.4619 -3.6659
  107OCT    H42 2769   3.251   1.352   4.468  0.5566  2.5267 -0.7779
  107OCT     C5 2770   3.251   1.358   4.690 -0.2021  0.4816  0.1826
  107OCT    H51 2771   3.297   1.457   4.687  0.3034 -0.8539 -1.8008
  107OCT    H52 2772   3.140   1.363   4.701  1.0143 -1.3801  0.5927
  107OCT     C6 2773   3.302   1.281   4.817 -0.4856 -0.3804  0.5363
  107OCT    H61 2774   3.253   1.179   4.836 -0.2093 -0.4719  0.5099
  107OCT    H62 2775   3.406   1.259   4.802 -3.5330 -0.0477 -2.0839
  107OCT     C7 2776   3.283   1.363   4.947  0.0205 -0.0542 -0.9841
  107OCT    H71 2777   3.300   1.290   5.032  1.1619 -1.3108  0.6675
  107OCT    H72 2778   3.371   1.436   4.949  1.3212 -1.0375 -0.8579
  107OCT     C8 2779   3.152   1.432   4.956  0.2039 -0.9980  0.3040
  107OCT    H81 2780   3.147   1.508   4.875  0.1699  1.3064  0.8995
  107OCT    H82 2781   3.071   1.353   4.945 -1.0821 -0.8783  1.4205
  107OCT    H83 2782   3.139   1.483   5.052 -1.1033  0.6285  0.3061
  108OCT     C1 2783   3.725   2.009   0.021  0.5190  0.5163 -0.3799
  108OCT    H11 2784   3.796   1.959   0.091  2.6195 -0.4815  0.4946
  108OCT    H12 2785   3.631   2.038   0.082 -3.6269  2.5922  1.8398
  108OCT    H13 2786   3.695   1.925  -0.044  2.2554  0.3306 -0.8594
  108OCT     C2 2787   3.799   2.122  -0.055  0.1437  0.6442 -0.2234
  108OCT    H21 2788   3.719   2.180  -0.108  0.5980 -1.5975 -0.1791
  108OCT    H22 2789   3.841   2.210  -0.000 -0.2289  0.8811 -3.7949
  108OCT     C3 2790   3.900   2.082  -0.165  0.2832  0.3317 -0.3971
  108OCT    H31 2791   3.985   2.036  -0.110  0.0595 -1.7262  1.5349
  108OCT    H32 2792   3.848   2.003  -0.225  1.6650 -0.5682  0.0067
  108OCT     C4 2793   3.947   2.204  -0.244  0.2545 -0.7174  0.4694
  108OCT    H41 2794   3.858   2.237  -0.312 -0.2359  1.0473  0.2416
  108OCT    H42 2795   3.957   2.276  -0.156  0.0494 -0.0410  4.5601
  108OCT     C5 2796   4.079   2.194  -0.321  0.1663 -0.1736  0.6335
  108OCT    H51 2797   4.102   2.276  -0.401  0.2375  3.1451 -1.3959
  108OCT    H52 2798   4.166   2.211  -0.253 -0.2991  0.0758  0.3246
  108OCT     C6 2799   4.097   2.062  -0.406  0.2741 -0.6568 -0.2350
  108OCT    H61 2800   4.090   1.974  -0.336  1.6100  0.2825  2.5648
  108OCT    H62 2801   4.012   2.072  -0.485 -2.0553 -1.2245 -1.8391
  108OCT     C7 2802   4.236   2.051  -0.469 -0.0163 -0.2301 -0.0212
  108OCT    H71 2803   4.237   2.139  -0.535 -0.1470 -0.1680  0.0473
  108OCT    H72 2804   4.305   2.064  -0.383 -0.2467  2.5340  1.0515
  108OCT     C8 2805   4.257   1.917  -0.537  0.4628  0.0785  0.0341
  108OCT    H81 2806   4.367   1.884  -0.533  2.6751 -1.4655  0.0729
  108OCT    H82 2807   4.184   1.847  -0.492 -1.7169 -0.3916  0.2877
  108OCT    H83 2808   4.231   1.914  -0.650 -1.0316  0.4784 -2.8049
  109OCT     C1 2809   2.341   0.492   0.621  0.8993  0.0571  0.0922
  109OCT    H11 2810   2.265   0.453   0.691  3.3402 -1.0336 -1.2684
  109OCT    H12 2811   2.410   0.551   0.683 -1.1559 -0.9724  0.7574
  109OCT    H13 2812   2.298   0.553   0.541 -0.1481 -3.2782  0.8739
  109OCT     C2 2813   2.413   0.367   0.571 -0.1792 -0.6256 -0.1319
  109OCT    H21 2814   2.507   0.386   0.512  0.0404 -0.8648 -1.9530
  109OCT    H22 2815   2.441   0.299   0.655 -0.3165 -0.1367  0.0567
  109OCT     C3 2816   2.321   0.288   0.483  1.5456 -0.1613 -0.9583
  109OCT    H31 2817   2.216   0.287   0.536 -3.8619  1.7268  0.9750
  109OCT    H32 2818   2.304   0.343   0.389 -1.7709  0.4730  1.7269
  109OCT     C4 2819   2.360   0.145   0.471 -0.6951 -0.2251 -0.2384
  109OCT    H41 2820   2.351   0.089   0.564 -2.4343  1.3557  0.6268
  109OCT    H42 2821   2.277   0.094   0.412 -2.7770 -1.9145 -1.2130
  109OCT     C5 2822   2.484   0.113   0.376  0.2632 -0.0752 -0.0011
  109OCT    H51 2823   2.463   0.185   0.287 -3.4341  3.4593  0.8170
  109OCT    H52 2824   2.582   0.142   0.419 -0.5365 -0.4062  2.3149
  109OCT     C6 2825   2.484  -0.029   0.325  0.1509 -0.2593  0.2398
  109OCT    H61 2826   2.397  -0.067   0.269  2.9554  1.4837 -1.2717
  109OCT    H62 2827   2.570  -0.035   0.253  0.8353 -2.3219  2.0897
  109OCT     C7 2828   2.519  -0.142   0.425  0.0944  0.4057 -0.4129
  109OCT    H71 2829   2.618  -0.151   0.471 -1.5344 -1.7144  1.2205
  109OCT    H72 2830   2.452  -0.126   0.514 -0.6213 -2.5159  1.2182
  109OCT     C8 2831   2.486  -0.276   0.359  0.7315 -0.3171  0.4093
  109OCT    H81 2832   2.370  -0.287   0.368  0.2883 -0.0220 -0.7290
  109OCT    H82 2833   2.511  -0.291   0.253  0.3469 -1.9042  1.6124
  109OCT    H83 2834   2.535  -0.360   0.416  1.4990 -1.2640  2.4198
  110OCT     C1 2835   2.342   3.854   1.342  0.1550 -0.8980  0.0512
  110OCT    H11 2836   2.413   3.833   1.262  1.4693  1.4868 -0.2961
  110OCT    H12 2837   2.322   3.769   1.407 -0.6337 -0.6472 -3.0040
  110OCT    H13 2838   2.238   3.871   1.306  0.3534 -0.1742  2.3666
  110OCT     C2 2839   2.390   3.974   1.416 -0.3337  0.4886  0.0210
  110OCT    H21 2840   2.341   3.979   1.515  1.5877 -0.0774 -0.2070
  110OCT    H22 2841   2.497   3.963   1.446  0.5931 -2.0113  2.1595
  110OCT     C3 2842   2.371   4.115   1.351  0.0760 -0.0827  1.2496
  110OCT    H31 2843   2.429   4.191   1.398 -1.0938  1.1735 -1.9146
  110OCT    H32 2844   2.400   4.104   1.245 -3.7761 -0.9762 -0.2146
  110OCT     C4 2845   2.226   4.160   1.347  0.2748 -0.2055 -0.7786
  110OCT    H41 2846   2.170   4.088   1.281  1.3767 -2.5609  1.1440
  110OCT    H42 2847   2.177   4.152   1.449 -0.0869 -2.2177 -0.5597
  110OCT     C5 2848   2.220   4.297   1.288  0.2583  0.0611 -0.5033
  110OCT    H51 2849   2.271   4.370   1.358 -1.3404 -0.4027  1.3471
  110OCT    H52 2850   2.275   4.295   1.190 -0.0132 -0.8787 -1.1650
  110OCT     C6 2851   2.075   4.342   1.261 -0.5545 -0.1568 -0.4103
  110OCT    H61 2852   2.024   4.264   1.204 -0.3609 -0.5539  3.1144
  110OCT    H62 2853   2.028   4.355   1.361  0.0348 -0.6753  1.1399
  110OCT     C7 2854   2.067   4.476   1.186  0.2851 -0.2047 -0.6182
  110OCT    H71 2855   2.088   4.454   1.080 -1.4413  0.6643 -0.0467
  110OCT    H72 2856   1.961   4.518   1.186 -2.0905 -0.1356  0.1132
  110OCT     C8 2857   2.153   4.593   1.233  0.5170 -0.4193  0.8823
  110OCT    H81 2858   2.258   4.576   1.207  0.8579 -0.0802 -3.1816
  110OCT    H82 2859   2.127   4.679   1.170 -0.2819  1.7627  0.3050
  110OCT    H83 2860   2.141   4.620   1.340  0.4516  1.6286 -0.1488
  111OCT     C1 2861   1.178   1.565   0.937  0.0920  0.5963  0.1585
  111OCT    H11 2862   1.085   1.550   0.999 -1.3875 -2.2305 -1.5777
  111OCT    H12 2863   1.263   1.519   0.986 -2.0718 -1.8375 -0.5947
  111OCT    H13 2864   1.201   1.671   0.918  0.8700  0.2949  1.5658
  111OCT     C2 2865   1.157   1.500   0.804 -0.1296 -0.0283 -0.4758
  111OCT    H21 2866   1.082   1.558   0.740 -2.5683 -2.0354 -1.4367
  111OCT    H22 2867   1.250   1.511   0.745  1.8663  1.4657 -0.6767
  111OCT     C3 2868   1.103   1.354   0.805  0.6815  0.7812  0.0993
  111OCT    H31 2869   1.013   1.360   0.866 -0.5461  0.4782  0.7794
  111OCT    H32 2870   1.059   1.323   0.707  1.2063 -2.8710  1.2086
  111OCT     C4 2871   1.204   1.238   0.841  0.2778 -0.6603  0.2549
  111OCT    H41 2872   1.260   1.280   0.933  3.1677  0.2087 -0.1149
  111OCT    H42 2873   1.133   1.155   0.874  0.2388  1.5675 -0.1625
  111OCT     C5 2874   1.297   1.185   0.728  0.3059 -0.4441  0.0196
  111OCT    H51 2875   1.239   1.162   0.641  0.2898 -0.5161 -1.9339
  111OCT    H52 2876   1.361   1.269   0.691 -2.1376  2.1302  1.7483
  111OCT     C6 2877   1.379   1.066   0.768 -0.9402  0.1608 -0.1164
  111OCT    H61 2878   1.451   1.109   0.849 -0.7579  0.8667  0.0082
  111OCT    H62 2879   1.313   0.991   0.806  0.1659  1.3322  1.3290
  111OCT     C7 2880   1.458   1.004   0.653 -0.1466 -0.4924  0.0428
  111OCT    H71 2881   1.383   0.988   0.566  0.5094 -3.6817 -1.1988
  111OCT    H72 2882   1.530   1.090   0.634 -1.0203  2.2807 -1.2613
  111OCT     C8 2883   1.519   0.866   0.672  0.0423 -0.0516  0.7076
  111OCT    H81 2884   1.567   0.862   0.773  1.3939  1.0447  1.3880
  111OCT    H82 2885   1.438   0.797   0.659  0.0963  2.8935  1.7680
  111OCT    H83 2886   1.597   0.848   0.595 -2.1746  0.9418  0.4527
  112OCT     C1 2887   3.647   2.546   1.581 -0.6965  0.5552  0.3103
  112OCT    H11 2888   3.736   2.502   1.633  1.5797 -0.9702  0.7970
  112OCT    H12 2889   3.631   2.648   1.623  0.3547  0.4481  0.3299
  112OCT    H13 2890   3.549   2.483   1.598 -3.4778 -0.7060  0.9799
  112OCT     C2 2891   3.676   2.569   1.436  0.0284  0.3545 -0.3125
  112OCT    H21 2892   3.772   2.607   1.409 -2.5977 -1.0054 -0.4897
  112OCT    H22 2893   3.684   2.466   1.387 -0.0007 -2.6705 -0.8817
  112OCT     C3 2894   3.573   2.650   1.362 -0.5852 -1.0610  0.5497
  112OCT    H31 2895   3.603   2.648   1.251 -1.4187 -2.2216 -0.4331
  112OCT    H32 2896   3.467   2.613   1.371 -0.1680  1.0704  1.0824
  112OCT     C4 2897   3.560   2.799   1.407  0.2828  0.7232 -0.4847
  112OCT    H41 2898   3.487   2.848   1.341  1.5584 -1.3701 -0.7334
  112OCT    H42 2899   3.519   2.808   1.509 -2.3549 -3.6392  0.1872
  112OCT     C5 2900   3.701   2.870   1.393  0.2967  0.5956  0.2978
  112OCT    H51 2901   3.768   2.816   1.464  0.8090 -0.1702  0.6744
  112OCT    H52 2902   3.734   2.843   1.289  1.3570 -1.3245 -1.7213
  112OCT     C6 2903   3.699   3.021   1.411 -0.0450 -0.4643  0.3779
  112OCT    H61 2904   3.654   3.077   1.326 -0.8752  1.6021  1.3429
  112OCT    H62 2905   3.637   3.054   1.495  0.6021  3.0448 -1.2894
  112OCT     C7 2906   3.840   3.084   1.441  0.3687  0.1698 -0.0490
  112OCT    H71 2907   3.895   3.025   1.512 -2.1507  1.3733  0.5932
  112OCT    H72 2908   3.893   3.056   1.348 -2.5896  0.8230 -0.6367
  112OCT     C8 2909   3.834   3.234   1.474 -0.4218  0.0199  0.3542
  112OCT    H81 2910   3.774   3.290   1.394  1.5663  2.4002 -1.7434
  112OCT    H82 2911   3.805   3.254   1.573  2.0023 -1.2194 -0.4157
  112OCT    H83 2912   3.940   3.280   1.459  2.5180 -0.6436  0.8031
  113OCT     C1 2913   2.948   1.752   2.035  0.7832  0.5937 -0.0442
  113OCT    H11 2914   3.035   1.730   1.974  0.0283 -0.7608  0.6669
  113OCT    H12 2915   2.863   1.726   1.964 -0.5151  1.5475  0.5790
  113OCT    H13 2916   2.952   1.857   2.057  2.6896 -3.9315 -2.0847
  113OCT     C2 2917   2.947   1.668   2.167  0.2119 -0.6406 -0.4847
  113OCT    H21 2918   2.853   1.681   2.221 -0.4070  1.7822  0.4123
  113OCT    H22 2919   2.950   1.567   2.138 -0.6545  3.6665 -0.0347
  113OCT     C3 2920   3.070   1.696   2.263  0.5627  0.0685  0.8770
  113OCT    H31 2921   3.174   1.685   2.218  3.4113  1.7288  0.8547
  113OCT    H32 2922   3.068   1.800   2.305  2.5410  3.1330 -0.0376
  113OCT     C4 2923   3.055   1.587   2.373  0.0992  0.6237 -0.3900
  113OCT    H41 2924   2.954   1.587   2.410  0.6388 -1.8832 -0.5701
  113OCT    H42 2925   3.063   1.489   2.321  1.8307 -0.2890 -1.6351
  113OCT     C5 2926   3.149   1.591   2.492 -0.5460  0.3504  0.0604
  113OCT    H51 2927   3.134   1.689   2.541  1.5648 -1.2190  1.2352
  113OCT    H52 2928   3.120   1.516   2.571 -0.7747 -1.0145 -1.3514
  113OCT     C6 2929   3.290   1.579   2.457 -0.2485 -0.2936 -1.2093
  113OCT    H61 2930   3.295   1.478   2.417 -1.0376  0.2047 -1.7231
  113OCT    H62 2931   3.321   1.651   2.378  0.0754  0.0267 -1.0450
  113OCT     C7 2932   3.383   1.603   2.572 -0.4594 -0.6242  0.1571
  113OCT    H71 2933   3.364   1.708   2.604  1.8152 -0.7085 -0.1718
  113OCT    H72 2934   3.354   1.545   2.661  0.8021 -0.5889  0.0840
  113OCT     C8 2935   3.529   1.578   2.545 -0.2585  0.2031 -0.3513
  113OCT    H81 2936   3.586   1.595   2.637  1.8163 -0.7653 -0.1182
  113OCT    H82 2937   3.561   1.476   2.517  0.9071 -0.0682 -1.3696
  113OCT    H83 2938   3.575   1.642   2.468 -0.3076  2.7654  1.0902
  114OCT     C1 2939   1.969   2.485   1.562  0.5098 -0.3232 -0.6038
  114OCT    H11 2940   1.964   2.541   1.659 -3.1425  2.0219 -1.5169
  114OCT    H12 2941   1.899   2.402   1.572  1.7627  0.9865  1.9882
  114OCT    H13 2942   2.065   2.443   1.566 -2.5730  0.2026  0.4584
  114OCT     C2 2943   1.935   2.577   1.445  0.2678  0.0247 -0.6085
  114OCT    H21 2944   1.827   2.592   1.457  1.0258 -0.2579 -1.5227
  114OCT    H22 2945   1.985   2.677   1.467  1.8682 -1.7359  1.3964
  114OCT     C3 2946   1.950   2.535   1.299 -0.0951  1.0970 -0.0569
  114OCT    H31 2947   1.872   2.464   1.275  1.0865  2.9051  0.2474
  114OCT    H32 2948   1.933   2.619   1.235 -0.0585 -0.8643  1.4446
  114OCT     C4 2949   2.092   2.482   1.267 -0.3583  0.0262  0.6199
  114OCT    H41 2950   2.170   2.551   1.288 -2.4895  1.0784  0.4525
  114OCT    H42 2951   2.099   2.382   1.309  0.1179 -1.8140 -0.4023
  114OCT     C5 2952   2.104   2.482   1.110 -0.0647  0.6311  0.2078
  114OCT    H51 2953   2.026   2.413   1.082  4.8285  1.1893  0.6263
  114OCT    H52 2954   2.082   2.582   1.062 -0.4842  1.2726  0.6296
  114OCT     C6 2955   2.234   2.422   1.064  0.4322  0.3004  0.2751
  114OCT    H61 2956   2.311   2.484   1.101 -0.7638 -2.1193 -0.9872
  114OCT    H62 2957   2.251   2.325   1.112  1.9490  2.2378 -0.3898
  114OCT     C7 2958   2.241   2.391   0.914  0.0328 -0.0238 -0.1166
  114OCT    H71 2959   2.163   2.324   0.899  1.5196 -0.0319  1.4629
  114OCT    H72 2960   2.219   2.487   0.854 -2.6505 -1.1754 -0.9133
  114OCT     C8 2961   2.380   2.334   0.856  0.4354 -0.3167  0.5634
  114OCT    H81 2962   2.463   2.401   0.871 -0.5551  1.2412 -1.6768
  114OCT    H82 2963   2.390   2.228   0.896  1.5152 -1.0450  0.1592
  114OCT    H83 2964   2.370   2.345   0.748  1.2221  1.4911  0.0970
  115OCT     C1 2965   3.415   3.501   1.167  0.1707  0.0928 -0.9746
  115OCT    H11 2966   3.334   3.429   1.149  0.0674  1.0876  0.1490
  115OCT    H12 2967   3.420   3.518   1.282  1.8370 -1.2001  2.3690
  115OCT    H13 2968   3.405   3.604   1.116  2.0955  2.7192 -0.4345
  115OCT     C2 2969   3.545   3.432   1.127  0.3055  0.0934 -0.2491
  115OCT    H21 2970   3.573   3.344   1.186 -0.3728 -0.9518 -3.9223
  115OCT    H22 2971   3.535   3.406   1.020  0.9247  0.8591  1.8184
  115OCT     C3 2972   3.656   3.540   1.153  0.2040  0.7406 -0.4153
  115OCT    H31 2973   3.645   3.582   1.257 -0.9386 -0.4335 -0.3723
  115OCT    H32 2974   3.760   3.505   1.147  0.3544  1.3477  1.8319
  115OCT     C4 2975   3.658   3.656   1.056  0.7748 -0.3946  0.2110
  115OCT    H41 2976   3.644   3.614   0.954  0.6878  2.0482  0.8430
  115OCT    H42 2977   3.574   3.722   1.072  0.9770 -0.3221  0.7694
  115OCT     C5 2978   3.777   3.748   1.070 -0.0507 -0.4677  0.4051
  115OCT    H51 2979   3.805   3.767   1.178  3.8931 -1.4196  1.4189
  115OCT    H52 2980   3.862   3.698   1.027 -1.2675  2.3185 -0.1579
  115OCT     C6 2981   3.759   3.889   1.018  0.9024 -0.2498 -0.2090
  115OCT    H61 2982   3.734   3.891   0.911  0.2091 -0.1298 -1.4151
  115OCT    H62 2983   3.666   3.929   1.071 -2.1007 -1.0853  2.6849
  115OCT     C7 2984   3.884   3.984   1.017  0.8330 -0.2151  0.0672
  115OCT    H71 2985   3.932   3.999   1.117  0.2644  2.6384  0.2552
  115OCT    H72 2986   3.961   3.936   0.955 -1.0338 -2.4042 -1.2111
  115OCT     C8 2987   3.843   4.126   0.962 -0.0592  0.3296 -0.0392
  115OCT    H81 2988   3.810   4.124   0.856 -1.3420  1.2133  1.3597
  115OCT    H82 2989   3.752   4.163   1.021  2.1094  2.7541  0.0747
  115OCT    H83 2990   3.926   4.197   0.989 -0.0716 -0.2411  1.9408
  116OCT     C1 2991   0.934   3.290   1.128 -0.0229 -0.3522  0.4047
  116OCT    H11 2992   0.854   3.250   1.062 -0.4149  0.6075 -1.0124
  116OCT    H12 2993   1.021   3.327   1.064  2.8698 -1.0470 -1.3337
  116OCT    H13 2994   0.971   3.205   1.184 -0.2001 -1.0424 -0.1428
  116OCT     C2 2995   0.893   3.408   1.214  0.0449 -0.4711  0.9589
  116OCT    H21 2996   0.817   3.377   1.272  0.6755 -2.2913 -1.5886
  116OCT    H22 2997   0.984   3.440   1.275 -0.5475 -3.2630  0.8567
  116OCT     C3 2998   0.852   3.529   1.128  0.8560  0.4526 -1.1519
  116OCT    H31 2999   0.862   3.496   1.020  0.0835  1.5419 -0.2691
  116OCT    H32 3000   0.747   3.549   1.147 -0.9856 -0.9326 -1.7951
  116OCT     C4 3001   0.940   3.657   1.157 -0.2271  0.6816  0.1342
  116OCT    H41 3002   0.930   3.678   1.265 -1.7006 -1.0377 -0.9111
  116OCT    H42 3003   1.051   3.627   1.145  0.6438 -2.3071 -0.4456
  116OCT     C5 3004   0.896   3.780   1.081 -0.0971 -0.3140 -0.1880
  116OCT    H51 3005   0.922   3.776   0.973 -0.5881 -1.0476  0.4027
  116OCT    H52 3006   0.786   3.777   1.083  1.2199  0.8869  0.9697
  116OCT     C6 3007   0.951   3.912   1.131 -0.0533 -0.0564  0.2987
  116OCT    H61 3008   1.060   3.899   1.161 -0.3009 -0.9285 -1.0396
  116OCT    H62 3009   0.937   3.982   1.045 -0.3036  0.4740  0.3605
  116OCT     C7 3010   0.868   3.970   1.248  0.0383 -0.3739 -0.0594
  116OCT    H71 3011   0.765   4.000   1.200 -0.2213  1.2503  0.8041
  116OCT    H72 3012   0.860   3.888   1.324  0.0036 -3.3028 -1.3969
  116OCT     C8 3013   0.945   4.092   1.306  0.3132  0.1915 -0.0938
  116OCT    H81 3014   1.047   4.059   1.334 -0.3106 -3.6598 -0.4642
  116OCT    H82 3015   0.955   4.174   1.225  0.2702 -1.1324 -0.5447
  116OCT    H83 3016   0.897   4.124   1.403 -2.7724 -1.0318 -0.6272
  117OCT     C1 3017   1.846   1.932   0.249  0.1377  0.5261 -0.0708
  117OCT    H11 3018   1.951   1.936   0.274 -0.9710 -0.7173 -1.4481
  117OCT    H12 3019   1.829   1.975   0.148  0.3960  0.1324 -0.0338
  117OCT    H13 3020   1.785   1.992   0.319  0.2250 -3.4647 -1.6682
  117OCT     C2 3021   1.791   1.787   0.251  0.2343  0.0260 -0.3061
  117OCT    H21 3022   1.694   1.784   0.195 -1.9235  0.5380 -1.4373
  117OCT    H22 3023   1.868   1.726   0.191  0.2869 -1.0069 -0.2903
  117OCT     C3 3024   1.764   1.726   0.395 -0.0484 -0.1873 -0.3992
  117OCT    H31 3025   1.686   1.789   0.442 -0.2260 -0.6854  0.3897
  117OCT    H32 3026   1.712   1.625   0.374 -2.4522 -0.8799 -1.6676
  117OCT     C4 3027   1.879   1.706   0.495 -0.2032  0.7868 -0.0056
  117OCT    H41 3028   1.923   1.802   0.519 -2.3589 -1.6888  2.3518
  117OCT    H42 3029   1.830   1.674   0.589 -0.8385 -0.3056  1.0082
  117OCT     C5 3030   1.986   1.608   0.454 -0.6386 -0.0179  0.3794
  117OCT    H51 3031   1.935   1.524   0.402 -0.9100 -1.0429 -1.1556
  117OCT    H52 3032   2.038   1.672   0.371  3.8577 -0.4378 -1.1893
  117OCT     C6 3033   2.082   1.583   0.566  0.0654  0.2072 -0.4837
  117OCT    H61 3034   2.097   1.681   0.612 -1.3693 -1.0371 -2.1033
  117OCT    H62 3035   2.032   1.528   0.649  1.1690  0.9102 -0.8400
  117OCT     C7 3036   2.211   1.511   0.520 -0.1166  0.2020 -0.3183
  117OCT    H71 3037   2.263   1.568   0.440 -0.6308 -0.9061 -2.2304
  117OCT    H72 3038   2.279   1.508   0.610 -0.8013 -0.8633 -0.0589
  117OCT     C8 3039   2.178   1.376   0.465 -0.0132  0.3465  0.1736
  117OCT    H81 3040   2.142   1.309   0.545  0.5898 -1.2987  0.1734
  117OCT    H82 3041   2.093   1.383   0.389  2.4907  4.1410 -3.3431
  117OCT    H83 3042   2.275   1.325   0.424  1.4234 -2.0332 -1.0679
  118OCT     C1 3043   2.133   0.669   3.090 -0.1331  0.4721 -0.0068
  118OCT    H11 3044   2.179   0.642   3.183 -4.3369 -0.0602  0.0124
  118OCT    H12 3045   2.203   0.626   3.016 -2.6412  0.0441  1.5150
  118OCT    H13 3046   2.137   0.781   3.088 -1.1275  2.0122  0.2334
  118OCT     C2 3047   1.997   0.606   3.087  0.6810 -0.7316  1.1057
  118OCT    H21 3048   1.939   0.654   3.173 -0.4900 -1.5275  0.5560
  118OCT    H22 3049   1.953   0.631   2.988 -2.8225 -1.4435 -1.4258
  118OCT     C3 3050   1.999   0.454   3.100 -0.5778  0.4652  0.3187
  118OCT    H31 3051   2.022   0.402   3.001 -2.1966  0.8332 -1.4610
  118OCT    H32 3052   2.070   0.433   3.187  1.8096 -1.3829 -0.8531
  118OCT     C4 3053   1.869   0.393   3.148 -0.3784 -0.4444  0.1815
  118OCT    H41 3054   1.848   0.448   3.245  1.2125 -5.4571  0.1809
  118OCT    H42 3055   1.785   0.418   3.072 -1.6150  0.6841 -2.4659
  118OCT     C5 3056   1.884   0.244   3.178  0.3448 -0.8961  0.1520
  118OCT    H51 3057   1.992   0.228   3.212  0.3495  2.0211 -0.8393
  118OCT    H52 3058   1.811   0.223   3.267 -0.4852 -1.1405  0.9353
  118OCT     C6 3059   1.850   0.169   3.055  0.4462  0.9845  0.2312
  118OCT    H61 3060   1.738   0.189   3.037 -2.0349  1.7475 -0.3225
  118OCT    H62 3061   1.910   0.194   2.966  0.3056 -1.3784 -0.2253
  118OCT     C7 3062   1.841   0.016   3.077 -0.4859 -0.0026 -0.0636
  118OCT    H71 3063   1.942  -0.027   3.093  0.9569 -0.7487  1.3823
  118OCT    H72 3064   1.798  -0.009   3.175 -0.3434  0.9652 -0.0184
  118OCT     C8 3065   1.773  -0.065   2.967  0.7105 -0.1333 -0.4916
  118OCT    H81 3066   1.815  -0.035   2.870  2.2667 -1.4185  1.7037
  118OCT    H82 3067   1.794  -0.169   2.990 -1.3153 -0.3804 -0.0568
  118OCT    H83 3068   1.666  -0.051   2.972 -0.7671 -1.2015 -2.2964
  119OCT     C1 3069   2.911   2.500   1.353 -0.3924  0.3510  0.0736
  119OCT    H11 3070   2.848   2.467   1.441  2.1953 -0.3117  0.1920
  119OCT    H12 3071   3.001   2.433   1.355 -0.7695  1.1046 -0.8272
  119OCT    H13 3072   2.956   2.602   1.366  1.1091 -1.4590  0.6600
  119OCT     C2 3073   2.834   2.479   1.220  0.4092 -0.2854 -0.2499
  119OCT    H21 3074   2.742   2.541   1.213 -1.7372  1.8961 -1.4784
  119OCT    H22 3075   2.897   2.497   1.133  0.7803 -0.9124 -0.6792
  119OCT     C3 3076   2.793   2.339   1.202  0.0669  0.5863  0.0839
  119OCT    H31 3077   2.888   2.271   1.196  1.2437  2.8522 -0.7060
  119OCT    H32 3078   2.740   2.296   1.283  1.8049  2.9730 -0.0360
  119OCT     C4 3079   2.726   2.304   1.067  0.4616  0.4190 -0.5288
  119OCT    H41 3080   2.660   2.388   1.031 -1.8481 -0.9368  1.0405
  119OCT    H42 3081   2.806   2.298   0.993 -2.5040  1.1948  1.8204
  119OCT     C5 3082   2.661   2.165   1.075  0.2891 -0.4993 -0.4780
  119OCT    H51 3083   2.573   2.184   1.146 -2.1663  0.1835 -0.3611
  119OCT    H52 3084   2.621   2.140   0.972 -0.7707 -0.3653  0.9684
  119OCT     C6 3085   2.743   2.049   1.129 -0.6837 -0.7460 -0.2803
  119OCT    H61 3086   2.770   2.083   1.231  1.7644  1.7444 -0.2140
  119OCT    H62 3087   2.682   1.964   1.134  2.4894  0.9546 -1.9915
  119OCT     C7 3088   2.876   2.014   1.059 -0.1722  0.1165 -0.1661
  119OCT    H71 3089   2.861   2.005   0.950 -1.8706  0.3173 -1.7082
  119OCT    H72 3090   2.950   2.090   1.074  1.7899 -3.6468  0.2749
  119OCT     C8 3091   2.935   1.881   1.114 -0.1346 -0.9989 -0.3465
  119OCT    H81 3092   2.941   1.890   1.226 -4.6024 -0.4319  2.2300
  119OCT    H82 3093   2.866   1.802   1.093  1.2720 -1.8921 -1.2606
  119OCT    H83 3094   3.026   1.840   1.071  0.2326 -1.1056  2.1913
  120OCT     C1 3095   3.113   3.171   4.303  0.3714 -0.0790  0.4056
  120OCT    H11 3096   3.071   3.243   4.384 -3.3866  0.0120  0.2135
  120OCT    H12 3097   3.023   3.111   4.282  2.2512  0.6274  2.7973
  120OCT    H13 3098   3.182   3.094   4.347  0.6277  0.4277 -1.9745
  120OCT     C2 3099   3.172   3.255   4.185 -0.7180  0.0356 -0.1304
  120OCT    H21 3100   3.083   3.307   4.155  0.6985 -0.6747  0.3152
  120OCT    H22 3101   3.251   3.316   4.224 -0.7291 -3.4176  1.0516
  120OCT     C3 3102   3.232   3.178   4.070 -0.5039 -0.1681 -0.0092
  120OCT    H31 3103   3.280   3.245   4.004  1.1900  0.4086 -0.6240
  120OCT    H32 3104   3.315   3.109   4.111 -0.8705  0.1985  1.6124
  120OCT     C4 3105   3.140   3.088   3.985  0.1372 -0.9887  0.5311
  120OCT    H41 3106   3.203   3.017   3.930  1.3735 -2.1187  0.5708
  120OCT    H42 3107   3.093   3.038   4.069  0.5594  1.1210 -0.8476
  120OCT     C5 3108   3.026   3.151   3.906 -0.0267 -0.5634 -0.3825
  120OCT    H51 3109   2.978   3.221   3.975  0.1513 -1.8092  2.0058
  120OCT    H52 3110   3.070   3.218   3.826 -0.8663 -1.2337  0.1590
  120OCT     C6 3111   2.927   3.060   3.853  0.3671 -0.2890 -0.1360
  120OCT    H61 3112   2.988   2.975   3.817 -1.8228  1.4146 -3.0785
  120OCT    H62 3113   2.853   3.017   3.929 -2.3181 -4.1043  0.3070
  120OCT     C7 3114   2.850   3.107   3.722 -0.2359 -0.2891  0.0884
  120OCT    H71 3115   2.773   3.032   3.692 -0.1834 -0.6475  1.6600
  120OCT    H72 3116   2.810   3.198   3.763  1.5204  0.3058  1.5084
  120OCT     C8 3117   2.939   3.137   3.595 -0.3536  0.8251 -0.4880
  120OCT    H81 3118   3.016   3.214   3.603  0.6955 -2.4790 -0.5935
  120OCT    H82 3119   2.983   3.043   3.558 -1.9776 -0.9210 -3.0546
  120OCT    H83 3120   2.868   3.165   3.506 -2.0440  1.0752 -1.0381
  121OCT     C1 3121   3.900   4.377   1.333  0.3409 -0.1698  0.0023
  121OCT    H11 3122   3.937   4.360   1.434  0.2902 -1.0101 -1.5110
  121OCT    H12 3123   3.830   4.295   1.305  0.2317 -0.4337 -1.1013
  121OCT    H13 3124   3.996   4.367   1.269 -0.5076 -0.1799  1.2024
  121OCT     C2 3125   3.832   4.511   1.303  0.2138  0.2390 -0.1895
  121OCT    H21 3126   3.738   4.515   1.367 -0.9205  0.9228  1.2865
  121OCT    H22 3127   3.895   4.597   1.335 -0.3446  1.0044  0.5980
  121OCT     C3 3128   3.796   4.521   1.154  0.1722  0.3131  0.0883
  121OCT    H31 3129   3.884   4.525   1.093 -3.5834  4.5247  0.2307
  121OCT    H32 3130   3.733   4.436   1.113 -0.8642  0.0652  2.3748
  121OCT     C4 3131   3.722   4.655   1.115 -0.7316 -0.2075  0.1942
  121OCT    H41 3132   3.638   4.673   1.184 -1.6276 -1.4914  1.6672
  121OCT    H42 3133   3.796   4.736   1.113 -0.0867  0.9241 -0.2764
  121OCT     C5 3134   3.665   4.652   0.969  0.2646 -0.0929  0.6457
  121OCT    H51 3135   3.745   4.668   0.896  0.4939  0.4804  2.5265
  121OCT    H52 3136   3.604   4.560   0.958  0.2203 -0.5704  0.6418
  121OCT     C6 3137   3.565   4.774   0.946 -0.6436 -0.5255  0.0790
  121OCT    H61 3138   3.533   4.762   0.842 -2.1298 -0.1672 -0.9250
  121OCT    H62 3139   3.484   4.763   1.023 -0.1886 -1.2681  0.9800
  121OCT     C7 3140   3.618   4.918   0.953 -0.3787  0.3557 -0.8880
  121OCT    H71 3141   3.685   4.931   1.042  3.5337 -1.7842  0.1326
  121OCT    H72 3142   3.676   4.935   0.862 -1.5007 -0.2151 -1.3997
  121OCT     C8 3143   3.510   5.027   0.948 -0.9322  0.6848  0.4072
  121OCT    H81 3144   3.451   5.025   0.854 -1.9253  2.1694  1.0966
  121OCT    H82 3145   3.445   5.015   1.030 -0.5422  0.7571 -1.1003
  121OCT    H83 3146   3.557   5.128   0.960  2.3313  0.5127  1.1000
  122OCT     C1 3147   2.456   4.359   4.200 -0.1155  0.5912  0.1284
  122OCT    H11 3148   2.436   4.468   4.195 -2.8606  0.3068  1.5697
  122OCT    H12 3149   2.367   4.327   4.250  0.1205  0.0094 -2.3813
  122OCT    H13 3150   2.550   4.340   4.260  2.8682  0.3247  0.7754
  122OCT     C2 3151   2.467   4.286   4.062  0.1112  0.0567  0.5278
  122OCT    H21 3152   2.470   4.175   4.074  2.1354  1.5482  1.1088
  122OCT    H22 3153   2.382   4.317   3.999  0.3968  0.1923 -0.9422
  122OCT     C3 3154   2.588   4.327   3.982  0.2237  0.0953  0.1975
  122OCT    H31 3155   2.589   4.435   3.960  0.4095  2.4205  0.0853
  122OCT    H32 3156   2.687   4.304   4.027  3.0125  0.4701 -2.5392
  122OCT     C4 3157   2.592   4.256   3.844  0.7594  0.3100  0.1907
  122OCT    H41 3158   2.563   4.143   3.856 -0.5991 -3.6724  0.1610
  122OCT    H42 3159   2.506   4.295   3.784  0.4414  1.4095  1.5002
  122OCT     C5 3160   2.716   4.272   3.768  0.1645 -0.5760 -0.1124
  122OCT    H51 3161   2.735   4.384   3.749  0.1095 -0.5319  0.9424
  122OCT    H52 3162   2.795   4.228   3.834 -1.7860 -0.4961  1.1777
  122OCT     C6 3163   2.703   4.204   3.635  0.0471  0.1556 -0.2763
  122OCT    H61 3164   2.695   4.090   3.655 -0.9786  0.8011  3.7966
  122OCT    H62 3165   2.606   4.222   3.588 -1.6500  1.6194  1.6020
  122OCT     C7 3166   2.830   4.216   3.557 -0.0541  0.0004 -0.2106
  122OCT    H71 3167   2.862   4.322   3.543 -0.1153 -0.2788 -4.6021
  122OCT    H72 3168   2.915   4.164   3.618  1.7273  0.3797 -0.8836
  122OCT     C8 3169   2.821   4.148   3.427  0.6586  0.4436 -0.5069
  122OCT    H81 3170   2.910   4.169   3.377 -1.5166  1.7975  1.3405
  122OCT    H82 3171   2.797   4.040   3.434 -2.5823  1.0921  0.0607
  122OCT    H83 3172   2.739   4.196   3.366 -1.0206 -0.3998  0.2275
  123OCT     C1 3173   1.248   2.797   2.035 -0.7992 -0.1981 -0.3132
  123OCT    H11 3174   1.311   2.818   2.125 -0.0282  0.2334  1.1566
  123OCT    H12 3175   1.307   2.821   1.943  1.9511 -0.0403 -1.1050
  123OCT    H13 3176   1.163   2.865   2.049  1.0155  0.3471 -3.0976
  123OCT     C2 3177   1.214   2.652   2.032 -0.3464  0.4990  0.1639
  123OCT    H21 3178   1.189   2.615   2.128  0.7163 -1.8899 -2.1087
  123OCT    H22 3179   1.132   2.650   1.959  0.3135 -0.2208  0.3030
  123OCT     C3 3180   1.311   2.555   1.972 -0.1641 -0.0801  0.2272
  123OCT    H31 3181   1.347   2.593   1.869  1.7264 -0.7023 -0.4850
  123OCT    H32 3182   1.397   2.556   2.045  0.1614 -0.8330  1.4013
  123OCT     C4 3183   1.251   2.416   1.948  0.0276 -0.2194 -0.4236
  123OCT    H41 3184   1.225   2.376   2.051  0.9932 -0.1085  1.3107
  123OCT    H42 3185   1.163   2.435   1.889  3.4147 -2.4989 -0.4462
  123OCT     C5 3186   1.360   2.335   1.874  0.3351 -0.0017  0.6292
  123OCT    H51 3187   1.379   2.394   1.780  0.4514  1.0693  0.8309
  123OCT    H52 3188   1.455   2.319   1.926 -3.3933  1.4267 -2.1719
  123OCT     C6 3189   1.305   2.195   1.829  0.1182 -0.1292  0.5854
  123OCT    H61 3190   1.198   2.210   1.821  1.6888  0.2979 -0.1199
  123OCT    H62 3191   1.349   2.170   1.731 -1.9348  0.1046  1.7034
  123OCT     C7 3192   1.327   2.084   1.939  0.4194 -0.3268  0.0019
  123OCT    H71 3193   1.433   2.086   1.981  1.0127 -0.1388  0.9998
  123OCT    H72 3194   1.260   2.109   2.027  0.7943  0.5868  1.1675
  123OCT     C8 3195   1.303   1.939   1.888 -0.1495 -0.0422  0.2218
  123OCT    H81 3196   1.212   1.942   1.836  3.8338  2.6018  1.8282
  123OCT    H82 3197   1.383   1.911   1.814  1.5184 -1.0321  1.0288
  123OCT    H83 3198   1.308   1.861   1.963 -0.0508  0.3070 -0.8622
  124OCT     C1 3199   3.461   4.114   0.877  0.5669 -0.7898 -0.2545
  124OCT    H11 3200   3.557   4.088   0.827 -1.5630  2.0374  0.0037
  124OCT    H12 3201   3.450   4.162   0.976  0.4164  0.6081  0.4811
  124OCT    H13 3202   3.415   4.017   0.890 -2.6016 -0.7077 -2.8986
  124OCT     C2 3203   3.377   4.190   0.770  0.5311  0.0136 -0.1784
  124OCT    H21 3204   3.360   4.120   0.684  1.4815  1.5182 -2.0216
  124OCT    H22 3205   3.277   4.218   0.811 -2.0003 -0.4927  0.0851
  124OCT     C3 3206   3.433   4.323   0.712 -0.2308  0.3060 -0.2684
  124OCT    H31 3207   3.545   4.308   0.716 -0.0375 -0.3013 -2.1836
  124OCT    H32 3208   3.398   4.356   0.616 -1.1661 -0.3024  0.6998
  124OCT     C4 3209   3.401   4.438   0.807  0.8817 -0.1403 -0.2837
  124OCT    H41 3210   3.436   4.405   0.913  1.5445 -0.8169  3.3020
  124OCT    H42 3211   3.463   4.526   0.776  1.4954 -1.4222 -0.8623
  124OCT     C5 3212   3.253   4.492   0.824  0.0181  0.7978 -0.7158
  124OCT    H51 3213   3.217   4.530   0.727  2.2649  1.1251  1.1522
  124OCT    H52 3214   3.180   4.415   0.863 -2.0616  1.2069 -1.4618
  124OCT     C6 3215   3.248   4.626   0.901 -0.6144  0.1017  0.0508
  124OCT    H61 3216   3.271   4.622   1.015 -2.4871 -0.1069  3.4896
  124OCT    H62 3217   3.317   4.705   0.853  1.8545  3.6498 -0.9434
  124OCT     C7 3218   3.108   4.692   0.904 -0.6032 -0.1119  0.2105
  124OCT    H71 3219   3.089   4.726   0.806  2.0592  0.8604 -0.0899
  124OCT    H72 3220   3.031   4.617   0.923 -0.1649  1.6568 -1.3604
  124OCT     C8 3221   3.103   4.807   1.006  0.2527 -0.4038 -0.6927
  124OCT    H81 3222   3.004   4.851   1.003  1.1944  0.4564  0.2654
  124OCT    H82 3223   3.124   4.763   1.109  0.7213 -1.5484 -1.5707
  124OCT    H83 3224   3.177   4.880   0.974 -0.8910 -0.0246 -1.5069
  125OCT     C1 3225   0.585   3.846   2.070 -0.3875 -0.3619 -0.4997
  125OCT    H11 3226   0.503   3.772   2.043  2.7182 -1.5381  0.5568
  125OCT    H12 3227   0.687   3.791   2.052  1.2398 -0.4169  2.3250
  125OCT    H13 3228   0.583   3.864   2.179  1.1568 -2.8566 -0.0889
  125OCT     C2 3229   0.582   3.975   2.001 -0.1320  0.2077  0.0229
  125OCT    H21 3230   0.630   3.968   1.900 -1.9121 -0.5670 -2.6876
  125OCT    H22 3231   0.473   4.007   1.988 -1.5901 -1.8324 -1.8967
  125OCT     C3 3232   0.662   4.093   2.063 -0.7583  0.3068  0.3215
  125OCT    H31 3233   0.632   4.187   2.011 -0.5395  0.1693 -0.1480
  125OCT    H32 3234   0.630   4.097   2.170 -2.6213 -1.3431 -0.3023
  125OCT     C4 3235   0.820   4.077   2.052  0.3084 -0.0053  0.1859
  125OCT    H41 3236   0.863   4.028   2.138 -0.2579  3.1470  0.7362
  125OCT    H42 3237   0.843   4.011   1.961 -0.7491 -1.1388 -0.0204
  125OCT     C5 3238   0.901   4.210   2.041 -0.8543 -0.8157 -0.0326
  125OCT    H51 3239   0.863   4.273   1.953  1.1074  0.4386  0.7617
  125OCT    H52 3240   0.885   4.264   2.141  1.2143 -2.5539  0.3847
  125OCT     C6 3241   1.052   4.210   2.041 -0.6513 -0.1211  0.4049
  125OCT    H61 3242   1.079   4.181   2.143 -0.6362 -1.5168  1.2192
  125OCT    H62 3243   1.092   4.136   1.967 -1.3542 -0.8679 -1.3721
  125OCT     C7 3244   1.115   4.350   2.018 -0.0085  0.3386  0.3251
  125OCT    H71 3245   1.083   4.384   1.916 -0.6441 -1.6813  0.6377
  125OCT    H72 3246   1.090   4.421   2.096 -2.4577  2.6385 -1.5363
  125OCT     C8 3247   1.266   4.345   2.018  0.2971 -0.9398  0.4684
  125OCT    H81 3248   1.305   4.441   2.001 -0.1151 -2.4646 -1.3265
  125OCT    H82 3249   1.301   4.325   2.123  0.4513 -2.3587 -1.5543
  125OCT    H83 3250   1.312   4.281   1.936  0.4218 -0.5745 -1.5773
  126OCT     C1 3251   0.555   2.254   2.875  0.4047 -0.5336 -0.6011
  126OCT    H11 3252   0.561   2.145   2.865  1.0298  1.8165  1.4638
  126OCT    H12 3253   0.537   2.272   2.984  1.1358  1.2085 -1.2005
  126OCT    H13 3254   0.470   2.289   2.815  0.2526 -1.6123  2.1595
  126OCT     C2 3255   0.685   2.325   2.835  0.1906  0.3931 -0.1900
  126OCT    H21 3256   0.677   2.433   2.862 -0.1008 -0.5694  0.9207
  126OCT    H22 3257   0.762   2.275   2.895 -0.5311 -2.2671  0.6192
  126OCT     C3 3258   0.720   2.311   2.687 -0.2381 -0.2849 -0.5384
  126OCT    H31 3259   0.718   2.204   2.656 -1.8204  1.2713 -1.5424
  126OCT    H32 3260   0.644   2.365   2.622 -3.2024 -0.0385 -1.8742
  126OCT     C4 3261   0.862   2.361   2.647  0.1453 -1.1399  0.0240
  126OCT    H41 3262   0.888   2.449   2.701 -0.4405 -3.3211 -2.3534
  126OCT    H42 3263   0.937   2.282   2.669  1.1683 -0.1511 -1.9518
  126OCT     C5 3264   0.868   2.394   2.490  0.2525  0.4511 -0.2622
  126OCT    H51 3265   0.885   2.282   2.448 -3.4340 -0.6694  1.4062
  126OCT    H52 3266   0.767   2.424   2.460 -1.7249  1.3416 -3.0005
  126OCT     C6 3267   0.991   2.471   2.448 -0.5503 -0.5191 -0.4062
  126OCT    H61 3268   1.004   2.471   2.334 -0.4647  0.3706 -0.4113
  126OCT    H62 3269   0.967   2.574   2.477  1.1557  0.6850  0.2330
  126OCT     C7 3270   1.125   2.408   2.505 -0.5054 -0.5339  0.2214
  126OCT    H71 3271   1.134   2.409   2.619 -1.7466  1.1337  0.1065
  126OCT    H72 3272   1.119   2.304   2.489  1.2818  3.7212  1.7199
  126OCT     C8 3273   1.252   2.468   2.448  0.3948  0.0458  0.0684
  126OCT    H81 3274   1.261   2.466   2.337  1.8785  0.9147  1.5360
  126OCT    H82 3275   1.259   2.565   2.491 -0.5088  0.4214  0.9820
  126OCT    H83 3276   1.330   2.394   2.489 -1.3555  0.1826  2.6899
  127OCT     C1 3277   1.563   1.026   4.319 -1.1582 -0.5551  0.5140
  127OCT    H11 3278   1.607   1.116   4.359  0.3314 -2.6669  0.5851
  127OCT    H12 3279   1.453   1.041   4.296  1.8310 -1.0458 -2.4206
  127OCT    H13 3280   1.572   0.941   4.387 -1.5667  0.4314 -0.9043
  127OCT     C2 3281   1.623   0.981   4.186 -0.2883 -0.2287 -0.2162
  127OCT    H21 3282   1.563   0.915   4.133  2.8154  1.6850  0.5040
  127OCT    H22 3283   1.634   1.067   4.118  0.1755 -1.5023 -1.2022
  127OCT     C3 3284   1.770   0.939   4.192  0.0507  0.3072  0.6447
  127OCT    H31 3285   1.814   0.911   4.100  0.3871 -1.4653  1.4600
  127OCT    H32 3286   1.824   1.027   4.234 -2.1687  1.2259  0.9514
  127OCT     C4 3287   1.785   0.810   4.282 -0.4239  0.1980 -0.2356
  127OCT    H41 3288   1.780   0.833   4.388  0.0474 -2.3372  0.6209
  127OCT    H42 3289   1.703   0.744   4.257  0.9788  1.5251 -1.3292
  127OCT     C5 3290   1.921   0.733   4.261 -0.2893  0.5500  0.6539
  127OCT    H51 3291   2.009   0.795   4.275 -0.4538 -1.7396 -0.2998
  127OCT    H52 3292   1.912   0.644   4.330 -3.0795  1.2430  0.4595
  127OCT     C6 3293   1.948   0.678   4.118  1.1830  1.0223 -0.9036
  127OCT    H61 3294   1.968   0.767   4.060 -1.1185  0.6788 -0.7343
  127OCT    H62 3295   2.051   0.629   4.124  2.3370  0.7254  0.1964
  127OCT     C7 3296   1.838   0.586   4.057  0.4108 -0.0296 -0.3637
  127OCT    H71 3297   1.739   0.643   4.068 -0.7654  0.2559  0.3423
  127OCT    H72 3298   1.858   0.576   3.949  2.2098  1.7847  0.7957
  127OCT     C8 3299   1.825   0.446   4.119  0.5584 -0.2802 -0.4867
  127OCT    H81 3300   1.916   0.384   4.108 -0.0623  0.1604  0.6770
  127OCT    H82 3301   1.801   0.462   4.227  1.1614 -1.6115  1.7918
  127OCT    H83 3302   1.746   0.388   4.064  2.0990 -0.6966 -1.6075
  128OCT     C1 3303   0.356   3.985   3.430 -0.2713  0.0120  0.5450
  128OCT    H11 3304   0.298   3.896   3.464  4.1415 -0.6117 -1.3008
  128OCT    H12 3305   0.314   4.024   3.328 -1.7148 -0.2121 -1.5259
  128OCT    H13 3306   0.458   3.946   3.422  0.7733  1.6705  2.9338
  128OCT     C2 3307   0.366   4.088   3.539 -0.3199 -0.6075  0.1265
  128OCT    H21 3308   0.269   4.149   3.548 -0.0445 -0.2021  4.2531
  128OCT    H22 3309   0.358   4.035   3.634  1.0846  2.4820 -0.2264
  128OCT     C3 3310   0.491   4.180   3.542  0.5973 -0.1222  0.8904
  128OCT    H31 3311   0.583   4.115   3.543  1.8421  0.1414  0.6303
  128OCT    H32 3312   0.492   4.239   3.444  0.5435  0.2910 -1.3991
  128OCT     C4 3313   0.493   4.264   3.665  0.1375 -0.6420  0.4688
  128OCT    H41 3314   0.408   4.337   3.654 -0.2832 -0.7305  0.4941
  128OCT    H42 3315   0.468   4.198   3.749  0.2046 -0.0795 -0.8263
  128OCT     C5 3316   0.626   4.332   3.687 -0.7689  0.3942 -0.7638
  128OCT    H51 3317   0.705   4.288   3.624 -1.2991 -0.2295 -0.3739
  128OCT    H52 3318   0.634   4.435   3.662  1.1139 -1.3314  1.1380
  128OCT     C6 3319   0.685   4.327   3.833 -0.0010 -0.2081  0.1553
  128OCT    H61 3320   0.613   4.377   3.908 -1.4821  1.3267  1.8013
  128OCT    H62 3321   0.720   4.224   3.858  2.0622  1.1648  3.6147
  128OCT     C7 3322   0.810   4.416   3.856 -0.1712  0.4567  0.6881
  128OCT    H71 3323   0.887   4.384   3.791 -2.4344 -0.5218 -0.5215
  128OCT    H72 3324   0.794   4.524   3.830  2.6026 -1.5356 -1.1870
  128OCT     C8 3325   0.861   4.412   3.994  0.3172 -0.8758  0.0100
  128OCT    H81 3326   0.875   4.311   4.027  1.0404 -0.4812 -1.4093
  128OCT    H82 3327   0.966   4.456   3.997  0.5920  0.5977  0.1097
  128OCT    H83 3328   0.794   4.471   4.072  0.4715  1.3384  1.0437
  129OCT     C1 3329   2.116   3.227   1.746  0.4663  0.0108 -0.8095
  129OCT    H11 3330   2.070   3.213   1.646 -0.1727  0.2549  1.2305
  129OCT    H12 3331   2.203   3.155   1.765  1.6630 -0.2779 -0.5789
  129OCT    H13 3332   2.042   3.203   1.829  0.6301 -0.5717  0.2534
  129OCT     C2 3333   2.162   3.377   1.749 -0.4060 -0.4715 -0.3199
  129OCT    H21 3334   2.197   3.398   1.855  2.4040 -1.9470 -2.2879
  129OCT    H22 3335   2.248   3.391   1.688 -1.4995 -2.0626  0.8697
  129OCT     C3 3336   2.046   3.474   1.714 -0.2422 -0.1809 -0.2587
  129OCT    H31 3337   2.038   3.472   1.599  1.7804 -1.7846 -0.2701
  129OCT    H32 3338   1.957   3.437   1.759 -2.9545  0.9182  0.1685
  129OCT     C4 3339   2.059   3.618   1.759 -0.6062 -0.2828  0.0194
  129OCT    H41 3340   2.085   3.629   1.872  3.0114  0.7227  1.7941
  129OCT    H42 3341   2.147   3.660   1.710  0.0349 -0.6805  2.0515
  129OCT     C5 3342   1.938   3.699   1.714  0.3019  0.3683 -0.5076
  129OCT    H51 3343   1.840   3.641   1.728  0.2415 -1.1339 -0.5862
  129OCT    H52 3344   1.933   3.781   1.785 -1.0323 -0.2904  0.1011
  129OCT     C6 3345   1.949   3.746   1.567  0.0301  0.1665 -0.0402
  129OCT    H61 3346   2.046   3.798   1.548 -1.3366 -1.0811 -0.4005
  129OCT    H62 3347   1.960   3.655   1.499  0.5406  0.2938 -1.6822
  129OCT     C7 3348   1.831   3.822   1.519 -0.1999 -0.6523  0.0417
  129OCT    H71 3349   1.742   3.753   1.509 -0.7576 -0.3928 -0.6510
  129OCT    H72 3350   1.811   3.902   1.592  2.9039  0.9958  0.1921
  129OCT     C8 3351   1.850   3.905   1.393  0.7727  0.0806  0.2771
  129OCT    H81 3352   1.756   3.960   1.380 -0.1527 -2.7030  0.0587
  129OCT    H82 3353   1.949   3.968   1.396  0.5336  2.4942  2.4383
  129OCT    H83 3354   1.866   3.837   1.303 -0.1699 -1.2883 -0.9020
  130OCT     C1 3355   0.983   3.588   2.266  0.5095 -0.3465  0.4512
  130OCT    H11 3356   1.003   3.547   2.157  1.7259  0.7604 -3.0206
  130OCT    H12 3357   1.026   3.688   2.262  0.9569  0.6146  1.7683
  130OCT    H13 3358   1.038   3.522   2.337  0.4264 -0.8570  4.2434
  130OCT     C2 3359   0.835   3.574   2.300 -0.2565 -0.2027 -0.6953
  130OCT    H21 3360   0.831   3.614   2.404  2.9902 -1.5023  0.5207
  130OCT    H22 3361   0.775   3.630   2.225  0.7705 -0.8782 -0.2250
  130OCT     C3 3362   0.774   3.432   2.312  0.2814 -0.4084 -0.5419
  130OCT    H31 3363   0.678   3.430   2.380 -4.6155  0.8589 -0.1366
  130OCT    H32 3364   0.747   3.401   2.207  2.2700  0.5922 -0.7208
  130OCT     C4 3365   0.876   3.334   2.369 -0.0099  0.4825  0.9225
  130OCT    H41 3366   0.834   3.234   2.365  3.3318  1.9872  1.6741
  130OCT    H42 3367   0.965   3.331   2.299  0.1037 -1.5650  1.8101
  130OCT     C5 3368   0.916   3.364   2.520 -0.1494 -0.6709  0.3604
  130OCT    H51 3369   0.960   3.465   2.517  0.3196 -2.3997 -1.5680
  130OCT    H52 3370   0.824   3.356   2.589  0.1358 -1.6673 -0.9769
  130OCT     C6 3371   1.023   3.274   2.566 -0.3319 -0.1964  0.4715
  130OCT    H61 3372   0.995   3.168   2.570  0.1046  1.3563  2.4504
  130OCT    H62 3373   1.106   3.278   2.488  1.5155  1.9435  2.0323
  130OCT     C7 3374   1.086   3.301   2.710 -0.5915 -0.2675  1.3398
  130OCT    H71 3375   1.183   3.250   2.716 -0.8606  2.2310  0.1399
  130OCT    H72 3376   1.115   3.412   2.709 -1.0089  0.3128 -0.8800
  130OCT     C8 3377   0.993   3.263   2.816  0.9404 -0.3340  0.2156
  130OCT    H81 3378   0.973   3.155   2.831 -0.9790  0.4825  0.1666
  130OCT    H82 3379   1.035   3.304   2.908 -4.1273 -1.5740  3.6652
  130OCT    H83 3380   0.897   3.316   2.789 -1.3516 -4.1693 -0.0423
  131OCT     C1 3381   0.074   0.885   2.017  0.2124 -0.7662  0.1566
  131OCT    H11 3382   0.069   0.827   2.112  2.3770 -3.3034  1.6107
  131OCT    H12 3383  -0.032   0.896   1.975 -3.2041  1.1902  2.2810
  131OCT    H13 3384   0.148   0.841   1.954  1.9768  0.1430  1.2556
  131OCT     C2 3385   0.100   1.024   2.060 -0.8018 -0.0748 -0.1064
  131OCT    H21 3386   0.205   1.043   2.091 -2.0592  0.0045  0.1253
  131OCT    H22 3387   0.090   1.088   1.976 -1.7657 -1.0115  0.6473
  131OCT     C3 3388   0.007   1.079   2.169  0.4994  0.6143 -0.3820
  131OCT    H31 3389  -0.095   1.081   2.127  2.0339  1.6552  1.0510
  131OCT    H32 3390   0.007   1.007   2.257  0.4160 -1.2512  1.5015
  131OCT     C4 3391   0.044   1.223   2.220  0.5054  0.3801  0.3541
  131OCT    H41 3392   0.141   1.218   2.277  0.6042  0.0657 -0.7805
  131OCT    H42 3393   0.059   1.292   2.136 -1.6630 -1.3331  0.9545
  131OCT     C5 3394  -0.047   1.287   2.328 -0.0292 -0.1829  0.2990
  131OCT    H51 3395  -0.152   1.287   2.294  1.2727 -1.0560 -0.1277
  131OCT    H52 3396  -0.034   1.230   2.427  3.7040  2.3496 -0.0475
  131OCT     C6 3397  -0.034   1.440   2.353  0.6004 -0.1333  0.4024
  131OCT    H61 3398  -0.071   1.487   2.259  1.2376  0.1658 -0.8361
  131OCT    H62 3399  -0.097   1.467   2.446  0.4216 -1.8870  1.9594
  131OCT     C7 3400   0.106   1.486   2.373 -0.1487 -0.8701  0.1612
  131OCT    H71 3401   0.157   1.424   2.451  1.8389 -1.0982  1.6081
  131OCT    H72 3402   0.155   1.459   2.280  0.2329  1.6443  1.5550
  131OCT     C8 3403   0.119   1.636   2.403 -0.9527  0.3629 -0.0290
  131OCT    H81 3404   0.099   1.660   2.509  3.2446  0.5761 -0.7414
  131OCT    H82 3405   0.222   1.673   2.388 -0.5829  2.0102  0.6091
  131OCT    H83 3406   0.054   1.699   2.346  2.4227  0.4321  1.1688
  132OCT     C1 3407   2.236   0.974   4.103  0.1848  0.0277  0.1282
  132OCT    H11 3408   2.253   1.003   3.996 -2.4225  0.2216 -1.2311
  132OCT    H12 3409   2.212   0.861   4.114  1.1759 -1.3901 -3.0996
  132OCT    H13 3410   2.149   1.029   4.139  0.7548  0.4173 -1.9235
  132OCT     C2 3411   2.356   1.009   4.197 -0.5800  0.6244  0.1343
  132OCT    H21 3412   2.352   1.119   4.208 -1.5907  1.0701  1.0376
  132OCT    H22 3413   2.323   0.966   4.289  0.3782 -1.1339 -1.3221
  132OCT     C3 3414   2.488   0.954   4.140  0.2281  0.7296  0.9083
  132OCT    H31 3415   2.490   0.846   4.106  1.4738 -1.5348  1.0249
  132OCT    H32 3416   2.495   1.009   4.046  0.5948 -1.7535 -0.4098
  132OCT     C4 3417   2.607   0.996   4.224 -0.0693  0.1007  0.4447
  132OCT    H41 3418   2.607   1.111   4.229  4.9666  0.6356 -1.4379
  132OCT    H42 3419   2.612   0.947   4.324 -5.6414  0.2765  1.3105
  132OCT     C5 3420   2.741   0.964   4.148  0.2716  0.0316  0.4043
  132OCT    H51 3421   2.762   0.857   4.131  0.7500  0.3308 -0.0843
  132OCT    H52 3422   2.731   1.012   4.049  3.3155 -0.3610 -2.7933
  132OCT     C6 3423   2.851   1.021   4.236 -0.4380 -0.2142 -0.4329
  132OCT    H61 3424   2.956   0.986   4.210  1.8865 -1.1012  1.6562
  132OCT    H62 3425   2.845   1.135   4.225 -1.2824  1.5793  0.9111
  132OCT     C7 3426   2.859   0.983   4.389  0.2779  0.1525 -0.3127
  132OCT    H71 3427   2.946   1.031   4.427 -0.3842  0.0499 -1.4676
  132OCT    H72 3428   2.777   1.044   4.437 -0.1510  0.6840 -0.6746
  132OCT     C8 3429   2.850   0.836   4.425  0.2066 -0.2796 -0.1256
  132OCT    H81 3430   2.946   0.781   4.406  1.2416  1.4587  2.9971
  132OCT    H82 3431   2.831   0.829   4.535  0.1151  1.2180  1.0968
  132OCT    H83 3432   2.766   0.786   4.365  0.9917  0.2711 -1.3806
  133OCT     C1 3433   2.417   0.110   0.878 -0.2945  0.0533 -0.2971
  133OCT    H11 3434   2.468   0.124   0.978  0.0256  2.2278  1.4304
  133OCT    H12 3435   2.466   0.160   0.791 -0.6946 -0.5359 -0.2053
  133OCT    H13 3436   2.303   0.140   0.893 -2.0707  3.6406  1.9493
  133OCT     C2 3437   2.405  -0.039   0.855 -0.4022  0.2068  0.3364
  133OCT    H21 3438   2.348  -0.068   0.947  0.1570  1.1420 -0.9803
  133OCT    H22 3439   2.342  -0.058   0.761  0.6705  1.5326  1.8516
  133OCT     C3 3440   2.531  -0.129   0.848  0.6445  0.2766  0.4272
  133OCT    H31 3441   2.562  -0.121   0.738 -1.6226 -4.3695 -0.2248
  133OCT    H32 3442   2.607  -0.080   0.913 -0.0772  1.9831  0.2896
  133OCT     C4 3443   2.507  -0.273   0.875  0.4867  0.1811 -0.2139
  133OCT    H41 3444   2.442  -0.272   0.965  1.1098  0.1520 -0.1586
  133OCT    H42 3445   2.456  -0.317   0.786  0.6425 -0.1776 -0.4824
  133OCT     C5 3446   2.642  -0.348   0.889  0.1588  0.4699  0.4330
  133OCT    H51 3447   2.709  -0.340   0.799  3.6442 -0.4849  0.8601
  133OCT    H52 3448   2.694  -0.299   0.978  2.7115 -1.1043  0.3416
  133OCT     C6 3449   2.621  -0.493   0.918  0.0122 -0.3406  0.1707
  133OCT    H61 3450   2.597  -0.537   0.823  1.2141  3.0156 -0.0939
  133OCT    H62 3451   2.713  -0.530   0.963 -0.7463  3.7742 -1.6789
  133OCT     C7 3452   2.514  -0.522   1.020  0.1201 -0.4563 -0.2882
  133OCT    H71 3453   2.524  -0.465   1.115  0.5430 -0.9832 -0.4200
  133OCT    H72 3454   2.419  -0.493   0.976 -2.3289 -1.0158  3.3427
  133OCT     C8 3455   2.501  -0.673   1.047  0.3061  0.2817  0.2031
  133OCT    H81 3456   2.409  -0.699   1.107 -3.5649 -0.7909  0.5635
  133OCT    H82 3457   2.491  -0.727   0.946  1.4487 -1.1047  1.0242
  133OCT    H83 3458   2.584  -0.717   1.104 -0.0507  1.9343 -1.6221
  134OCT     C1 3459   1.729   0.984   2.536  0.3852  0.5979  0.2230
  134OCT    H11 3460   1.676   1.082   2.545 -1.7364  0.6193 -1.1052
  134OCT    H12 3461   1.702   0.912   2.612 -0.8045  2.0016 -1.6313
  134OCT    H13 3462   1.827   1.004   2.567  0.2219 -1.9358  3.7705
  134OCT     C2 3463   1.705   0.921   2.393 -0.0296  0.4531 -0.1914
  134OCT    H21 3464   1.621   0.852   2.397  1.1110 -1.2756 -0.7704
  134OCT    H22 3465   1.696   1.003   2.317  0.8489  0.9605 -1.5784
  134OCT     C3 3466   1.825   0.834   2.344 -0.0248 -1.0489 -0.2649
  134OCT    H31 3467   1.909   0.910   2.325 -0.5321  1.8126  0.9019
  134OCT    H32 3468   1.854   0.772   2.429 -0.2820  1.2347  1.8860
  134OCT     C4 3469   1.790   0.755   2.216  0.1795 -0.1458  0.8193
  134OCT    H41 3470   1.689   0.701   2.222  1.1590 -1.0149  0.7809
  134OCT    H42 3471   1.777   0.832   2.138 -0.1720 -0.1367 -0.0864
  134OCT     C5 3472   1.899   0.655   2.171 -0.6763  0.3794  0.0422
  134OCT    H51 3473   1.914   0.669   2.059 -4.4229  0.9562 -0.3804
  134OCT    H52 3474   1.995   0.681   2.218 -0.5730 -0.7800 -0.5363
  134OCT     C6 3475   1.857   0.515   2.210  0.6338 -0.2019 -0.4451
  134OCT    H61 3476   1.831   0.526   2.316  1.2171 -0.7236 -0.1563
  134OCT    H62 3477   1.768   0.490   2.151  1.1277 -1.3812  0.7477
  134OCT     C7 3478   1.967   0.420   2.173  0.3112  0.4222  0.2129
  134OCT    H71 3479   2.062   0.459   2.205 -2.3392 -1.8578 -1.2985
  134OCT    H72 3480   1.957   0.324   2.228 -2.4335 -0.7788 -0.7857
  134OCT     C8 3481   1.971   0.391   2.027  0.2769  0.6350 -0.0510
  134OCT    H81 3482   2.005   0.478   1.967 -0.9975  1.5686  0.1528
  134OCT    H82 3483   2.045   0.308   2.009  0.6078 -2.1768  2.2532
  134OCT    H83 3484   1.870   0.350   1.991 -1.2345 -0.1573 -1.1151
  135OCT     C1 3485   1.381   1.794   3.818  0.1793 -0.3073 -0.0347
  135OCT    H11 3486   1.268   1.793   3.831  0.0417 -1.6804  2.6790
  135OCT    H12 3487   1.414   1.826   3.712  0.6986 -1.6978 -1.0722
  135OCT    H13 3488   1.428   1.692   3.833 -0.9340 -2.6823 -1.4410
  135OCT     C2 3489   1.443   1.894   3.919  1.1948  0.1100 -0.5578
  135OCT    H21 3490   1.408   1.860   4.023 -1.4573 -3.3230  0.1482
  135OCT    H22 3491   1.553   1.889   3.913  4.0286 -0.2531  1.5361
  135OCT     C3 3492   1.412   2.041   3.879  0.0659  0.0382  0.5491
  135OCT    H31 3493   1.457   2.071   3.778 -1.5182 -3.3626 -0.8791
  135OCT    H32 3494   1.306   2.055   3.872  0.8975 -0.9942 -2.8275
  135OCT     C4 3495   1.473   2.125   3.989  0.0388 -0.0193 -0.4038
  135OCT    H41 3496   1.436   2.092   4.088 -2.8985 -1.2502 -1.9384
  135OCT    H42 3497   1.579   2.111   4.004  1.4349 -2.9190  4.7200
  135OCT     C5 3498   1.451   2.276   3.971 -0.3541 -0.1002 -0.0372
  135OCT    H51 3499   1.464   2.308   3.865  1.3198 -0.4201 -1.5925
  135OCT    H52 3500   1.345   2.295   4.003 -2.3635  0.5442  1.1248
  135OCT     C6 3501   1.554   2.353   4.054  0.7228  0.0848 -0.4065
  135OCT    H61 3502   1.574   2.313   4.150  1.5209  0.0711 -0.1736
  135OCT    H62 3503   1.655   2.356   4.009 -1.2475 -0.7344  2.7082
  135OCT     C7 3504   1.511   2.499   4.086  0.0150  0.0665  0.6627
  135OCT    H71 3505   1.505   2.536   3.982  3.6513 -1.0783 -1.8183
  135OCT    H72 3506   1.401   2.506   4.129 -1.4871  0.0069 -1.2361
  135OCT     C8 3507   1.613   2.577   4.173  0.0868 -0.2059  0.3411
  135OCT    H81 3508   1.720   2.540   4.169  0.9362  0.4308 -0.7415
  135OCT    H82 3509   1.598   2.688   4.158 -1.9704  0.0702 -3.0774
  135OCT    H83 3510   1.586   2.559   4.278 -1.9097 -1.7632 -1.6529
  136OCT     C1 3511   1.506   2.433   1.407 -0.2575  0.0999 -0.1319
  136OCT    H11 3512   1.593   2.451   1.339 -3.4955 -1.2092 -1.2353
  136OCT    H12 3513   1.439   2.530   1.401  0.0208  1.4208 -0.5435
  136OCT    H13 3514   1.534   2.406   1.516 -0.7000  2.3852  2.9348
  136OCT     C2 3515   1.423   2.324   1.337 -0.2002  0.0076  0.0854
  136OCT    H21 3516   1.331   2.326   1.402 -0.5345  1.5314  0.5340
  136OCT    H22 3517   1.382   2.364   1.234 -1.0181 -1.8284 -1.1334
  136OCT     C3 3518   1.483   2.191   1.335 -0.0678  0.3202  0.5064
  136OCT    H31 3519   1.583   2.190   1.286  1.0698 -2.7599 -0.5901
  136OCT    H32 3520   1.499   2.155   1.438 -3.2893  1.1243 -0.9171
  136OCT     C4 3521   1.390   2.087   1.274  0.2720  0.6980 -0.0551
  136OCT    H41 3522   1.432   1.981   1.280  1.1424 -2.1050 -0.8808
  136OCT    H42 3523   1.294   2.101   1.331  0.6096  0.1807 -0.6920
  136OCT     C5 3524   1.348   2.105   1.126 -0.2812 -0.0462  0.1036
  136OCT    H51 3525   1.278   2.188   1.115  0.9842 -1.2937  1.9118
  136OCT    H52 3526   1.444   2.144   1.071  1.4915  0.6519 -0.0113
  136OCT     C6 3527   1.292   1.980   1.048 -0.1031  1.0498  0.0636
  136OCT    H61 3528   1.289   1.997   0.942  0.0690 -0.1150  1.2165
  136OCT    H62 3529   1.360   1.896   1.072  0.4761  1.7547  2.3829
  136OCT     C7 3530   1.152   1.947   1.096  0.3528  0.4251 -0.2055
  136OCT    H71 3531   1.132   1.843   1.066  2.4014 -0.1108  1.7218
  136OCT    H72 3532   1.152   1.943   1.205  0.7345 -0.6975  0.1408
  136OCT     C8 3533   1.051   2.048   1.036 -0.7814 -0.2046  0.6538
  136OCT    H81 3534   0.945   2.028   1.071 -0.1372  0.3952  2.1779
  136OCT    H82 3535   1.071   2.149   1.079 -2.7054  1.3163  2.5599
  136OCT    H83 3536   1.064   2.049   0.928 -1.1574 -1.6286  3.3788
  137OCT     C1 3537   1.932   3.276   0.577 -0.1417 -0.2558 -0.1869
  137OCT    H11 3538   1.983   3.342   0.505 -2.0612  0.0263 -1.0849
  137OCT    H12 3539   1.855   3.217   0.523 -2.2383  3.3803 -0.7476
  137OCT    H13 3540   1.890   3.345   0.661 -0.4559  1.1362  0.0825
  137OCT     C2 3541   2.037   3.178   0.645  0.1013  0.2656  0.6623
  137OCT    H21 3542   2.126   3.237   0.677 -0.8087 -0.9428  2.3964
  137OCT    H22 3543   1.995   3.134   0.739 -1.8312 -0.0035  1.9550
  137OCT     C3 3544   2.082   3.073   0.552  0.8035 -1.0124 -0.5448
  137OCT    H31 3545   1.984   3.024   0.508 -2.7555  0.4683 -0.0399
  137OCT    H32 3546   2.128   3.117   0.469 -2.2885 -1.2550  3.8549
  137OCT     C4 3547   2.163   2.963   0.619  0.4183 -0.3848  0.2225
  137OCT    H41 3548   2.255   3.014   0.653 -0.5441  0.2413  1.6990
  137OCT    H42 3549   2.115   2.927   0.717 -0.4258 -1.5898  1.6438
  137OCT     C5 3550   2.198   2.830   0.549  0.0014 -0.3269  0.4099
  137OCT    H51 3551   2.239   2.765   0.627 -2.2476 -1.4602  1.4420
  137OCT    H52 3552   2.103   2.788   0.510  0.4977 -0.0965  0.2997
  137OCT     C6 3553   2.291   2.847   0.428 -0.0051 -0.1234 -0.1780
  137OCT    H61 3554   2.236   2.906   0.354  1.9180 -1.0810 -0.0203
  137OCT    H62 3555   2.382   2.904   0.473 -0.7533  0.2302  0.1512
  137OCT     C7 3556   2.332   2.718   0.358 -0.3185 -0.1983 -0.4307
  137OCT    H71 3557   2.408   2.673   0.425  1.9110  2.2685  0.5040
  137OCT    H72 3558   2.238   2.653   0.343  0.1226  0.8449 -0.8291
  137OCT     C8 3559   2.382   2.736   0.215  0.4605  0.5474  0.4590
  137OCT    H81 3560   2.459   2.812   0.214  1.2793  1.5469  0.8400
  137OCT    H82 3561   2.415   2.638   0.190 -1.2941  0.5020  1.9575
  137OCT    H83 3562   2.297   2.772   0.152 -0.1279 -1.0907  0.9630
  138OCT     C1 3563   2.361   0.911   3.686  0.0571  0.1111  0.2961
  138OCT    H11 3564   2.430   0.962   3.615 -0.9887 -0.7212 -0.9556
  138OCT    H12 3565   2.265   0.911   3.630 -1.6372 -0.6740  4.1384
  138OCT    H13 3566   2.344   0.976   3.785  0.0550  2.1250  0.3352
  138OCT     C2 3567   2.412   0.768   3.726  0.6024 -0.6011  0.3353
  138OCT    H21 3568   2.431   0.705   3.633 -1.3333 -1.5232  0.2418
  138OCT    H22 3569   2.508   0.774   3.773 -2.3643  0.2035  0.8034
  138OCT     C3 3570   2.311   0.704   3.819 -0.3188 -0.2154 -0.1026
  138OCT    H31 3571   2.317   0.730   3.928 -3.2352  2.0921 -0.0553
  138OCT    H32 3572   2.206   0.734   3.803  1.4102  0.2431  3.0219
  138OCT     C4 3573   2.331   0.557   3.815  0.0820  0.4033 -0.2350
  138OCT    H41 3574   2.240   0.509   3.856 -0.2955  1.3371 -1.7044
  138OCT    H42 3575   2.319   0.521   3.707 -2.3426  0.0007 -1.3228
  138OCT     C5 3576   2.442   0.494   3.899 -0.0957  0.3289 -0.3646
  138OCT    H51 3577   2.535   0.542   3.856  1.6405  1.4028 -0.6932
  138OCT    H52 3578   2.430   0.523   4.010 -1.2258 -0.0641  2.5884
  138OCT     C6 3579   2.455   0.338   3.893 -0.2206  0.3680  0.4495
  138OCT    H61 3580   2.483   0.313   3.785 -1.2246 -0.7485  0.5946
  138OCT    H62 3581   2.522   0.292   3.968 -0.2601 -1.9515 -0.3191
  138OCT     C7 3582   2.325   0.261   3.899 -0.4941 -0.2877 -0.4869
  138OCT    H71 3583   2.257   0.279   3.815  1.3436 -0.1306 -0.1366
  138OCT    H72 3584   2.347   0.152   3.887 -0.5641 -2.1796 -0.8724
  138OCT     C8 3585   2.265   0.273   4.041 -0.8695 -0.6232  0.1365
  138OCT    H81 3586   2.177   0.197   4.037 -1.2103 -2.1310 -1.9324
  138OCT    H82 3587   2.343   0.259   4.120 -0.8912  1.4136 -1.8648
  138OCT    H83 3588   2.232   0.382   4.053 -1.6811  0.5788  0.4998
  139OCT     C1 3589   1.237   1.789   1.423 -0.5535 -0.0102 -0.1345
  139OCT    H11 3590   1.320   1.804   1.496 -0.9285  1.4192  0.2913
  139OCT    H12 3591   1.285   1.769   1.327  0.9856 -2.8204  0.4275
  139OCT    H13 3592   1.181   1.886   1.413 -1.6977  0.9842  1.8307
  139OCT     C2 3593   1.140   1.677   1.453  0.1371  0.4884 -0.0790
  139OCT    H21 3594   1.118   1.687   1.561  1.3718  0.6247 -0.7257
  139OCT    H22 3595   1.041   1.700   1.403 -2.9771  0.6302 -0.5314
  139OCT     C3 3596   1.180   1.531   1.428 -1.1911  0.0850 -0.0713
  139OCT    H31 3597   1.266   1.506   1.495 -0.4962  0.2290  0.8810
  139OCT    H32 3598   1.097   1.464   1.467 -0.8557  0.4467  1.1695
  139OCT     C4 3599   1.219   1.504   1.284 -0.0155 -0.0125  0.1281
  139OCT    H41 3600   1.132   1.513   1.214 -0.3284 -2.5470 -0.8244
  139OCT    H42 3601   1.301   1.574   1.266 -0.6098  1.2580  1.1938
  139OCT     C5 3602   1.275   1.361   1.261  0.3182 -0.1832  0.0016
  139OCT    H51 3603   1.321   1.349   1.164  0.3158 -0.3807  3.4528
  139OCT    H52 3604   1.359   1.347   1.333  1.3310 -0.1612  1.4670
  139OCT     C6 3605   1.163   1.260   1.293  0.7118  0.4762  0.2562
  139OCT    H61 3606   1.085   1.286   1.367 -0.6972 -2.7050  0.9948
  139OCT    H62 3607   1.111   1.265   1.192  2.4702  1.5886 -2.8234
  139OCT     C7 3608   1.215   1.131   1.338 -0.8127 -0.0373 -0.7241
  139OCT    H71 3609   1.130   1.054   1.343 -2.8319 -2.0138 -2.0759
  139OCT    H72 3610   1.295   1.096   1.268  0.1491 -1.8449  2.4340
  139OCT     C8 3611   1.274   1.143   1.482  0.2616  0.2939  0.0530
  139OCT    H81 3612   1.211   1.192   1.559  1.0885  1.9808  1.4874
  139OCT    H82 3613   1.306   1.043   1.516  1.9811  1.5388  1.8276
  139OCT    H83 3614   1.367   1.201   1.487 -0.4641 -0.6183 -1.4198
  140OCT     C1 3615   3.262   1.005   3.877  0.4337 -0.3490 -0.5913
  140OCT    H11 3616   3.190   0.976   3.957  2.7493 -2.5676 -0.4694
  140OCT    H12 3617   3.212   1.072   3.804  0.6808  1.1699  1.1575
  140OCT    H13 3618   3.292   0.912   3.831 -2.5711 -1.0570  0.5246
  140OCT     C2 3619   3.387   1.091   3.919  0.3084  0.0110  0.5580
  140OCT    H21 3620   3.355   1.184   3.980  2.5587  1.9031  0.3211
  140OCT    H22 3621   3.448   1.014   3.979 -0.7617 -1.2551  1.3567
  140OCT     C3 3622   3.477   1.133   3.811 -0.4249 -0.1260  0.1543
  140OCT    H31 3623   3.578   1.159   3.853  2.3572 -1.7640  0.4123
  140OCT    H32 3624   3.491   1.051   3.732 -0.9915 -2.4580 -2.1944
  140OCT     C4 3625   3.437   1.253   3.731 -0.2703  0.5923  0.1234
  140OCT    H41 3626   3.510   1.272   3.649  2.3227  2.0258 -0.6481
  140OCT    H42 3627   3.336   1.230   3.689  0.7683  0.2620  0.5309
  140OCT     C5 3628   3.431   1.384   3.808  0.0198 -0.0800 -0.0389
  140OCT    H51 3629   3.351   1.384   3.886  2.4823 -1.1713  2.4188
  140OCT    H52 3630   3.527   1.382   3.865 -1.0688 -2.6069  2.8732
  140OCT     C6 3631   3.419   1.514   3.723  0.4372  0.6774  0.2885
  140OCT    H61 3632   3.417   1.602   3.799  0.1895  2.1734  0.5417
  140OCT    H62 3633   3.516   1.529   3.668  1.3759 -0.6496 -0.2187
  140OCT     C7 3634   3.306   1.525   3.618  0.2995 -0.1223 -0.2876
  140OCT    H71 3635   3.310   1.442   3.547  3.7239  1.1086 -0.3711
  140OCT    H72 3636   3.212   1.526   3.690 -2.6642 -0.6280  2.9410
  140OCT     C8 3637   3.328   1.650   3.540 -0.5062  0.3215 -0.6653
  140OCT    H81 3638   3.422   1.642   3.477 -0.1647  1.6340  0.4233
  140OCT    H82 3639   3.248   1.673   3.476 -0.2384  3.0039 -0.3141
  140OCT    H83 3640   3.332   1.743   3.610 -2.3510 -0.4242  0.9392
  141OCT     C1 3641   1.243   3.131   3.820 -0.1539 -0.1685  0.4966
  141OCT    H11 3642   1.145   3.086   3.837  0.7385 -0.0148 -0.8956
  141OCT    H12 3643   1.313   3.110   3.899 -1.2399 -0.9474 -0.4072
  141OCT    H13 3644   1.225   3.245   3.813 -1.3649  1.1528  0.7191
  141OCT     C2 3645   1.290   3.101   3.677 -0.0298  0.2352  0.4519
  141OCT    H21 3646   1.389   3.144   3.657 -2.2780  0.0091 -1.1037
  141OCT    H22 3647   1.298   2.989   3.664  1.1889 -1.5526  0.2410
  141OCT     C3 3648   1.203   3.175   3.578  0.9716 -0.0431 -0.6897
  141OCT    H31 3649   1.093   3.145   3.597 -0.7282 -0.7339 -0.8532
  141OCT    H32 3650   1.207   3.276   3.608  1.4553 -2.6352 -0.6188
  141OCT     C4 3651   1.238   3.156   3.430  0.7386  0.0420 -0.7648
  141OCT    H41 3652   1.323   3.217   3.397 -2.8170  1.6141 -0.9125
  141OCT    H42 3653   1.265   3.049   3.422  1.1823 -0.0098  1.1220
  141OCT     C5 3654   1.126   3.175   3.325  0.5444  0.0620  0.6752
  141OCT    H51 3655   1.035   3.130   3.367 -0.3551  0.1959 -1.0055
  141OCT    H52 3656   1.114   3.285   3.321 -0.7818 -0.2886 -1.2235
  141OCT     C6 3657   1.148   3.121   3.183 -0.2178  0.2287  0.2587
  141OCT    H61 3658   1.160   3.012   3.199 -2.3489  2.4898  1.3384
  141OCT    H62 3659   1.061   3.134   3.126  1.2078 -0.6442  3.4177
  141OCT     C7 3660   1.263   3.176   3.106  0.0794 -0.8374 -0.4017
  141OCT    H71 3661   1.256   3.288   3.096  0.0560 -2.8971  1.1227
  141OCT    H72 3662   1.354   3.153   3.169  1.5804 -3.2470  1.0225
  141OCT     C8 3663   1.287   3.115   2.960 -0.0198  0.6235  0.1956
  141OCT    H81 3664   1.184   3.103   2.929  2.0395 -2.3212  0.7021
  141OCT    H82 3665   1.340   3.190   2.903  0.2075 -1.0330 -0.5479
  141OCT    H83 3666   1.339   3.019   2.953 -1.4927 -0.8054  0.1632
  142OCT     C1 3667   3.430   0.676   2.816 -0.2993 -0.0420 -0.0106
  142OCT    H11 3668   3.521   0.608   2.819 -1.8281 -1.2687  1.7103
  142OCT    H12 3669   3.342   0.637   2.762 -1.3160 -1.1197 -0.1869
  142OCT    H13 3670   3.467   0.765   2.762  0.8268  0.2675 -0.0048
  142OCT     C2 3671   3.390   0.711   2.956 -0.4356  0.0064  0.1316
  142OCT    H21 3672   3.378   0.622   3.021  1.0238 -0.4278 -0.8337
  142OCT    H22 3673   3.479   0.767   2.994  1.4014  3.1518 -1.9343
  142OCT     C3 3674   3.269   0.807   2.970  0.0207  0.3695  0.4176
  142OCT    H31 3675   3.301   0.887   3.047 -2.5772  2.3522  2.0093
  142OCT    H32 3676   3.245   0.856   2.874 -3.2650  0.5937 -0.7749
  142OCT     C4 3677   3.143   0.738   3.014  0.5139 -0.2963  0.2409
  142OCT    H41 3678   3.118   0.647   2.959 -0.2151  0.2371  1.4940
  142OCT    H42 3679   3.135   0.709   3.123  2.1928  1.0332  1.3352
  142OCT     C5 3680   3.025   0.830   2.991 -0.6327 -0.0745  0.1432
  142OCT    H51 3681   3.023   0.842   2.878 -1.8358  0.2113 -1.4290
  142OCT    H52 3682   2.936   0.776   3.027  0.0206 -0.7868  1.0074
  142OCT     C6 3683   3.033   0.960   3.070 -0.0093  0.1820 -0.5924
  142OCT    H61 3684   3.054   0.938   3.178 -1.1259  2.1721 -1.2500
  142OCT    H62 3685   3.108   1.028   3.026  1.1939  1.3558  0.7197
  142OCT     C7 3686   2.899   1.031   3.078 -0.3695  0.2617  0.1394
  142OCT    H71 3687   2.858   1.048   2.977  4.2843 -1.0797 -0.8839
  142OCT    H72 3688   2.830   0.971   3.137 -0.6053 -1.8168 -0.6674
  142OCT     C8 3689   2.901   1.168   3.139  0.7689 -0.1372 -0.1858
  142OCT    H81 3690   2.960   1.234   3.075 -0.4290 -0.8216  0.5227
  142OCT    H82 3691   2.797   1.214   3.155 -3.3124  3.8108 -0.3059
  142OCT    H83 3692   2.942   1.169   3.241  0.2506  0.5515 -0.3561
  143OCT     C1 3693   1.676   1.888   1.929 -0.4788  0.9771 -0.4962
  143OCT    H11 3694   1.646   1.782   1.933  0.5492  1.8681 -1.8236
  143OCT    H12 3695   1.601   1.946   1.989 -1.5806 -1.4547  0.6136
  143OCT    H13 3696   1.671   1.927   1.827 -1.8712 -1.9104  1.3662
  143OCT     C2 3697   1.815   1.898   1.999 -0.0825 -0.1972 -0.5027
  143OCT    H21 3698   1.880   1.821   1.950  0.4011  1.4602  0.6052
  143OCT    H22 3699   1.859   2.002   1.985  0.0350  1.4246  1.2252
  143OCT     C3 3700   1.814   1.868   2.150 -0.3814 -0.6325  0.4634
  143OCT    H31 3701   1.906   1.909   2.201 -1.0952  0.1516  0.2035
  143OCT    H32 3702   1.733   1.928   2.200  1.5847 -0.4816 -0.6701
  143OCT     C4 3703   1.799   1.723   2.190 -0.4792 -0.2740 -0.4513
  143OCT    H41 3704   1.699   1.685   2.149 -2.2397  0.3605 -2.0869
  143OCT    H42 3705   1.879   1.662   2.150 -0.4528 -0.3859 -0.8736
  143OCT     C5 3706   1.777   1.699   2.339  0.4625  1.1547  0.8180
  143OCT    H51 3707   1.858   1.738   2.387 -2.6593 -2.0001 -1.7767
  143OCT    H52 3708   1.688   1.762   2.357 -0.5777 -3.7907 -0.2772
  143OCT     C6 3709   1.749   1.551   2.382 -0.0574 -0.1894 -0.2275
  143OCT    H61 3710   1.656   1.526   2.329  0.3472  1.8461  2.7971
  143OCT    H62 3711   1.827   1.483   2.343  1.0284  2.4632  0.2571
  143OCT     C7 3712   1.730   1.532   2.534 -0.2742  0.1653 -0.8871
  143OCT    H71 3713   1.819   1.545   2.588 -1.3045  2.6981 -2.5811
  143OCT    H72 3714   1.658   1.608   2.562  1.2044  0.4086 -1.9000
  143OCT     C8 3715   1.657   1.400   2.558  0.3420 -0.3280  0.2772
  143OCT    H81 3716   1.710   1.316   2.513  0.8448  1.6525  0.6874
  143OCT    H82 3717   1.644   1.383   2.665  1.8069 -3.7056  1.3274
  143OCT    H83 3718   1.555   1.410   2.518 -1.2508  1.4092  1.4431
  144OCT     C1 3719   3.692   1.378   3.205 -0.5000  0.6914 -0.4373
  144OCT    H11 3720   3.610   1.410   3.271  0.0282 -0.7159  0.1649
  144OCT    H12 3721   3.786   1.387   3.273 -0.4455  0.6670  1.3370
  144OCT    H13 3722   3.698   1.448   3.107  2.9805  0.6063 -3.3876
  144OCT     C2 3723   3.662   1.231   3.169  0.1678  0.0263  0.4863
  144OCT    H21 3724   3.737   1.184   3.109 -0.4324  2.1249  0.6781
  144OCT    H22 3725   3.666   1.183   3.267  0.3017  1.4247  1.1997
  144OCT     C3 3726   3.519   1.215   3.113 -0.2272  0.1444  0.2608
  144OCT    H31 3727   3.489   1.114   3.132 -0.7450  1.5208 -1.4303
  144OCT    H32 3728   3.448   1.285   3.161  0.3388  3.2060  1.5181
  144OCT     C4 3729   3.511   1.236   2.957 -0.4687 -0.4276 -0.4283
  144OCT    H41 3730   3.529   1.340   2.932 -1.3613 -2.7433  1.9152
  144OCT    H42 3731   3.600   1.188   2.914  1.9405  1.0319  0.4211
  144OCT     C5 3732   3.381   1.197   2.894 -0.3719  0.1017  0.1961
  144OCT    H51 3733   3.368   1.086   2.910 -0.8664  0.9468  1.8232
  144OCT    H52 3734   3.300   1.248   2.948  0.4756  1.4086 -2.2845
  144OCT     C6 3735   3.370   1.212   2.746  0.1349 -0.3167  0.3997
  144OCT    H61 3736   3.347   1.314   2.717  3.0719  0.5207 -1.7248
  144OCT    H62 3737   3.464   1.174   2.690 -0.7165  1.1911 -2.6322
  144OCT     C7 3738   3.253   1.121   2.687 -0.4305 -0.1452  0.1557
  144OCT    H71 3739   3.264   1.140   2.576  1.5509  1.6308 -1.0812
  144OCT    H72 3740   3.282   1.017   2.716 -0.4269  1.1749 -0.7519
  144OCT     C8 3741   3.113   1.155   2.740  0.2221 -0.4829  0.3376
  144OCT    H81 3742   3.034   1.083   2.721 -1.4061  2.1907  3.6145
  144OCT    H82 3743   3.112   1.173   2.849  0.4103 -0.5584  2.0365
  144OCT    H83 3744   3.086   1.249   2.685  0.5149  0.2501 -1.6667
  145OCT     C1 3745   3.392   2.265   3.609 -0.1728 -0.5284 -0.2873
  145OCT    H11 3746   3.379   2.279   3.726 -3.5932  1.5735  2.7156
  145OCT    H12 3747   3.405   2.367   3.566 -0.0806 -2.7496 -2.1323
  145OCT    H13 3748   3.295   2.224   3.567 -1.9264 -1.9588 -2.1899
  145OCT     C2 3749   3.519   2.184   3.587 -0.6850  0.5073  0.6307
  145OCT    H21 3750   3.545   2.185   3.480  0.2969  0.7951 -1.4529
  145OCT    H22 3751   3.595   2.235   3.647 -1.8547 -1.8576 -2.7329
  145OCT     C3 3752   3.497   2.045   3.627 -0.2091  0.2211  0.1992
  145OCT    H31 3753   3.456   2.048   3.726  3.2728  1.5113 -2.8473
  145OCT    H32 3754   3.426   1.998   3.562  0.4920 -0.6995  0.3082
  145OCT     C4 3755   3.623   1.952   3.636  0.8306 -0.0551  0.2376
  145OCT    H41 3756   3.696   2.009   3.697  2.6739 -0.7663 -2.6027
  145OCT    H42 3757   3.584   1.861   3.692  1.6240 -0.6237  0.5229
  145OCT     C5 3758   3.678   1.925   3.493  0.1384 -0.5943 -0.2652
  145OCT    H51 3759   3.610   1.853   3.446  2.2033  0.4125  1.9487
  145OCT    H52 3760   3.694   2.020   3.443 -0.3353 -0.4376  1.5925
  145OCT     C6 3761   3.820   1.853   3.500 -0.3617 -0.2063 -0.3211
  145OCT    H61 3762   3.876   1.909   3.576 -1.7152 -0.6999  1.3963
  145OCT    H62 3763   3.814   1.744   3.530 -1.2262 -0.7433 -3.7066
  145OCT     C7 3764   3.881   1.846   3.364 -0.7231 -0.2746  0.5723
  145OCT    H71 3765   3.860   1.936   3.306 -0.2384 -2.6386 -2.1978
  145OCT    H72 3766   3.992   1.837   3.374 -3.3197  0.0011 -0.9384
  145OCT     C8 3767   3.813   1.737   3.284 -0.5033  0.0159  0.0270
  145OCT    H81 3768   3.791   1.649   3.345  1.0050  1.0294 -1.7224
  145OCT    H82 3769   3.719   1.782   3.240 -3.9866  0.9303 -1.4238
  145OCT    H83 3770   3.871   1.706   3.196 -0.8840 -0.2106 -0.1847
  146OCT     C1 3771   2.089   2.681   2.395 -0.3552  0.1662 -0.5589
  146OCT    H11 3772   2.087   2.647   2.504  1.8757 -1.3390 -0.5787
  146OCT    H12 3773   1.984   2.704   2.371  2.6322 -0.5297  0.2642
  146OCT    H13 3774   2.121   2.597   2.325 -0.2199  0.3665 -2.0357
  146OCT     C2 3775   2.177   2.804   2.394  0.0558  0.0225  0.0149
  146OCT    H21 3776   2.281   2.793   2.393 -2.1604  1.3727  0.9181
  146OCT    H22 3777   2.154   2.862   2.306 -0.6473 -0.7890  2.3066
  146OCT     C3 3778   2.147   2.904   2.505 -0.3251 -0.6853  0.1404
  146OCT    H31 3779   2.039   2.928   2.505 -0.6805 -2.2106 -3.7617
  146OCT    H32 3780   2.179   2.851   2.598  1.3249  1.0535  1.7713
  146OCT     C4 3781   2.208   3.039   2.485 -0.3711 -0.4836  0.0967
  146OCT    H41 3782   2.320   3.039   2.486 -4.1626 -0.1124 -2.0427
  146OCT    H42 3783   2.178   3.096   2.396 -1.1269  0.4851  0.8917
  146OCT     C5 3784   2.168   3.120   2.607 -0.3832  0.2900  0.0228
  146OCT    H51 3785   2.055   3.102   2.625 -1.5350  0.4267 -1.0011
  146OCT    H52 3786   2.220   3.084   2.691 -3.2146  0.5977  0.0742
  146OCT     C6 3787   2.188   3.276   2.589 -0.2377 -0.2519  0.3815
  146OCT    H61 3788   2.139   3.302   2.492  0.0168 -1.5682 -0.8421
  146OCT    H62 3789   2.130   3.326   2.665  3.1469 -1.2866 -0.2004
  146OCT     C7 3790   2.328   3.333   2.584 -0.0223  0.3586  0.5616
  146OCT    H71 3791   2.390   3.279   2.505  0.2724 -1.4640  1.0711
  146OCT    H72 3792   2.318   3.445   2.558 -1.3778  1.3249 -1.2092
  146OCT     C8 3793   2.403   3.326   2.717  0.2953  0.3879 -0.3218
  146OCT    H81 3794   2.366   3.403   2.789 -0.9329 -0.9137  0.8838
  146OCT    H82 3795   2.395   3.229   2.766 -0.0441 -0.0867 -0.5567
  146OCT    H83 3796   2.509   3.334   2.694 -2.0302  1.7830  0.3107
  147OCT     C1 3797   0.904   0.737   0.289 -0.2974  0.6394  0.5106
  147OCT    H11 3798   1.014   0.755   0.320  0.7722  0.1643 -0.6875
  147OCT    H12 3799   0.847   0.822   0.322 -0.4588 -0.7195 -3.3608
  147OCT    H13 3800   0.868   0.635   0.317 -0.0048 -1.9026 -1.7211
  147OCT     C2 3801   0.918   0.733   0.138  0.2401  0.1724 -0.4774
  147OCT    H21 3802   0.947   0.834   0.112  2.2773  1.2200  0.0579
  147OCT    H22 3803   1.000   0.659   0.098 -0.8683 -2.3927 -1.1145
  147OCT     C3 3804   0.783   0.681   0.077  0.0959  0.4269  0.0351
  147OCT    H31 3805   0.776   0.579   0.115  3.3930  0.7826  1.1856
  147OCT    H32 3806   0.693   0.728   0.128  0.1851  2.1365 -1.4822
  147OCT     C4 3807   0.770   0.686  -0.073  0.3668 -0.6131  0.1001
  147OCT    H41 3808   0.863   0.632  -0.115  2.3334 -0.2560 -0.3794
  147OCT    H42 3809   0.679   0.640  -0.105  2.6509  1.3693  2.4054
  147OCT     C5 3810   0.765   0.825  -0.143  0.1963 -0.3112 -0.6519
  147OCT    H51 3811   0.683   0.893  -0.102 -1.3879 -2.4736  0.1451
  147OCT    H52 3812   0.858   0.878  -0.121 -0.0658  0.3493  1.3217
  147OCT     C6 3813   0.743   0.811  -0.294  0.1495 -0.7181  0.8116
  147OCT    H61 3814   0.839   0.763  -0.330  0.4247 -1.6422  0.9148
  147OCT    H62 3815   0.661   0.739  -0.300  2.2985  1.1118 -0.4835
  147OCT     C7 3816   0.701   0.936  -0.362  0.4918 -0.1408 -0.1332
  147OCT    H71 3817   0.696   0.919  -0.477  1.9575 -1.8930 -0.2600
  147OCT    H72 3818   0.590   0.957  -0.331 -0.6864  0.4245  1.3583
  147OCT     C8 3819   0.775   1.068  -0.322  0.1627 -0.1734 -0.2338
  147OCT    H81 3820   0.745   1.144  -0.393  0.1399 -0.5360  1.3375
  147OCT    H82 3821   0.748   1.090  -0.213  2.3943 -1.5862  2.6804
  147OCT    H83 3822   0.882   1.054  -0.329 -1.6988  0.1445  0.0481
  148OCT     C1 3823   0.074   2.439   3.912  0.8884  0.2504 -0.4616
  148OCT    H11 3824   0.102   2.464   4.019 -0.1781  2.7608  1.6733
  148OCT    H12 3825  -0.017   2.375   3.904  0.1540 -0.0952 -2.4956
  148OCT    H13 3826   0.143   2.376   3.858 -1.1382 -2.5599 -2.4886
  148OCT     C2 3827   0.051   2.573   3.837 -0.2071 -0.4736 -0.8204
  148OCT    H21 3828   0.149   2.627   3.857  0.1918  0.0428 -0.3065
  148OCT    H22 3829   0.039   2.553   3.731  1.2120 -0.3504  0.1186
  148OCT     C3 3830  -0.071   2.661   3.888 -0.0431  0.2184  0.5499
  148OCT    H31 3831  -0.062   2.684   3.994 -0.3470 -0.7742 -2.2244
  148OCT    H32 3832  -0.076   2.757   3.836 -1.7432  1.1852 -1.2418
  148OCT     C4 3833  -0.203   2.587   3.857  0.4564  0.1279 -0.6810
  148OCT    H41 3834  -0.203   2.566   3.748 -1.2009 -1.0725 -1.1822
  148OCT    H42 3835  -0.211   2.487   3.915 -3.1753 -2.2317 -0.6665
  148OCT     C5 3836  -0.337   2.664   3.882 -0.1927  0.4953  0.0177
  148OCT    H51 3837  -0.334   2.703   3.985 -0.6279 -1.4782 -1.1380
  148OCT    H52 3838  -0.340   2.757   3.818 -1.8171  0.3109 -0.2379
  148OCT     C6 3839  -0.464   2.591   3.839 -0.4220 -0.1644 -0.6926
  148OCT    H61 3840  -0.540   2.671   3.857  4.2415 -0.7315 -0.2194
  148OCT    H62 3841  -0.455   2.592   3.730 -2.2051  0.5531  0.2125
  148OCT     C7 3842  -0.489   2.455   3.910  0.5409 -0.2890 -0.0599
  148OCT    H71 3843  -0.394   2.400   3.879  0.6182 -1.3010 -0.5622
  148OCT    H72 3844  -0.490   2.482   4.016 -2.9876  1.4307 -1.0850
  148OCT     C8 3845  -0.622   2.379   3.868  0.4480 -0.0673 -0.8179
  148OCT    H81 3846  -0.613   2.270   3.885  2.1621 -0.5054  0.3517
  148OCT    H82 3847  -0.719   2.424   3.905 -2.7921 -0.9137  1.8528
  148OCT    H83 3848  -0.627   2.385   3.763 -0.4483  2.6496  1.9112
  149OCT     C1 3849   3.090   0.808   1.047  0.5927  0.4578  0.1635
  149OCT    H11 3850   3.141   0.720   1.091 -2.3815 -1.0351  0.1355
  149OCT    H12 3851   3.066   0.785   0.935  1.5801  0.6824  0.2708
  149OCT    H13 3852   3.159   0.892   1.041  1.1036  1.8603  0.2598
  149OCT     C2 3853   2.962   0.821   1.137  0.7431 -0.1800  0.5365
  149OCT    H21 3854   2.893   0.891   1.084  0.9018  0.4509 -0.3713
  149OCT    H22 3855   2.909   0.723   1.133  0.3968 -1.7381 -0.1482
  149OCT     C3 3856   2.988   0.856   1.282 -0.5590 -0.3787 -0.1286
  149OCT    H31 3857   2.897   0.829   1.342  0.3286  2.8483  0.1410
  149OCT    H32 3858   3.069   0.805   1.333  0.5279  2.0021  0.9598
  149OCT     C4 3859   3.017   1.007   1.304  0.5259  0.7173 -0.0198
  149OCT    H41 3860   3.119   1.018   1.276 -0.8227 -0.6035  0.4895
  149OCT    H42 3861   2.955   1.070   1.236 -0.5045  2.8526 -1.4611
  149OCT     C5 3862   3.009   1.056   1.449  0.7399  0.2606  0.6913
  149OCT    H51 3863   3.028   1.161   1.452 -1.3970 -3.6089  1.2018
  149OCT    H52 3864   2.911   1.036   1.487  2.3282 -1.3849  0.5482
  149OCT     C6 3865   3.113   1.008   1.538 -0.3897  0.9682  0.0748
  149OCT    H61 3866   3.107   0.902   1.541 -0.1999  0.6951 -1.1702
  149OCT    H62 3867   3.220   1.027   1.501  3.5956 -0.6779 -1.7977
  149OCT     C7 3868   3.100   1.055   1.682 -0.1159 -0.2276  0.0830
  149OCT    H71 3869   3.111   1.172   1.683 -1.0318  1.8125 -0.4189
  149OCT    H72 3870   3.003   1.029   1.718 -1.4197  0.5208 -0.0935
  149OCT     C8 3871   3.211   0.999   1.774  0.5833 -0.3019 -0.4921
  149OCT    H81 3872   3.317   1.014   1.743  1.6702  0.4800  0.0048
  149OCT    H82 3873   3.199   1.061   1.867  1.7127  0.1946  0.0964
  149OCT    H83 3874   3.192   0.895   1.790 -2.2446  1.5516 -0.4752
  150OCT     C1 3875   4.313   1.019   1.538 -0.1446 -0.2979  0.1199
  150OCT    H11 3876   4.418   1.059   1.514  0.5177 -0.8593 -2.9526
  150OCT    H12 3877   4.323   0.931   1.600  0.4630 -0.3015  1.3840
  150OCT    H13 3878   4.285   0.994   1.440  1.6985 -0.1884  0.1736
  150OCT     C2 3879   4.221   1.134   1.592  0.0267 -0.2861 -0.0093
  150OCT    H21 3880   4.207   1.197   1.502  0.0746 -1.2342  1.2676
  150OCT    H22 3881   4.121   1.093   1.629  0.3470 -0.1936  0.6599
  150OCT     C3 3882   4.287   1.229   1.692 -0.2189  0.0559 -0.3075
  150OCT    H31 3883   4.324   1.168   1.773  2.0926  1.8615 -0.1291
  150OCT    H32 3884   4.371   1.281   1.643 -0.7712 -0.0341  2.3721
  150OCT     C4 3885   4.190   1.344   1.728  0.2444  0.1733 -0.7693
  150OCT    H41 3886   4.171   1.403   1.637 -0.4525  0.7672  1.6352
  150OCT    H42 3887   4.102   1.292   1.764 -1.7960  2.6249 -0.9413
  150OCT     C5 3888   4.232   1.443   1.837 -0.2314  0.0744  0.0365
  150OCT    H51 3889   4.154   1.499   1.880  3.4259 -1.3696 -0.6859
  150OCT    H52 3890   4.271   1.385   1.929 -2.6577 -2.2722  1.8914
  150OCT     C6 3891   4.345   1.544   1.801 -0.2214  0.2295  0.0274
  150OCT    H61 3892   4.430   1.483   1.782 -1.6450  0.8650 -0.7140
  150OCT    H62 3893   4.334   1.594   1.709  1.6104 -0.1001  0.6795
  150OCT     C7 3894   4.373   1.654   1.914 -0.6887  0.3691  0.3231
  150OCT    H71 3895   4.278   1.705   1.930  1.1809 -2.1671  1.3568
  150OCT    H72 3896   4.393   1.607   2.008 -3.4051  0.4350 -0.4050
  150OCT     C8 3897   4.478   1.754   1.872 -1.2144 -0.2319  0.3639
  150OCT    H81 3898   4.571   1.706   1.836 -0.0128  0.2344 -0.8906
  150OCT    H82 3899   4.441   1.810   1.783  0.3790  3.4633 -1.0481
  150OCT    H83 3900   4.487   1.829   1.958  0.8483 -0.6758  1.9480
  151OCT     C1 3901   3.185   0.394   0.532 -0.3311 -0.1461  0.1950
  151OCT    H11 3902   3.162   0.312   0.593 -2.1790  0.2027 -3.2453
  151OCT    H12 3903   3.080   0.437   0.514 -1.9091  0.1096  0.0791
  151OCT    H13 3904   3.223   0.359   0.438 -0.9818 -0.0942  3.1095
  151OCT     C2 3905   3.277   0.493   0.598  0.3559 -0.5966  0.4848
  151OCT    H21 3906   3.239   0.532   0.697  0.3617  0.7766 -0.9250
  151OCT    H22 3907   3.379   0.452   0.626  1.2009 -1.7826 -0.2180
  151OCT     C3 3908   3.316   0.605   0.491 -0.3435 -0.7651 -0.9609
  151OCT    H31 3909   3.375   0.558   0.413  1.2772 -0.8175  0.7059
  151OCT    H32 3910   3.223   0.637   0.443  0.9447 -0.1947  4.3467
  151OCT     C4 3911   3.402   0.719   0.547  0.0001 -0.4667  0.0512
  151OCT    H41 3912   3.348   0.785   0.625 -0.6031  3.8107  1.2086
  151OCT    H42 3913   3.496   0.685   0.599  0.6295  0.0548  1.8858
  151OCT     C5 3914   3.421   0.822   0.437 -0.3591  0.3298 -0.1631
  151OCT    H51 3915   3.472   0.773   0.351 -2.2808  0.8751  1.2745
  151OCT    H52 3916   3.312   0.845   0.410 -2.9252  0.7076 -0.0168
  151OCT     C6 3917   3.484   0.950   0.482 -0.2808  0.2003 -0.2584
  151OCT    H61 3918   3.470   1.031   0.406 -2.0446 -0.1589  3.3108
  151OCT    H62 3919   3.427   0.992   0.565  1.5340 -0.7636 -1.1900
  151OCT     C7 3920   3.636   0.942   0.526 -0.1687  0.4481 -0.3097
  151OCT    H71 3921   3.631   0.854   0.597  2.1976  0.0276 -0.7237
  151OCT    H72 3922   3.696   0.910   0.435  0.0237  0.5377 -1.0862
  151OCT     C8 3923   3.703   1.064   0.585  0.9560  0.7068 -0.7450
  151OCT    H81 3924   3.812   1.051   0.579  0.3111  0.3781  1.0384
  151OCT    H82 3925   3.677   1.159   0.537  0.1530 -1.8850  1.8328
  151OCT    H83 3926   3.689   1.074   0.695 -0.5956  0.5190  0.6468
  152OCT     C1 3927   1.932   3.571   2.679 -0.3787  0.3986 -0.1014
  152OCT    H11 3928   1.885   3.502   2.605  2.5587 -1.4723 -0.6829
  152OCT    H12 3929   1.969   3.493   2.754  0.0611 -0.5334 -0.2644
  152OCT    H13 3930   1.859   3.640   2.723  0.8154  1.6390 -1.7843
  152OCT     C2 3931   2.057   3.645   2.626  0.4053 -0.1151  0.1087
  152OCT    H21 3932   2.123   3.573   2.577  1.0303  2.4087  1.0847
  152OCT    H22 3933   2.015   3.720   2.548 -0.5411  0.1685 -3.7560
  152OCT     C3 3934   2.131   3.715   2.738 -0.2228 -0.0036 -0.3065
  152OCT    H31 3935   2.084   3.791   2.805 -3.3476 -2.0281  0.8234
  152OCT    H32 3936   2.152   3.637   2.819 -0.3246 -3.5940  1.9010
  152OCT     C4 3937   2.252   3.780   2.678 -0.3522 -0.3705  0.0836
  152OCT    H41 3938   2.327   3.820   2.753 -0.9232  0.0143  0.6792
  152OCT    H42 3939   2.313   3.711   2.614  1.6940 -0.2148  1.4506
  152OCT     C5 3940   2.211   3.901   2.578  0.0491 -0.9792 -0.3160
  152OCT    H51 3941   2.157   3.857   2.493  0.7505  0.0116  0.9670
  152OCT    H52 3942   2.131   3.959   2.628 -0.9734 -1.9697  1.2467
  152OCT     C6 3943   2.332   3.973   2.520 -0.0275  0.2799  0.1084
  152OCT    H61 3944   2.407   3.894   2.468  2.1708 -1.8430 -1.7545
  152OCT    H62 3945   2.294   4.041   2.442  0.3841  0.1796 -0.0486
  152OCT     C7 3946   2.411   4.040   2.632  0.2794 -0.2187  1.2975
  152OCT    H71 3947   2.344   4.107   2.695 -0.2458  0.3486  2.7217
  152OCT    H72 3948   2.455   3.959   2.699 -2.2315 -0.3095  0.1456
  152OCT     C8 3949   2.529   4.129   2.584  0.4406 -0.3163 -0.8492
  152OCT    H81 3950   2.490   4.225   2.546  0.3603  0.3841  1.5029
  152OCT    H82 3951   2.604   4.144   2.655 -0.0350  0.4264 -1.1558
  152OCT    H83 3952   2.579   4.080   2.493  0.8316 -1.3402  0.0446
  153OCT     C1 3953   4.276   0.801   3.397  0.0955 -0.1194 -0.1082
  153OCT    H11 3954   4.380   0.765   3.405 -0.4905  0.9293 -0.8642
  153OCT    H12 3955   4.290   0.906   3.435  0.5875 -0.1356 -2.0677
  153OCT    H13 3956   4.216   0.736   3.469 -1.1547 -0.0455 -1.2357
  153OCT     C2 3957   4.221   0.800   3.258  0.2204  0.0318 -0.4321
  153OCT    H21 3958   4.302   0.862   3.210  1.4213  0.6753 -1.3110
  153OCT    H22 3959   4.226   0.698   3.208 -2.8165  0.0266 -0.5045
  153OCT     C3 3960   4.085   0.858   3.252 -0.3374 -0.3031 -1.2269
  153OCT    H31 3961   4.014   0.786   3.303 -2.7990 -0.1534 -1.3340
  153OCT    H32 3962   4.091   0.955   3.299  2.2869  0.4727 -2.0357
  153OCT     C4 3963   4.045   0.872   3.109 -0.6114 -0.4338  0.0776
  153OCT    H41 3964   4.089   0.964   3.056  3.0540  0.8408 -0.0387
  153OCT    H42 3965   4.084   0.780   3.061  1.6800  0.1785  1.5709
  153OCT     C5 3966   3.901   0.902   3.078 -0.4666  0.5841 -0.8839
  153OCT    H51 3967   3.833   0.816   3.113 -3.9205  0.7406  3.4967
  153OCT    H52 3968   3.878   0.984   3.152  0.4107  0.1109  0.9800
  153OCT     C6 3969   3.881   0.947   2.935 -0.5728  0.5213 -0.4364
  153OCT    H61 3970   3.856   1.052   2.942 -0.6818 -2.1270  1.0803
  153OCT    H62 3971   3.975   0.942   2.878  0.5547 -0.8155 -1.5104
  153OCT     C7 3972   3.780   0.855   2.859 -0.1253  0.2152  0.1740
  153OCT    H71 3973   3.762   0.746   2.892 -1.1516 -0.3138 -0.4381
  153OCT    H72 3974   3.685   0.896   2.901  0.9118 -0.1784 -0.2243
  153OCT     C8 3975   3.772   0.854   2.708  0.0192  0.2023 -0.2501
  153OCT    H81 3976   3.740   0.954   2.674  1.6210  1.1224 -0.0800
  153OCT    H82 3977   3.876   0.828   2.672  0.8440 -2.0798 -3.6965
  153OCT    H83 3978   3.700   0.773   2.669 -1.0397  1.2667  0.1231
  154OCT     C1 3979   0.723   1.861   0.837  1.1213 -0.0419  0.6847
  154OCT    H11 3980   0.830   1.845   0.872  1.2940 -1.8667  2.3864
  154OCT    H12 3981   0.713   1.947   0.763  0.7635  0.8070 -1.1471
  154OCT    H13 3982   0.657   1.883   0.921 -1.2305 -1.1823  0.7176
  154OCT     C2 3983   0.673   1.736   0.760 -0.0021  0.1937 -0.4168
  154OCT    H21 3984   0.750   1.715   0.677 -0.5064  0.9351 -1.5527
  154OCT    H22 3985   0.682   1.642   0.823  1.6870  1.1637  1.6862
  154OCT     C3 3986   0.531   1.737   0.701 -0.1016 -0.0993  0.2367
  154OCT    H31 3987   0.460   1.741   0.784  0.3786  2.6280  0.3715
  154OCT    H32 3988   0.513   1.824   0.641  2.7064 -0.6669  2.1429
  154OCT     C4 3989   0.495   1.621   0.617 -0.1627 -0.0233 -0.1883
  154OCT    H41 3990   0.547   1.618   0.513  1.9609  0.9192  1.1683
  154OCT    H42 3991   0.517   1.531   0.669 -0.9145  2.9433 -0.6779
  154OCT     C5 3992   0.342   1.622   0.580 -0.0939  0.5834  0.0273
  154OCT    H51 3993   0.270   1.645   0.665  1.1662  2.8049 -0.0225
  154OCT    H52 3994   0.323   1.694   0.506 -2.1561  1.0842  0.7501
  154OCT     C6 3995   0.291   1.484   0.536 -0.4523 -0.6676  0.2039
  154OCT    H61 3996   0.363   1.464   0.449 -1.0208  1.1779 -0.1971
  154OCT    H62 3997   0.307   1.410   0.618  0.4333 -1.2563  1.4844
  154OCT     C7 3998   0.147   1.477   0.481  0.2388 -0.1872  0.1371
  154OCT    H71 3999   0.075   1.509   0.561  1.2129 -0.8828 -0.9960
  154OCT    H72 4000   0.133   1.560   0.397  0.1499  2.8030 -1.9527
  154OCT     C8 4001   0.101   1.338   0.443  0.0351 -0.5334 -0.0102
  154OCT    H81 4002   0.118   1.273   0.530  1.5106  0.9473  1.2369
  154OCT    H82 4003  -0.008   1.349   0.436 -0.5646 -0.0724  0.0879
  154OCT    H83 4004   0.147   1.304   0.343  0.3574 -0.1857 -0.7855
  155OCT     C1 4005   2.228   3.324   0.242 -0.1528 -0.3406  0.4976
  155OCT    H11 4006   2.237   3.252   0.155  0.1154 -1.1107  1.7026
  155OCT    H12 4007   2.304   3.291   0.319 -0.1480  1.4203  0.0543
  155OCT    H13 4008   2.124   3.323   0.271 -0.6318  1.8931 -0.5086
  155OCT     C2 4009   2.271   3.471   0.198 -0.4933  0.9890  0.4292
  155OCT    H21 4010   2.199   3.512   0.122  0.8388  0.0265 -0.7753
  155OCT    H22 4011   2.253   3.538   0.283  0.7704  0.8827  0.5871
  155OCT     C3 4012   2.402   3.465   0.119  0.2272  0.3097 -0.1507
  155OCT    H31 4013   2.404   3.386   0.042  1.1407  0.6109  1.6448
  155OCT    H32 4014   2.408   3.559   0.064  1.8785 -2.0932 -0.0249
  155OCT     C4 4015   2.528   3.462   0.209 -0.3366  1.2338  0.5363
  155OCT    H41 4016   2.530   3.550   0.269  0.3078 -1.4546 -2.3189
  155OCT    H42 4017   2.521   3.373   0.275 -3.8175 -3.3109  0.6496
  155OCT     C5 4018   2.664   3.452   0.130  0.1627  0.4692  0.3107
  155OCT    H51 4019   2.684   3.334   0.122 -3.0188 -2.2151  2.4231
  155OCT    H52 4020   2.640   3.490   0.026 -1.2830 -2.2396 -0.9583
  155OCT     C6 4021   2.777   3.515   0.196 -0.8859  0.3674 -1.0774
  155OCT    H61 4022   2.780   3.480   0.305 -2.5066 -1.5867 -1.8497
  155OCT    H62 4023   2.879   3.483   0.154  2.9096 -0.3381 -0.7747
  155OCT     C7 4024   2.779   3.670   0.179  0.0513 -0.4904  0.5529
  155OCT    H71 4025   2.774   3.691   0.071  0.5741 -2.4038  0.4157
  155OCT    H72 4026   2.683   3.710   0.220  2.3901  1.4716 -0.3224
  155OCT     C8 4027   2.897   3.747   0.238 -0.0491 -0.0634 -0.1972
  155OCT    H81 4028   2.989   3.721   0.183 -0.5131  2.3198 -0.4171
  155OCT    H82 4029   2.887   3.861   0.228  1.0852  2.9285 -0.4131
  155OCT    H83 4030   2.905   3.721   0.344  0.1735 -0.2211 -1.0405
  156OCT     C1 4031   2.928   2.749   3.145 -0.0797  0.3950  0.6836
  156OCT    H11 4032   2.847   2.792   3.079 -0.5067 -2.8681 -2.4811
  156OCT    H12 4033   2.925   2.641   3.120 -3.2725  0.6614  1.7066
  156OCT    H13 4034   2.909   2.750   3.256  1.3998  0.2690  3.0048
  156OCT     C2 4035   3.072   2.803   3.123  0.5909  0.8109  0.5390
  156OCT    H21 4036   3.139   2.731   3.173  0.6732  0.0668 -0.9350
  156OCT    H22 4037   3.095   2.805   3.014 -1.8252  1.0278  0.3554
  156OCT     C3 4038   3.099   2.944   3.168 -0.6137 -0.3370  0.1806
  156OCT    H31 4039   3.109   2.957   3.283 -0.0035  0.3216 -0.3611
  156OCT    H32 4040   3.200   2.977   3.140 -0.8664  1.0316  1.5832
  156OCT     C4 4041   3.010   3.051   3.107  0.7577 -0.2760  0.4457
  156OCT    H41 4042   3.038   3.071   2.999  2.7198 -1.8952  1.4693
  156OCT    H42 4043   2.911   3.022   3.101 -0.7758  2.4394 -3.1193
  156OCT     C5 4044   3.022   3.192   3.166 -0.6682  0.4184 -0.2587
  156OCT    H51 4045   2.974   3.201   3.274 -0.6328 -0.5452  3.8423
  156OCT    H52 4046   3.128   3.204   3.178 -0.0173 -0.9784  1.4722
  156OCT     C6 4047   2.977   3.307   3.071  1.4093  0.1665 -0.4292
  156OCT    H61 4048   3.032   3.313   2.974  0.0950  3.4907 -0.6295
  156OCT    H62 4049   2.870   3.279   3.041 -0.3409 -2.9036  0.6690
  156OCT     C7 4050   2.982   3.441   3.150  0.0741 -0.1441  0.4634
  156OCT    H71 4051   2.918   3.431   3.235  0.7723  0.2825 -4.0341
  156OCT    H72 4052   3.084   3.458   3.184 -0.7820  0.2959 -1.0626
  156OCT     C8 4053   2.935   3.557   3.065  0.2250  0.3935  0.3102
  156OCT    H81 4054   2.971   3.651   3.115  0.6492  1.7371 -2.7464
  156OCT    H82 4055   2.976   3.551   2.966 -0.2881 -0.6101 -0.7307
  156OCT    H83 4056   2.825   3.567   3.059 -1.5648 -1.9185  0.4181
  157OCT     C1 4057   4.102   0.859   4.255  0.0407  0.3989 -0.0943
  157OCT    H11 4058   4.088   0.795   4.162  0.6995  0.2030 -1.7408
  157OCT    H12 4059   4.105   0.968   4.223  2.5441  1.1536 -4.3045
  157OCT    H13 4060   4.207   0.840   4.295  0.6734 -2.2794 -0.8293
  157OCT     C2 4061   4.009   0.809   4.365 -0.0928  0.0767  0.3384
  157OCT    H21 4062   4.028   0.863   4.461 -1.2278  1.1775  1.9312
  157OCT    H22 4063   3.895   0.829   4.335 -0.6181 -1.0357  2.7176
  157OCT     C3 4064   4.015   0.656   4.395 -0.1167 -0.4228  0.0188
  157OCT    H31 4065   3.965   0.595   4.306 -2.7633 -3.4941 -0.6731
  157OCT    H32 4066   4.114   0.620   4.422 -0.3446  0.6951 -0.8129
  157OCT     C4 4067   3.916   0.612   4.505  0.3475 -0.7432 -0.2321
  157OCT    H41 4068   3.948   0.670   4.592 -0.2565 -0.9353 -0.0119
  157OCT    H42 4069   3.815   0.653   4.469  0.5332  2.1949 -0.1085
  157OCT     C5 4070   3.908   0.463   4.531 -0.2146 -0.1992 -0.6260
  157OCT    H51 4071   3.852   0.455   4.630 -0.5998 -1.1963  0.8310
  157OCT    H52 4072   3.852   0.413   4.453  0.2812  0.9776 -1.9348
  157OCT     C6 4073   4.044   0.401   4.544 -0.4124 -0.3884 -0.4184
  157OCT    H61 4074   4.086   0.372   4.445  1.1979  1.1475 -0.7961
  157OCT    H62 4075   4.107   0.474   4.602  0.3230  0.6988  2.1555
  157OCT     C7 4076   4.049   0.276   4.632 -0.0830  0.1583  0.1294
  157OCT    H71 4077   4.153   0.227   4.644  2.0415 -0.5975  1.1917
  157OCT    H72 4078   4.028   0.308   4.740  0.0131  0.5554  0.4971
  157OCT     C8 4079   3.945   0.172   4.597  0.4634  0.2191 -0.3371
  157OCT    H81 4080   3.965   0.126   4.490  2.1519 -3.0411  0.4222
  157OCT    H82 4081   3.951   0.079   4.652 -0.5236 -1.6343 -0.9558
  157OCT    H83 4082   3.839   0.208   4.598 -0.5462 -0.9968  3.7549
  158OCT     C1 4083   2.352   1.209   2.119 -0.2846  0.2056 -0.9181
  158OCT    H11 4084   2.427   1.187   2.051 -0.2614 -0.6061  1.6281
  158OCT    H12 4085   2.371   1.157   2.212 -1.9723 -2.8962 -0.8313
  158OCT    H13 4086   2.260   1.165   2.070  0.0674 -1.5416  1.6676
  158OCT     C2 4087   2.324   1.361   2.139 -0.3450  0.3400  0.4354
  158OCT    H21 4088   2.418   1.417   2.148  0.0244  1.3898  0.6449
  158OCT    H22 4089   2.267   1.403   2.056 -0.3442 -0.4727  2.1768
  158OCT     C3 4090   2.228   1.385   2.259  0.2765 -0.0806 -0.2669
  158OCT    H31 4091   2.136   1.322   2.242  0.2633 -2.3911  1.4954
  158OCT    H32 4092   2.277   1.333   2.348  1.0933 -0.6566 -0.4038
  158OCT     C4 4093   2.188   1.526   2.297  0.0663 -0.7262  0.1665
  158OCT    H41 4094   2.121   1.570   2.223  1.1080 -0.8408  0.3688
  158OCT    H42 4095   2.130   1.528   2.394  0.7341 -0.2080 -1.0183
  158OCT     C5 4096   2.312   1.617   2.326 -0.0252 -0.1882  0.3805
  158OCT    H51 4097   2.369   1.557   2.398 -0.2202 -2.4253 -1.4531
  158OCT    H52 4098   2.363   1.632   2.227  0.4756 -0.1594 -1.1625
  158OCT     C6 4099   2.291   1.758   2.380 -0.3920 -0.1869 -0.9616
  158OCT    H61 4100   2.272   1.751   2.496 -1.6046 -1.7342  3.1609
  158OCT    H62 4101   2.385   1.814   2.369 -0.8049  1.0260 -0.5280
  158OCT     C7 4102   2.168   1.835   2.333 -0.6862 -0.2708 -0.5838
  158OCT    H71 4103   2.172   1.867   2.228 -0.9143 -2.7189  1.2103
  158OCT    H72 4104   2.073   1.778   2.346  0.0765  3.6354  0.7674
  158OCT     C8 4105   2.148   1.968   2.415  0.0066  0.9064  0.2186
  158OCT    H81 4106   2.054   2.019   2.387  0.1526 -1.5484 -0.6125
  158OCT    H82 4107   2.143   1.945   2.520 -0.4468 -1.5246  0.5933
  158OCT    H83 4108   2.237   2.032   2.403 -3.7655 -1.0904 -0.5269
  159OCT     C1 4109   1.958   1.048   2.076  0.0373  0.4162  0.0913
  159OCT    H11 4110   2.039   1.082   2.003  2.8327  0.5265  2.7644
  159OCT    H12 4111   2.005   0.989   2.162 -0.8627  1.9831 -0.1791
  159OCT    H13 4112   1.885   0.980   2.039  3.4325  2.5606  2.3347
  159OCT     C2 4113   1.886   1.169   2.140 -1.3241 -0.1150 -0.1521
  159OCT    H21 4114   1.799   1.140   2.205  1.1120 -2.1899  0.2320
  159OCT    H22 4115   1.959   1.218   2.209 -1.0241 -0.6532  2.6957
  159OCT     C3 4116   1.831   1.275   2.043  0.1549  0.2848 -0.1673
  159OCT    H31 4117   1.752   1.236   1.979  2.1994 -0.8341  0.9599
  159OCT    H32 4118   1.773   1.346   2.108 -2.0480  1.2919  1.1531
  159OCT     C4 4119   1.936   1.357   1.973  0.5010 -0.8592 -0.0062
  159OCT    H41 4120   2.009   1.387   2.053  1.5719 -1.5720 -0.8979
  159OCT    H42 4121   1.995   1.286   1.915  0.4351  1.0446 -0.9900
  159OCT     C5 4122   1.875   1.475   1.897 -0.0319  0.6914 -0.0184
  159OCT    H51 4123   1.819   1.438   1.812  0.8951 -3.4217  0.7048
  159OCT    H52 4124   1.815   1.544   1.961 -0.7733  0.7792 -1.0597
  159OCT     C6 4125   1.980   1.553   1.820  0.4694 -0.3897 -0.2602
  159OCT    H61 4126   2.019   1.478   1.753 -0.9251 -0.8230  0.0068
  159OCT    H62 4127   1.938   1.646   1.763 -0.7407  1.3058 -1.3902
  159OCT     C7 4128   2.095   1.597   1.909 -0.0597 -0.5506  0.2081
  159OCT    H71 4129   2.062   1.637   2.004  0.3823  1.9173 -1.0169
  159OCT    H72 4130   2.154   1.507   1.930  0.1113 -1.1312 -3.2147
  159OCT     C8 4131   2.180   1.709   1.842 -0.0725 -0.2783  0.4293
  159OCT    H81 4132   2.237   1.672   1.755 -0.7323  0.2708  0.3900
  159OCT    H82 4133   2.103   1.784   1.808  1.3800 -1.5744  1.1815
  159OCT    H83 4134   2.258   1.751   1.904  0.0169 -1.4561 -2.1800
  160OCT     C1 4135   2.118   0.475   2.729 -0.1723  0.0161 -0.2244
  160OCT    H11 4136   2.024   0.419   2.728 -0.1991 -0.9576  0.0889
  160OCT    H12 4137   2.208   0.411   2.745  0.5409  1.9452 -2.2890
  160OCT    H13 4138   2.094   0.554   2.806 -2.0947 -1.4765 -0.4879
  160OCT     C2 4139   2.141   0.541   2.591  0.1078 -0.3021 -0.6300
  160OCT    H21 4140   2.124   0.460   2.520 -1.7355 -1.8513  1.1754
  160OCT    H22 4141   2.060   0.620   2.576  2.2945  0.8346  2.6862
  160OCT     C3 4142   2.274   0.612   2.574  0.8035  0.3147 -0.3708
  160OCT    H31 4143   2.315   0.656   2.671  0.6187 -1.2238  0.5218
  160OCT    H32 4144   2.348   0.525   2.565 -3.1615 -3.5943  0.7251
  160OCT     C4 4145   2.274   0.697   2.447  0.0837  0.1611  0.6409
  160OCT    H41 4146   2.209   0.646   2.370  2.0437 -3.2898 -2.2482
  160OCT    H42 4147   2.219   0.790   2.475 -0.8378  2.6942  1.7526
  160OCT     C5 4148   2.409   0.721   2.393  0.5648  0.4046 -0.5840
  160OCT    H51 4149   2.467   0.776   2.465 -1.9787 -1.6773 -2.2162
  160OCT    H52 4150   2.460   0.623   2.388 -2.8565 -0.2990  0.3030
  160OCT     C6 4151   2.401   0.810   2.269 -0.3487 -0.7516 -0.0853
  160OCT    H61 4152   2.361   0.916   2.288  0.9821  1.4124  1.7181
  160OCT    H62 4153   2.513   0.829   2.243  3.4088  0.3693 -0.7144
  160OCT     C7 4154   2.324   0.749   2.150 -0.3219 -0.3220  0.1285
  160OCT    H71 4155   2.352   0.646   2.131 -0.9413 -0.2306  1.2005
  160OCT    H72 4156   2.216   0.759   2.177  0.6524  2.0757 -0.9936
  160OCT     C8 4157   2.354   0.825   2.018 -0.3653  0.1797  0.3057
  160OCT    H81 4158   2.460   0.806   1.991  0.4546  0.4753 -0.9524
  160OCT    H82 4159   2.293   0.782   1.934 -1.0289 -0.2230 -2.0352
  160OCT    H83 4160   2.337   0.934   2.024 -0.5129 -0.4167 -1.7126
  161OCT     C1 4161   2.423   2.680   3.750  0.3325  0.1506  0.5619
  161OCT    H11 4162   2.327   2.702   3.805  0.2122 -0.1283  3.4740
  161OCT    H12 4163   2.397   2.639   3.654  0.6717  1.4277  0.2470
  161OCT    H13 4164   2.468   2.598   3.817  1.1330 -3.0475 -0.3941
  161OCT     C2 4165   2.516   2.801   3.749  0.1644  0.5641 -0.9493
  161OCT    H21 4166   2.514   2.836   3.852 -1.2215  0.1628 -2.4569
  161OCT    H22 4167   2.622   2.765   3.727  1.0793 -2.4408 -1.2151
  161OCT     C3 4168   2.493   2.916   3.653  0.2082 -0.8214  0.5634
  161OCT    H31 4169   2.388   2.952   3.664 -1.1811  1.6170  1.7528
  161OCT    H32 4170   2.564   2.993   3.688 -2.5644 -1.1189 -2.8867
  161OCT     C4 4171   2.514   2.887   3.506 -0.2958 -1.0499 -0.0363
  161OCT    H41 4172   2.621   2.866   3.491 -3.5126  1.2041  1.7266
  161OCT    H42 4173   2.445   2.805   3.478 -0.9445  0.5672 -0.9858
  161OCT     C5 4174   2.481   3.011   3.417 -0.2166 -0.0829  0.5986
  161OCT    H51 4175   2.533   2.981   3.319  0.2227 -0.7189 -0.8579
  161OCT    H52 4176   2.371   3.017   3.393  0.4025 -0.0168 -2.2692
  161OCT     C6 4177   2.545   3.138   3.464  0.9630 -0.0621 -0.1529
  161OCT    H61 4178   2.473   3.178   3.533  0.4461 -0.3037 -0.9137
  161OCT    H62 4179   2.639   3.118   3.518 -1.4251 -2.6319 -0.7203
  161OCT     C7 4180   2.556   3.242   3.350  0.2541  0.2690 -0.1820
  161OCT    H71 4181   2.593   3.200   3.255  1.2798 -0.4330 -0.4811
  161OCT    H72 4182   2.452   3.278   3.316  0.8108  0.6892 -1.9877
  161OCT     C8 4183   2.644   3.362   3.381 -0.5098 -0.0122 -0.1699
  161OCT    H81 4184   2.737   3.324   3.432  0.0228 -0.0568  0.0571
  161OCT    H82 4185   2.665   3.413   3.290 -0.3256  1.8249  0.6166
  161OCT    H83 4186   2.605   3.443   3.440 -0.2522  0.8116 -1.7290
  162OCT     C1 4187   0.524   3.750   3.191  0.0127 -0.3736 -0.6753
  162OCT    H11 4188   0.496   3.658   3.249  0.1195 -2.0499  2.2868
  162OCT    H12 4189   0.441   3.822   3.211 -1.6270  2.1394  0.9344
  162OCT    H13 4190   0.537   3.721   3.081  0.7429 -1.7164  0.1212
  162OCT     C2 4191   0.653   3.810   3.239  0.1636 -0.3323  0.2649
  162OCT    H21 4192   0.682   3.908   3.185  2.3492  1.2080  2.5690
  162OCT    H22 4193   0.652   3.828   3.352 -1.0942  1.0660  1.2636
  162OCT     C3 4194   0.787   3.736   3.214 -0.5163  0.4176  0.3586
  162OCT    H31 4195   0.802   3.709   3.111 -0.9937 -1.3424  2.9161
  162OCT    H32 4196   0.877   3.790   3.249  0.6974 -0.5359  0.0618
  162OCT     C4 4197   0.797   3.600   3.290 -0.4709  0.1199 -0.5335
  162OCT    H41 4198   0.710   3.545   3.259  2.0201  1.2888 -1.5747
  162OCT    H42 4199   0.893   3.550   3.263 -0.0662  2.1541 -0.3157
  162OCT     C5 4200   0.805   3.610   3.443  0.4793 -0.6882  0.4615
  162OCT    H51 4201   0.868   3.699   3.468 -2.6712  1.1755  1.8554
  162OCT    H52 4202   0.702   3.627   3.475 -0.8773  1.7028 -0.9549
  162OCT     C6 4203   0.860   3.486   3.507 -0.6239 -0.2624 -0.2246
  162OCT    H61 4204   0.791   3.396   3.503 -0.4025 -0.7111  1.5923
  162OCT    H62 4205   0.960   3.462   3.463  1.9086  0.1361  1.0131
  162OCT     C7 4206   0.888   3.512   3.657 -0.1067  0.1931 -0.3709
  162OCT    H71 4207   0.957   3.590   3.667 -2.8824  1.0262 -0.5667
  162OCT    H72 4208   0.794   3.542   3.708  2.7564  1.2149  0.2715
  162OCT     C8 4209   0.938   3.378   3.714 -1.1124  1.0008  0.4584
  162OCT    H81 4210   1.026   3.359   3.652 -0.0200  1.6459  0.1830
  162OCT    H82 4211   0.967   3.382   3.819  1.7388  0.2722 -1.4071
  162OCT    H83 4212   0.871   3.294   3.699 -1.0893 -1.1521  1.1858
  163OCT     C1 4213   2.231   0.915   0.691  0.4759 -0.0875 -0.3039
  163OCT    H11 4214   2.135   0.967   0.682 -0.2536  2.3446  2.3421
  163OCT    H12 4215   2.312   0.972   0.631  0.3048  0.3897 -2.3337
  163OCT    H13 4216   2.231   0.806   0.670 -1.5815 -2.6284  4.1886
  163OCT     C2 4217   2.271   0.922   0.837 -0.2415 -0.9117  0.7579
  163OCT    H21 4218   2.272   1.020   0.881 -2.2836 -1.9732 -0.5188
  163OCT    H22 4219   2.212   0.846   0.895 -1.2828 -2.6385 -1.6348
  163OCT     C3 4220   2.417   0.868   0.861  0.3396 -0.8292  0.8241
  163OCT    H31 4221   2.416   0.756   0.849  1.1490  0.1290 -0.3407
  163OCT    H32 4222   2.493   0.908   0.783  0.7063 -0.1403 -1.8357
  163OCT     C4 4223   2.466   0.881   1.006 -0.2896 -0.2175 -0.3012
  163OCT    H41 4224   2.399   0.825   1.082 -3.7627  0.5615  1.5534
  163OCT    H42 4225   2.569   0.838   1.006 -1.9601 -1.8500  2.3207
  163OCT     C5 4226   2.478   1.026   1.063  0.5217 -0.1143  0.2306
  163OCT    H51 4227   2.521   1.084   0.983  2.3662 -3.1157  0.1196
  163OCT    H52 4228   2.371   1.059   1.090 -0.5335  2.4434 -0.8651
  163OCT     C6 4229   2.553   1.049   1.191  0.7460  0.0710  0.2481
  163OCT    H61 4230   2.502   1.001   1.278  0.5453  0.2167  1.6721
  163OCT    H62 4231   2.656   1.019   1.186 -2.3491  1.1255 -0.4766
  163OCT     C7 4232   2.560   1.198   1.241 -0.4490 -0.1150  0.4069
  163OCT    H71 4233   2.630   1.240   1.166  1.3416 -0.3181  1.3238
  163OCT    H72 4234   2.466   1.254   1.229 -0.5878  0.0086 -1.1689
  163OCT     C8 4235   2.618   1.200   1.379  0.2069  0.4139 -0.0013
  163OCT    H81 4236   2.717   1.151   1.371  0.5523 -0.1248 -1.1524
  163OCT    H82 4237   2.627   1.294   1.430 -2.2128  0.3626  0.5269
  163OCT    H83 4238   2.558   1.145   1.455 -0.2562  1.2305  2.6637
  164OCT     C1 4239   0.730   1.398   0.337 -0.0082  0.4814 -0.8797
  164OCT    H11 4240   0.665   1.491   0.306 -0.0158  1.7185 -0.6804
  164OCT    H12 4241   0.713   1.303   0.282  1.2234 -1.7458 -1.0964
  164OCT    H13 4242   0.700   1.375   0.444  1.7571  0.6844 -0.3097
  164OCT     C2 4243   0.872   1.448   0.337 -0.3066 -0.0408  0.4166
  164OCT    H21 4244   0.937   1.377   0.383 -0.8695  2.7268 -3.1796
  164OCT    H22 4245   0.897   1.466   0.228 -2.1950  1.6655 -1.6410
  164OCT     C3 4246   0.887   1.576   0.425  0.9237  0.1858 -0.4033
  164OCT    H31 4247   0.837   1.672   0.386  0.0768 -1.5617  0.6521
  164OCT    H32 4248   0.849   1.551   0.525  2.2075 -3.3539 -2.6828
  164OCT     C4 4249   1.035   1.614   0.430  0.5105 -0.4145 -0.2565
  164OCT    H41 4250   1.064   1.556   0.521  1.6622  0.8063  0.7474
  164OCT    H42 4251   1.106   1.571   0.356  0.8984  0.6180  1.3860
  164OCT     C5 4252   1.075   1.763   0.448 -0.0022 -0.0060  0.1513
  164OCT    H51 4253   1.184   1.771   0.471 -1.7788 -0.2816 -1.8702
  164OCT    H52 4254   1.051   1.808   0.352 -0.4471 -2.3173  3.5313
  164OCT     C6 4255   1.001   1.836   0.557 -0.2415 -0.4226  0.5312
  164OCT    H61 4256   0.892   1.850   0.519  0.0518  1.0917  0.8007
  164OCT    H62 4257   1.007   1.770   0.641 -0.5660  1.8150  0.9473
  164OCT     C7 4258   1.073   1.965   0.600 -0.1915  0.8653  0.4901
  164OCT    H71 4259   1.026   1.984   0.700  2.9726  0.7774  0.3749
  164OCT    H72 4260   1.178   1.952   0.616 -1.2953  1.7777 -1.3761
  164OCT     C8 4261   1.047   2.085   0.502  0.5780  0.8069 -0.1070
  164OCT    H81 4262   1.094   2.169   0.549  1.1123 -0.8143 -1.6935
  164OCT    H82 4263   1.088   2.073   0.400 -0.2624  1.9325  0.7315
  164OCT    H83 4264   0.941   2.112   0.494  0.8190  0.0426  1.3309
  165OCT     C1 4265   0.000   3.921   3.262 -0.3729 -0.8545 -0.6044
  165OCT    H11 4266  -0.058   3.836   3.288  2.2003  0.9775  0.4528
  165OCT    H12 4267  -0.041   3.979   3.175 -1.1833  1.5752  0.2754
  165OCT    H13 4268   0.100   3.880   3.235 -2.3606 -2.6661 -1.0982
  165OCT     C2 4269   0.010   4.028   3.379  0.4449 -0.2079  0.6233
  165OCT    H21 4270   0.051   3.979   3.468  1.3366 -0.3294 -0.6049
  165OCT    H22 4271   0.084   4.107   3.347 -0.5887  1.1446 -2.7416
  165OCT     C3 4272  -0.121   4.099   3.409 -0.4400 -0.2211  0.4258
  165OCT    H31 4273  -0.162   4.157   3.316 -1.6700  0.1039 -0.8940
  165OCT    H32 4274  -0.200   4.028   3.440  0.2098 -3.3865  0.4654
  165OCT     C4 4275  -0.114   4.205   3.531 -0.7178  0.6820 -0.9763
  165OCT    H41 4276  -0.097   4.145   3.624 -0.1896  0.8519 -0.7961
  165OCT    H42 4277  -0.025   4.270   3.523  0.8756  0.6768 -0.2822
  165OCT     C5 4278  -0.238   4.297   3.537 -0.3111  0.0410  0.5291
  165OCT    H51 4279  -0.263   4.342   3.437  1.0952 -0.9500  0.1844
  165OCT    H52 4280  -0.320   4.227   3.562 -1.9546  0.8812  0.0823
  165OCT     C6 4281  -0.223   4.406   3.639 -0.7285 -0.3218 -0.0966
  165OCT    H61 4282  -0.218   4.370   3.743 -0.6166  3.5761 -0.3349
  165OCT    H62 4283  -0.130   4.468   3.617 -1.1271  0.0905 -0.9248
  165OCT     C7 4284  -0.340   4.503   3.637  0.8079  0.0860 -0.0206
  165OCT    H71 4285  -0.371   4.530   3.532  0.3112  1.0305 -1.9371
  165OCT    H72 4286  -0.437   4.456   3.674 -3.0636 -0.0497  3.5157
  165OCT     C8 4287  -0.324   4.628   3.724 -0.7655 -0.5309  0.7364
  165OCT    H81 4288  -0.256   4.693   3.671  0.5150 -1.4259  0.2501
  165OCT    H82 4289  -0.421   4.689   3.733 -2.7227  1.4700  1.9023
  165OCT    H83 4290  -0.290   4.606   3.823  0.0906  1.2086  0.4352
  166OCT     C1 4291   3.372   1.468   2.060 -0.6020 -0.1455 -0.2335
  166OCT    H11 4292   3.404   1.413   2.152 -0.4439 -0.0378  1.4239
  166OCT    H12 4293   3.428   1.563   2.036  1.9507 -0.1694  0.7226
  166OCT    H13 4294   3.260   1.474   2.065  1.7191  0.3919 -0.0297
  166OCT     C2 4295   3.392   1.367   1.943 -1.0029  0.3729 -0.4058
  166OCT    H21 4296   3.497   1.345   1.940 -3.2666  1.8095 -0.3277
  166OCT    H22 4297   3.343   1.275   1.966  0.7490 -0.9069 -3.1120
  166OCT     C3 4298   3.355   1.416   1.801  0.0756 -0.2158  0.1160
  166OCT    H31 4299   3.420   1.499   1.761 -1.5168  0.1160 -0.6518
  166OCT    H32 4300   3.370   1.331   1.731  0.7640  1.2942  0.4230
  166OCT     C4 4301   3.201   1.451   1.796  0.1529 -0.2795 -0.4383
  166OCT    H41 4302   3.137   1.368   1.841  0.8723 -1.1012 -0.2700
  166OCT    H42 4303   3.179   1.540   1.859  0.5023 -1.6221 -0.0906
  166OCT     C5 4304   3.147   1.466   1.654 -0.4066 -0.3027  0.2416
  166OCT    H51 4305   3.205   1.539   1.600  0.5968  0.6911  1.4601
  166OCT    H52 4306   3.177   1.372   1.605 -0.4531 -1.0270  0.5050
  166OCT     C6 4307   2.996   1.473   1.642 -0.0506  0.2035 -0.7149
  166OCT    H61 4308   2.953   1.391   1.700  1.3526 -1.0790 -0.8728
  166OCT    H62 4309   2.967   1.564   1.699  1.0261 -2.3350  0.5249
  166OCT     C7 4310   2.932   1.453   1.507 -0.2825  0.8359 -0.0577
  166OCT    H71 4311   2.960   1.353   1.462  1.9962  1.1554 -2.4060
  166OCT    H72 4312   2.821   1.466   1.523 -3.8741 -0.2445 -1.4219
  166OCT     C8 4313   2.986   1.557   1.409 -0.0789  0.0626 -0.3711
  166OCT    H81 4314   2.976   1.660   1.452 -1.1449 -0.2922 -2.2137
  166OCT    H82 4315   3.098   1.548   1.397  0.5992  1.2975  0.8163
  166OCT    H83 4316   2.933   1.553   1.313 -1.7631  1.4591  0.8891
  167OCT     C1 4317   3.862   3.945   4.147 -0.4366 -0.8713 -0.2132
  167OCT    H11 4318   3.830   3.850   4.102  1.6504  0.4970  0.8022
  167OCT    H12 4319   3.951   3.987   4.086  0.2876  1.3989  1.1105
  167OCT    H13 4320   3.897   3.927   4.253 -1.0783  3.6736  2.7153
  167OCT     C2 4321   3.755   4.054   4.140 -0.0665 -0.3317 -0.3103
  167OCT    H21 4322   3.799   4.144   4.194  0.4453  1.3098 -2.2109
  167OCT    H22 4323   3.731   4.099   4.042  0.0501  1.3988  1.3507
  167OCT     C3 4324   3.622   4.019   4.211 -0.2647 -0.2460  0.3914
  167OCT    H31 4325   3.653   3.935   4.283  0.5643  0.7261  0.7961
  167OCT    H32 4326   3.590   4.107   4.272 -3.1808 -0.9346  0.8960
  167OCT     C4 4327   3.508   3.958   4.124  0.5734  0.1824 -0.4033
  167OCT    H41 4328   3.422   3.929   4.189  1.3458 -1.6919 -2.0713
  167OCT    H42 4329   3.479   4.043   4.059 -1.3101 -1.8712 -0.9205
  167OCT     C5 4330   3.540   3.836   4.036 -0.5126  0.8512 -0.9491
  167OCT    H51 4331   3.621   3.856   3.964  2.2426 -0.7647  1.2951
  167OCT    H52 4332   3.586   3.760   4.106 -0.9968  0.8730  1.5280
  167OCT     C6 4333   3.417   3.760   3.982 -0.1194 -0.8159  0.0836
  167OCT    H61 4334   3.383   3.726   4.078  0.5595  0.3367  1.8649
  167OCT    H62 4335   3.348   3.834   3.930  2.7943  3.4742  2.1926
  167OCT     C7 4336   3.445   3.635   3.907 -0.5852 -0.3629  0.4243
  167OCT    H71 4337   3.475   3.672   3.803 -3.1049  1.2497 -0.4778
  167OCT    H72 4338   3.540   3.587   3.958  2.9915 -1.7440 -0.4195
  167OCT     C8 4339   3.327   3.537   3.902  0.6140 -0.2160  0.5168
  167OCT    H81 4340   3.305   3.492   3.998 -3.0198 -0.2075 -0.2095
  167OCT    H82 4341   3.229   3.586   3.881 -1.3603  0.7478  0.1762
  167OCT    H83 4342   3.345   3.450   3.835  0.5478 -2.5746 -1.3341
  168OCT     C1 4343   4.132   1.737   2.402 -0.3937  0.6580  0.4559
  168OCT    H11 4344   4.229   1.700   2.438 -0.3785 -0.5084 -0.5488
  168OCT    H12 4345   4.136   1.852   2.387 -0.3347  0.6790  0.5087
  168OCT    H13 4346   4.058   1.713   2.477  0.3055 -0.7167  0.4854
  168OCT     C2 4347   4.094   1.679   2.268  0.0176  0.3166  0.5913
  168OCT    H21 4348   4.179   1.692   2.195 -0.4793 -1.0199 -0.5117
  168OCT    H22 4349   4.075   1.565   2.269  0.6437 -2.4700 -0.6484
  168OCT     C3 4350   3.970   1.743   2.201  0.6213 -0.0878  0.6305
  168OCT    H31 4351   3.876   1.713   2.256  0.2251  0.7823  0.3172
  168OCT    H32 4352   3.977   1.856   2.194 -1.8908 -0.5483 -0.7631
  168OCT     C4 4353   3.940   1.684   2.058 -0.8014  0.2139 -0.1170
  168OCT    H41 4354   4.025   1.616   2.030  0.4501  2.6051 -0.3712
  168OCT    H42 4355   3.836   1.639   2.063 -0.7275  2.4082 -1.3221
  168OCT     C5 4356   3.930   1.796   1.949 -0.9886  0.6431  0.0557
  168OCT    H51 4357   3.837   1.848   1.959  0.0494 -3.3953 -1.5782
  168OCT    H52 4358   4.009   1.863   1.967 -1.2840 -0.2739 -0.1118
  168OCT     C6 4359   3.951   1.730   1.810  0.4557 -1.0078 -0.0254
  168OCT    H61 4360   3.937   1.808   1.729 -1.6439 -0.1659  1.4428
  168OCT    H62 4361   4.053   1.693   1.803 -1.5014 -0.3625 -0.0578
  168OCT     C7 4362   3.847   1.625   1.767 -0.0852 -0.4258  0.2766
  168OCT    H71 4363   3.872   1.593   1.659 -0.0400  0.8410 -1.1456
  168OCT    H72 4364   3.839   1.537   1.824  1.4038  0.0718  0.1759
  168OCT     C8 4365   3.710   1.697   1.766 -0.2178  0.0856 -0.0790
  168OCT    H81 4366   3.713   1.788   1.697 -0.7781 -0.7234 -3.4633
  168OCT    H82 4367   3.630   1.637   1.724  0.2935  0.8942 -2.4964
  168OCT    H83 4368   3.685   1.737   1.861 -2.4206  0.0879 -1.3021
  169OCT     C1 4369   2.039   3.740   2.192  0.6974  0.2932 -0.1474
  169OCT    H11 4370   1.988   3.750   2.290 -3.7975  0.0092  0.7336
  169OCT    H12 4371   1.958   3.779   2.125  1.5742  1.8902  1.3541
  169OCT    H13 4372   2.063   3.634   2.177  0.0521 -1.0489 -1.0663
  169OCT     C2 4373   2.168   3.824   2.193  0.3335 -0.3675 -0.2034
  169OCT    H21 4374   2.140   3.931   2.198 -0.6666  0.2421  1.3989
  169OCT    H22 4375   2.226   3.798   2.281 -2.3910 -3.6481  0.2141
  169OCT     C3 4376   2.256   3.798   2.067  0.2463 -0.1315  0.8145
  169OCT    H31 4377   2.284   3.691   2.059  1.2514  0.0974  1.2115
  169OCT    H32 4378   2.213   3.821   1.974  3.8235  0.0483  0.8994
  169OCT     C4 4379   2.389   3.879   2.073  1.0064  0.1101  0.1754
  169OCT    H41 4380   2.430   3.872   1.966  2.5957  0.8050 -0.2502
  169OCT    H42 4381   2.368   3.984   2.096  2.6151  0.5912 -0.5465
  169OCT     C5 4382   2.492   3.813   2.164 -0.6557  0.0342  0.0523
  169OCT    H51 4383   2.462   3.805   2.268  1.3558  0.0080 -0.3011
  169OCT    H52 4384   2.512   3.709   2.122 -0.5624 -0.9494 -1.0683
  169OCT     C6 4385   2.630   3.897   2.159  0.0425  0.0681 -0.2048
  169OCT    H61 4386   2.619   3.963   2.066  1.0254 -0.8474 -3.8540
  169OCT    H62 4387   2.636   3.972   2.241  0.2232  0.2939  2.1031
  169OCT     C7 4388   2.754   3.803   2.151 -0.0677  0.4308  0.0804
  169OCT    H71 4389   2.758   3.737   2.230  2.6957  3.7097 -0.2596
  169OCT    H72 4390   2.755   3.734   2.058  0.0512 -1.3760  1.2654
  169OCT     C8 4391   2.886   3.880   2.147  0.3189  0.2498 -0.4146
  169OCT    H81 4392   2.911   3.891   2.251 -2.1860 -0.5438 -0.1685
  169OCT    H82 4393   2.959   3.815   2.093  1.2394  1.6676  0.6653
  169OCT    H83 4394   2.880   3.978   2.096 -0.4706  0.1992  0.0008
  170OCT     C1 4395   0.147   2.084   3.054  0.2641 -0.7453 -0.1775
  170OCT    H11 4396   0.198   2.010   3.125 -0.0775 -0.2606 -1.6170
  170OCT    H12 4397   0.047   2.049   3.026  1.2974  0.0575 -1.8695
  170OCT    H13 4398   0.206   2.089   2.964  3.3815 -1.4918  1.2120
  170OCT     C2 4399   0.124   2.222   3.127 -0.2783 -0.3623  0.1446
  170OCT    H21 4400   0.047   2.204   3.202 -1.4585  0.4004 -0.4011
  170OCT    H22 4401   0.226   2.249   3.174 -0.1373  0.3306  2.8937
  170OCT     C3 4402   0.078   2.336   3.034  0.2031 -0.3884 -0.4074
  170OCT    H31 4403   0.144   2.348   2.960 -4.3864 -0.2147  3.6539
  170OCT    H32 4404  -0.018   2.304   2.993 -1.1562  1.4771  2.4045
  170OCT     C4 4405   0.039   2.469   3.112 -0.0426 -0.0593 -0.0966
  170OCT    H41 4406   0.124   2.488   3.181 -0.7677 -0.2331  2.9784
  170OCT    H42 4407   0.030   2.552   3.040  2.8755  0.4455  1.2563
  170OCT     C5 4408  -0.089   2.474   3.204  0.2351  0.2608  0.0093
  170OCT    H51 4409  -0.182   2.439   3.158 -1.2810 -0.6660 -0.0454
  170OCT    H52 4410  -0.068   2.416   3.302  1.7492 -0.5391  2.0789
  170OCT     C6 4411  -0.120   2.617   3.244 -1.0348 -0.9720  0.0255
  170OCT    H61 4412  -0.032   2.659   3.292  1.1827 -0.3980 -2.1179
  170OCT    H62 4413  -0.152   2.665   3.148 -0.4655  1.3233 -1.7764
  170OCT     C7 4414  -0.229   2.636   3.352  0.1976 -0.1837  0.0947
  170OCT    H71 4415  -0.255   2.744   3.344  0.9835  0.7047  1.4422
  170OCT    H72 4416  -0.321   2.570   3.336 -2.2804  1.0557 -0.2035
  170OCT     C8 4417  -0.177   2.596   3.493 -0.5498 -0.1035 -0.4093
  170OCT    H81 4418  -0.146   2.490   3.492  1.6963  0.6356 -1.7518
  170OCT    H82 4419  -0.095   2.658   3.530 -3.9217  0.9480 -0.4000
  170OCT    H83 4420  -0.270   2.612   3.557  0.4787 -0.2852  1.1093
  171OCT     C1 4421   4.199   3.223   1.090  0.2216 -0.4455 -0.0350
  171OCT    H11 4422   4.162   3.236   0.987  1.0958  0.4678 -0.2478
  171OCT    H12 4423   4.168   3.314   1.151  0.1502 -1.2191  2.9204
  171OCT    H13 4424   4.312   3.213   1.085  0.6880 -1.7474  0.4333
  171OCT     C2 4425   4.125   3.113   1.162 -0.4206 -0.1864  0.5883
  171OCT    H21 4426   4.161   3.106   1.265  1.0552  0.4757 -0.4698
  171OCT    H22 4427   4.017   3.142   1.162 -0.6662  0.6952 -1.2613
  171OCT     C3 4428   4.139   2.979   1.097  0.0616  0.4128 -0.0800
  171OCT    H31 4429   4.136   2.971   0.985  0.5671  0.6136  0.0440
  171OCT    H32 4430   4.235   2.932   1.123 -0.5148 -2.3628 -2.8797
  171OCT     C4 4431   4.040   2.881   1.160 -0.1698  0.3518 -0.3746
  171OCT    H41 4432   4.054   2.894   1.269 -0.5604  1.8965 -0.3900
  171OCT    H42 4433   3.942   2.927   1.132  0.1625 -1.4412 -0.5081
  171OCT     C5 4434   4.050   2.744   1.100  0.2525  0.7461 -0.4482
  171OCT    H51 4435   4.012   2.763   1.001  1.0549  2.3837  3.4621
  171OCT    H52 4436   4.148   2.701   1.097  0.4122  1.3311 -0.7371
  171OCT     C6 4437   3.952   2.633   1.154 -0.3267 -0.0653  0.9076
  171OCT    H61 4438   3.976   2.636   1.265 -0.3252  0.4261  2.4973
  171OCT    H62 4439   3.844   2.651   1.139  1.8079 -0.5499 -0.7737
  171OCT     C7 4440   3.993   2.494   1.104 -0.0601  0.3215 -1.0499
  171OCT    H71 4441   3.928   2.463   1.016 -1.1681 -0.4307  0.3869
  171OCT    H72 4442   4.097   2.475   1.082  0.1239  0.0924 -0.9714
  171OCT     C8 4443   3.961   2.392   1.214 -0.2684  0.3639 -0.2708
  171OCT    H81 4444   3.869   2.412   1.280 -0.8124 -1.4250  2.0964
  171OCT    H82 4445   3.951   2.291   1.162 -0.0241 -2.3344  0.2148
  171OCT    H83 4446   4.047   2.384   1.290  0.4610 -0.5957  1.2746
  172OCT     C1 4447   1.637   2.114   0.666 -0.1591 -0.2364  0.1164
  172OCT    H11 4448   1.619   2.211   0.623 -0.8252 -0.0315 -0.6079
  172OCT    H12 4449   1.734   2.083   0.626 -1.8707 -0.7251  0.1527
  172OCT    H13 4450   1.567   2.036   0.633  0.1423 -3.7031  1.2598
  172OCT     C2 4451   1.647   2.114   0.825  0.6908 -0.1598 -0.0653
  172OCT    H21 4452   1.732   2.179   0.856  1.2460  0.9115  1.3210
  172OCT    H22 4453   1.553   2.163   0.866 -2.4362  2.7654  0.8962
  172OCT     C3 4454   1.669   1.977   0.901  0.4489  0.5579  0.1854
  172OCT    H31 4455   1.643   2.006   1.003  2.7994  2.1106  0.4689
  172OCT    H32 4456   1.598   1.907   0.873  3.4060  2.3724  1.9791
  172OCT     C4 4457   1.810   1.918   0.900  0.6634  0.3027 -0.0651
  172OCT    H41 4458   1.797   1.824   0.955  0.5669 -0.1789 -2.3467
  172OCT    H42 4459   1.840   1.893   0.798 -0.6619  0.9491 -0.7192
  172OCT     C5 4460   1.916   2.005   0.961  0.6584  0.5664  0.6712
  172OCT    H51 4461   1.925   2.099   0.905  1.6009  0.5476  2.8386
  172OCT    H52 4462   1.880   2.033   1.069  2.3080  0.0992 -1.1066
  172OCT     C6 4463   2.050   1.932   0.981  0.0027 -0.3657 -0.0521
  172OCT    H61 4464   2.028   1.852   1.050 -0.1803  2.5566 -0.3863
  172OCT    H62 4465   2.084   1.887   0.891 -0.9703  1.6322  2.1269
  172OCT     C7 4466   2.163   2.021   1.037  0.2740 -0.0696 -0.1853
  172OCT    H71 4467   2.186   2.085   0.949 -2.6194 -0.5440 -1.4998
  172OCT    H72 4468   2.138   2.086   1.122  1.1191 -1.9258 -1.2314
  172OCT     C8 4469   2.297   1.955   1.069 -0.0603  0.3670 -0.0175
  172OCT    H81 4470   2.370   2.037   1.091  0.6644  3.1540  0.1632
  172OCT    H82 4471   2.303   1.873   1.149 -0.2372 -1.2381  0.0390
  172OCT    H83 4472   2.329   1.909   0.981 -1.2647 -0.8231  3.0921
  173OCT     C1 4473   0.185   4.373   4.400 -0.0087 -0.2164 -0.2076
  173OCT    H11 4474   0.266   4.384   4.479  3.2527 -2.0557  0.6493
  173OCT    H12 4475   0.199   4.270   4.352  1.3077  0.7903 -2.5980
  173OCT    H13 4476   0.198   4.448   4.316 -2.3224  2.2999 -0.7444
  173OCT     C2 4477   0.044   4.368   4.457  0.1172  0.2399  0.1685
  173OCT    H21 4478  -0.029   4.327   4.374 -1.4766 -0.5092 -0.4850
  173OCT    H22 4479   0.039   4.282   4.529  1.9021  0.4570  0.0748
  173OCT     C3 4480  -0.008   4.494   4.529 -0.0930 -0.0211 -0.3012
  173OCT    H31 4481  -0.005   4.577   4.463 -1.8651 -0.1537  0.6270
  173OCT    H32 4482  -0.111   4.491   4.559 -1.2976 -0.3866  0.8435
  173OCT     C4 4483   0.075   4.534   4.651 -0.2618  0.4141  0.1884
  173OCT    H41 4484   0.074   4.439   4.705  0.2859  1.4097  1.0357
  173OCT    H42 4485   0.178   4.545   4.628 -0.7483  0.3085 -2.9322
  173OCT     C5 4486   0.007   4.646   4.737 -0.2495 -0.3559  0.4069
  173OCT    H51 4487  -0.018   4.735   4.669 -1.0222 -1.7726  1.8930
  173OCT    H52 4488  -0.090   4.614   4.788  0.7215 -0.6831  1.1175
  173OCT     C6 4489   0.100   4.703   4.843 -0.6275  0.3900  0.4025
  173OCT    H61 4490   0.139   4.609   4.887 -0.2968 -1.6638  0.9830
  173OCT    H62 4491   0.193   4.751   4.801 -2.5864 -0.9203 -0.9498
  173OCT     C7 4492   0.037   4.803   4.932  0.7353  0.6086 -0.1379
  173OCT    H71 4493  -0.021   4.878   4.866 -0.1436  1.3937 -2.5217
  173OCT    H72 4494  -0.042   4.752   4.996 -0.3194  0.8574 -0.6038
  173OCT     C8 4495   0.127   4.890   5.018 -0.0125  0.5314  0.5290
  173OCT    H81 4496   0.065   4.966   5.061  1.5004  0.7223 -0.8909
  173OCT    H82 4497   0.170   4.829   5.098 -1.9650  0.6742  1.0558
  173OCT    H83 4498   0.211   4.932   4.957  1.8531 -0.3036  1.8221
  174OCT     C1 4499   3.096   3.950   0.485 -0.1225  0.3202  0.2449
  174OCT    H11 4500   3.169   3.957   0.561 -1.9063  2.0887 -2.4402
  174OCT    H12 4501   3.029   3.870   0.525  0.3159 -1.8791 -1.8958
  174OCT    H13 4502   3.153   3.924   0.395 -0.7730  0.3294  0.0805
  174OCT     C2 4503   3.019   4.080   0.473 -0.4340 -0.1141 -0.3251
  174OCT    H21 4504   3.075   4.157   0.417 -0.3167  1.8786 -0.6327
  174OCT    H22 4505   2.922   4.058   0.417  0.2265 -1.0130 -1.0415
  174OCT     C3 4506   2.978   4.139   0.605 -0.5173 -0.1968 -0.0720
  174OCT    H31 4507   2.920   4.064   0.657 -1.6228 -1.0316  0.0845
  174OCT    H32 4508   3.077   4.156   0.657  1.2365 -2.3593  0.9791
  174OCT     C4 4509   2.896   4.267   0.586  0.0641  0.1706 -0.1804
  174OCT    H41 4510   2.862   4.263   0.483 -1.2139 -0.4334  0.4222
  174OCT    H42 4511   2.808   4.263   0.650  1.3993  0.6871 -1.0116
  174OCT     C5 4512   2.978   4.394   0.616  0.3252 -0.4125 -0.6778
  174OCT    H51 4513   3.007   4.413   0.720 -1.9354  1.8583 -2.0012
  174OCT    H52 4514   3.076   4.396   0.564  2.6853  2.7860 -0.1150
  174OCT     C6 4515   2.907   4.522   0.570  0.3243  0.1127 -0.7488
  174OCT    H61 4516   2.976   4.605   0.587  1.0882  0.8279 -0.4534
  174OCT    H62 4517   2.882   4.518   0.463 -1.1010  0.1372  0.9181
  174OCT     C7 4518   2.770   4.546   0.641  0.2673  0.2562  0.4072
  174OCT    H71 4519   2.702   4.630   0.594 -2.0446  4.5003  0.1549
  174OCT    H72 4520   2.710   4.454   0.625 -0.3631  0.0933  0.9012
  174OCT     C8 4521   2.770   4.569   0.793 -0.0111  0.1133  0.5247
  174OCT    H81 4522   2.786   4.472   0.852  1.1723  1.9394  1.3778
  174OCT    H82 4523   2.857   4.630   0.815 -1.7636  1.0083 -0.6645
  174OCT    H83 4524   2.676   4.618   0.820  3.1549 -1.0964 -0.8022
  175OCT     C1 4525   3.374   3.813   0.657  0.9820 -0.5660  0.4705
  175OCT    H11 4526   3.282   3.762   0.611  1.1989  1.6347  0.7394
  175OCT    H12 4527   3.363   3.845   0.762  0.8354 -0.9660 -1.4892
  175OCT    H13 4528   3.367   3.908   0.594  0.5856  0.2870 -0.9993
  175OCT     C2 4529   3.491   3.727   0.635  0.2816 -0.2810  0.5257
  175OCT    H21 4530   3.502   3.739   0.521 -1.7193 -1.2995 -1.8099
  175OCT    H22 4531   3.581   3.780   0.685 -1.1541  0.9369  0.3286
  175OCT     C3 4532   3.475   3.581   0.670 -0.4262  0.0418 -0.3890
  175OCT    H31 4533   3.454   3.576   0.772  1.2861 -0.7177 -1.6119
  175OCT    H32 4534   3.375   3.556   0.620 -2.7119 -1.6851 -0.9697
  175OCT     C4 4535   3.599   3.499   0.640  0.5225  0.0485  0.4053
  175OCT    H41 4536   3.693   3.549   0.673  0.3951  1.3168  0.2405
  175OCT    H42 4537   3.582   3.397   0.682  0.7236  1.6658 -0.7236
  175OCT     C5 4538   3.621   3.460   0.492  0.0985  0.1690  0.5122
  175OCT    H51 4539   3.542   3.393   0.451  1.5037 -0.7294  1.1672
  175OCT    H52 4540   3.605   3.538   0.416 -1.8238  1.0238  0.5774
  175OCT     C6 4541   3.764   3.401   0.469 -0.3100  0.1916  0.2514
  175OCT    H61 4542   3.775   3.359   0.365 -1.2976  1.0300  0.1011
  175OCT    H62 4543   3.822   3.493   0.482 -0.3859 -1.0909  1.0088
  175OCT     C7 4544   3.808   3.291   0.564  0.3189 -0.4806 -0.0186
  175OCT    H71 4545   3.911   3.262   0.521 -0.4127 -2.2351 -1.4861
  175OCT    H72 4546   3.814   3.333   0.671 -0.4670 -0.4079  2.3636
  175OCT     C8 4547   3.711   3.171   0.572 -0.2077  0.2427  0.7185
  175OCT    H81 4548   3.676   3.139   0.467 -3.2076  1.2182 -1.9411
  175OCT    H82 4549   3.762   3.087   0.628  0.6414  1.3377 -1.2736
  175OCT    H83 4550   3.618   3.193   0.626 -0.9118 -3.3569  1.0489
  176OCT     C1 4551   1.329   3.149   2.167  0.5959 -0.3549 -0.1134
  176OCT    H11 4552   1.386   3.122   2.068  0.1631 -0.9640 -2.0023
  176OCT    H12 4553   1.358   3.068   2.234 -0.3377 -0.3270  1.1762
  176OCT    H13 4554   1.218   3.133   2.151 -1.9024  0.5040 -2.9447
  176OCT     C2 4555   1.363   3.287   2.221 -0.8986 -0.8055  0.0320
  176OCT    H21 4556   1.324   3.299   2.334 -0.7570 -0.0824  3.5772
  176OCT    H22 4557   1.472   3.300   2.229 -0.6010  0.0110  0.4047
  176OCT     C3 4558   1.308   3.396   2.128  0.8273 -0.5134 -0.4035
  176OCT    H31 4559   1.332   3.386   2.018  3.6120 -0.8351 -1.5169
  176OCT    H32 4560   1.191   3.391   2.142 -0.0614  1.2133 -0.4382
  176OCT     C4 4561   1.355   3.542   2.163  0.4679 -0.7524  0.3908
  176OCT    H41 4562   1.287   3.622   2.129 -1.0258 -0.1505 -0.9442
  176OCT    H42 4563   1.355   3.550   2.276 -0.6983  0.3692  0.8179
  176OCT     C5 4564   1.498   3.570   2.116 -0.0170 -0.4193  0.5040
  176OCT    H51 4565   1.547   3.475   2.109 -0.4047  1.5625 -0.4476
  176OCT    H52 4566   1.501   3.614   2.013  0.1568  1.0694  0.8101
  176OCT     C6 4567   1.575   3.670   2.202  0.1263  0.0788 -0.5383
  176OCT    H61 4568   1.685   3.685   2.164  2.6782 -2.8129 -1.4465
  176OCT    H62 4569   1.519   3.761   2.182  0.8328 -0.0402 -2.3893
  176OCT     C7 4570   1.596   3.637   2.353  0.5825 -0.1887  0.0281
  176OCT    H71 4571   1.504   3.626   2.406  2.6149  0.2203  0.6600
  176OCT    H72 4572   1.643   3.539   2.337  1.1707  0.3412 -3.1375
  176OCT     C8 4573   1.687   3.735   2.424 -0.4624  0.8219  0.4519
  176OCT    H81 4574   1.636   3.828   2.447  0.6237  2.0374  2.0317
  176OCT    H82 4575   1.720   3.685   2.520  1.1542  0.9472  0.8766
  176OCT    H83 4576   1.776   3.754   2.359  0.7708  2.0145 -1.5634
  177OCT     C1 4577   0.770   2.953   2.753  0.8256 -0.4227 -0.2760
  177OCT    H11 4578   0.733   3.026   2.680 -0.2477  0.4375 -2.4237
  177OCT    H12 4579   0.754   2.987   2.857  1.5904 -2.2002 -0.7798
  177OCT    H13 4580   0.881   2.950   2.732  1.7333  0.4866  2.0220
  177OCT     C2 4581   0.715   2.815   2.752  0.2945  0.0316 -0.0257
  177OCT    H21 4582   0.747   2.753   2.663  0.3418  0.6158 -0.7205
  177OCT    H22 4583   0.740   2.752   2.841 -1.7349 -2.7567 -0.0128
  177OCT     C3 4584   0.558   2.809   2.752 -0.4193  0.0984 -0.1876
  177OCT    H31 4585   0.531   2.833   2.858 -0.0070 -0.1473 -0.9550
  177OCT    H32 4586   0.528   2.898   2.699  1.0776  0.3698  1.3349
  177OCT     C4 4587   0.494   2.676   2.728 -0.1991 -0.0141  0.7678
  177OCT    H41 4588   0.494   2.652   2.617  0.5872  0.5634 -0.1201
  177OCT    H42 4589   0.556   2.595   2.783  1.4601 -1.7895  1.3918
  177OCT     C5 4590   0.349   2.678   2.756 -0.0474 -0.0534 -0.0845
  177OCT    H51 4591   0.337   2.709   2.858  2.7156 -1.6854  0.9074
  177OCT    H52 4592   0.295   2.761   2.698 -0.8610  0.9648  2.5532
  177OCT     C6 4593   0.275   2.542   2.716 -0.6730  0.1586 -0.4828
  177OCT    H61 4594   0.342   2.454   2.722 -1.8395 -1.0523 -1.0929
  177OCT    H62 4595   0.192   2.526   2.788  0.0880 -0.0280  0.8970
  177OCT     C7 4596   0.214   2.529   2.572 -0.1814  0.1771  0.0998
  177OCT    H71 4597   0.162   2.631   2.559  0.5403  0.9020  0.2081
  177OCT    H72 4598   0.300   2.518   2.496  1.7980 -0.4262 -1.4495
  177OCT     C8 4599   0.124   2.409   2.556  0.8506  0.3968 -0.0532
  177OCT    H81 4600   0.058   2.393   2.643 -2.5998  0.3365  1.0532
  177OCT    H82 4601   0.046   2.419   2.474 -0.3067 -3.6559  0.6309
  177OCT    H83 4602   0.176   2.311   2.544  3.8686 -1.5871  0.4167
  178OCT     C1 4603   0.414   0.460   1.474 -0.4336 -0.5067 -0.1965
  178OCT    H11 4604   0.507   0.428   1.415  2.0093  0.5116  0.3489
  178OCT    H12 4605   0.349   0.526   1.416  0.7897 -6.3910 -0.5733
  178OCT    H13 4606   0.456   0.513   1.568 -2.4488  0.3564  2.6391
  178OCT     C2 4607   0.336   0.338   1.523 -0.5536  0.1117  0.4750
  178OCT    H21 4608   0.394   0.290   1.609  1.3434 -3.6043  1.3171
  178OCT    H22 4609   0.237   0.368   1.562 -0.8714  0.5666  0.4250
  178OCT     C3 4610   0.321   0.226   1.420 -0.0904 -0.4271 -0.2543
  178OCT    H31 4611   0.270   0.138   1.473 -2.8409  0.6955 -0.0316
  178OCT    H32 4612   0.270   0.257   1.329 -0.9033 -1.4720 -0.3868
  178OCT     C4 4613   0.455   0.160   1.376  0.2590  0.3403 -0.4853
  178OCT    H41 4614   0.516   0.226   1.320 -0.9974 -0.9406 -0.6333
  178OCT    H42 4615   0.504   0.126   1.461 -1.1917  1.3769 -1.9238
  178OCT     C5 4616   0.449   0.025   1.293 -0.2764  0.1334  0.2243
  178OCT    H51 4617   0.399   0.054   1.198  1.7627  1.3420  0.7813
  178OCT    H52 4618   0.554  -0.005   1.276  0.6803 -0.6260  1.9506
  178OCT     C6 4619   0.386  -0.088   1.371  0.2404  0.3415  0.2112
  178OCT    H61 4620   0.437  -0.098   1.472 -2.9781  1.5571 -2.4142
  178OCT    H62 4621   0.280  -0.076   1.362  1.9114  1.1002 -1.0509
  178OCT     C7 4622   0.414  -0.220   1.305  0.3763 -0.3801  0.3430
  178OCT    H71 4623   0.514  -0.262   1.328 -0.6167  1.3475 -2.7764
  178OCT    H72 4624   0.343  -0.294   1.351 -2.2833 -2.2524 -0.8466
  178OCT     C8 4625   0.399  -0.229   1.150  0.5386 -0.4782  0.0803
  178OCT    H81 4626   0.303  -0.173   1.135  0.3732 -0.1937  0.4464
  178OCT    H82 4627   0.477  -0.180   1.096 -0.7434 -0.2659 -1.0325
  178OCT    H83 4628   0.374  -0.329   1.106 -4.6708  0.3875 -0.5749
  179OCT     C1 4629   0.267   2.324   0.876 -0.4830  0.2443 -0.1712
  179OCT    H11 4630   0.167   2.333   0.914  1.5674  0.5519 -2.3566
  179OCT    H12 4631   0.272   2.225   0.824 -2.1369 -1.2726  0.7541
  179OCT    H13 4632   0.333   2.309   0.961 -0.3474 -1.1007 -0.1162
  179OCT     C2 4633   0.323   2.440   0.790 -0.3561  0.2318  0.0967
  179OCT    H21 4634   0.423   2.397   0.749  0.4689 -1.7385  2.7285
  179OCT    H22 4635   0.251   2.452   0.709 -0.0642 -3.0125  0.4199
  179OCT     C3 4636   0.364   2.564   0.863 -0.0930  0.4012 -1.2310
  179OCT    H31 4637   0.277   2.601   0.919 -0.4149  0.3219 -2.6190
  179OCT    H32 4638   0.454   2.527   0.928  2.5483 -1.7299 -1.4401
  179OCT     C4 4639   0.408   2.681   0.778 -0.2326  0.2495 -0.8466
  179OCT    H41 4640   0.500   2.652   0.725 -0.5767  2.4166 -0.9105
  179OCT    H42 4641   0.322   2.696   0.711  1.3084 -0.8143  0.1255
  179OCT     C5 4642   0.442   2.812   0.857 -0.2168  0.3919  0.4205
  179OCT    H51 4643   0.461   2.888   0.779 -1.0200 -0.8914  1.7009
  179OCT    H52 4644   0.363   2.850   0.910  0.3901 -1.9373  0.2256
  179OCT     C6 4645   0.570   2.796   0.945 -0.1047  0.0588  0.4557
  179OCT    H61 4646   0.555   2.734   1.031  0.6125  2.5451  0.0206
  179OCT    H62 4647   0.642   2.730   0.884  1.0602 -1.1000 -3.2435
  179OCT     C7 4648   0.633   2.931   0.994 -0.5541  0.2696  0.1237
  179OCT    H71 4649   0.727   2.890   1.042 -1.0373 -0.2744  2.6796
  179OCT    H72 4650   0.654   2.992   0.909  0.5352 -0.6616  2.0647
  179OCT     C8 4651   0.552   3.008   1.099  0.0250  0.0077 -0.1596
  179OCT    H81 4652   0.603   3.101   1.131  0.8893 -2.6732 -3.5987
  179OCT    H82 4653   0.450   3.027   1.063  0.3303 -0.5988 -1.2427
  179OCT    H83 4654   0.536   2.941   1.191  1.5648  0.8675  2.3298
  180OCT     C1 4655   2.240   0.190   3.008  0.2842 -0.0263 -0.3548
  180OCT    H11 4656   2.292   0.267   2.946  1.0478  0.1006 -0.2174
  180OCT    H12 4657   2.132   0.169   2.973  0.5812  2.0946 -1.3607
  180OCT    H13 4658   2.224   0.234   3.107  0.5932 -0.0741  0.4927
  180OCT     C2 4659   2.322   0.066   3.019  0.1897  0.6829 -0.0132
  180OCT    H21 4660   2.271  -0.007   3.089 -2.8480 -1.0596 -2.3820
  180OCT    H22 4661   2.319   0.016   2.915 -0.6627 -2.2307 -4.2885
  180OCT     C3 4662   2.467   0.092   3.061  0.4584 -0.2765 -0.8670
  180OCT    H31 4663   2.524   0.149   2.985  1.0912 -1.1783 -1.0558
  180OCT    H32 4664   2.451   0.163   3.149  1.1800 -2.2583 -2.1849
  180OCT     C4 4665   2.544  -0.035   3.107  0.2343  0.3334 -0.1318
  180OCT    H41 4666   2.511  -0.086   3.198 -0.1352 -1.1748  0.2900
  180OCT    H42 4667   2.536  -0.101   3.017  1.0621 -1.5925 -0.5258
  180OCT     C5 4668   2.699  -0.014   3.120 -0.4831  0.6707  0.0341
  180OCT    H51 4669   2.743  -0.115   3.121  0.4007  4.8306  1.5865
  180OCT    H52 4670   2.734   0.035   3.022  0.1564 -0.2366  1.1883
  180OCT     C6 4671   2.744   0.059   3.246 -0.3050  0.6487  0.3562
  180OCT    H61 4672   2.715   0.170   3.245  2.2761  1.3071  1.1162
  180OCT    H62 4673   2.704   0.004   3.332  4.3685 -2.9835 -0.8877
  180OCT     C7 4674   2.898   0.061   3.267  0.3617  0.8123 -0.1390
  180OCT    H71 4675   2.908   0.080   3.380 -2.6647 -1.8234  0.2319
  180OCT    H72 4676   2.948  -0.039   3.264 -0.9207 -1.1634  0.8951
  180OCT     C8 4677   2.956   0.169   3.178 -1.0111 -0.1305 -0.2292
  180OCT    H81 4678   2.915   0.262   3.211 -0.9064 -2.0959 -1.6818
  180OCT    H82 4679   3.070   0.172   3.175  2.5426  0.7895 -3.2905
  180OCT    H83 4680   2.925   0.160   3.076  2.6822 -1.1402  0.0168
  181OCT     C1 4681   3.267   2.834   2.183  0.1912 -0.4821  0.8797
  181OCT    H11 4682   3.325   2.897   2.257  2.7720 -0.1492  0.1124
  181OCT    H12 4683   3.251   2.739   2.233  2.4079 -0.4735  0.8539
  181OCT    H13 4684   3.331   2.825   2.087 -1.9492 -0.3220 -2.6780
  181OCT     C2 4685   3.138   2.905   2.137 -0.0232 -0.4030 -0.9389
  181OCT    H21 4686   3.163   2.996   2.086  1.8449 -3.0082 -0.0385
  181OCT    H22 4687   3.091   2.844   2.065 -0.3871  2.4220  1.0272
  181OCT     C3 4688   3.029   2.924   2.254  0.0414 -0.1501 -0.2977
  181OCT    H31 4689   2.992   2.824   2.279 -1.2634 -0.4066 -2.0192
  181OCT    H32 4690   3.088   2.965   2.340  0.0331 -2.5181  0.3234
  181OCT     C4 4691   2.924   3.031   2.218 -0.4103 -0.8832 -0.4472
  181OCT    H41 4692   2.944   3.126   2.271 -0.8394 -1.7629  2.5942
  181OCT    H42 4693   2.953   3.062   2.113 -0.8956  3.4087  0.7439
  181OCT     C5 4694   2.779   2.993   2.241  0.0254  0.5710  0.4580
  181OCT    H51 4695   2.724   3.069   2.201  0.3681 -2.0096  1.2756
  181OCT    H52 4696   2.742   2.895   2.204 -0.7584 -2.9597  1.7297
  181OCT     C6 4697   2.755   2.973   2.389  0.9911  0.2263 -0.7200
  181OCT    H61 4698   2.814   2.880   2.418  1.2342  1.3065  0.5568
  181OCT    H62 4699   2.802   3.061   2.439 -0.1622 -0.3955 -0.7564
  181OCT     C7 4700   2.603   2.959   2.419 -0.7178 -0.2552  0.3740
  181OCT    H71 4701   2.556   3.052   2.374  2.2530  4.0369 -3.1506
  181OCT    H72 4702   2.569   2.871   2.350 -1.1952  1.0303 -1.8303
  181OCT     C8 4703   2.576   2.941   2.569  0.1533 -0.2244 -0.1334
  181OCT    H81 4704   2.660   2.870   2.608  2.0003 -1.4531  1.0036
  181OCT    H82 4705   2.598   3.033   2.626 -1.7287 -1.7658 -0.0974
  181OCT    H83 4706   2.485   2.879   2.589  1.3188 -1.9329 -0.4282
  182OCT     C1 4707   2.977   2.477   3.530 -0.7125 -0.6095 -0.2249
  182OCT    H11 4708   3.058   2.408   3.568 -1.4902 -0.9619 -1.2438
  182OCT    H12 4709   2.894   2.455   3.594  3.3987  0.6902 -1.3482
  182OCT    H13 4710   2.966   2.458   3.421  0.4782  0.3589 -0.7609
  182OCT     C2 4711   3.027   2.618   3.568  0.0306 -0.8415  0.4837
  182OCT    H21 4712   2.946   2.688   3.552  0.6749  0.1556  2.0859
  182OCT    H22 4713   3.067   2.624   3.670  1.7557  0.2115  1.0795
  182OCT     C3 4714   3.150   2.665   3.488  0.3070  0.5389 -0.3526
  182OCT    H31 4715   3.221   2.574   3.487  0.6953 -0.4438  2.3423
  182OCT    H32 4716   3.120   2.686   3.384  0.0022 -2.5383 -1.9286
  182OCT     C4 4717   3.222   2.777   3.563  0.0910  0.0686 -0.4176
  182OCT    H41 4718   3.150   2.857   3.564  1.6640 -0.8206 -0.6562
  182OCT    H42 4719   3.246   2.758   3.667 -2.7683  1.7425 -2.1460
  182OCT     C5 4720   3.346   2.834   3.490  0.1433 -0.2032  0.2018
  182OCT    H51 4721   3.429   2.760   3.466  1.9025  1.2682 -0.0927
  182OCT    H52 4722   3.315   2.879   3.397  2.2631 -1.5740  2.8918
  182OCT     C6 4723   3.400   2.941   3.585  0.6180  0.2704  0.1794
  182OCT    H61 4724   3.438   2.887   3.674 -0.0591  0.7209  0.2201
  182OCT    H62 4725   3.487   2.992   3.540  0.0757 -1.1152  0.0626
  182OCT     C7 4726   3.298   3.046   3.624 -0.3226  0.3299 -0.3335
  182OCT    H71 4727   3.236   3.093   3.539 -2.0995  3.6814 -0.3657
  182OCT    H72 4728   3.214   3.006   3.690 -2.2305 -0.4660  0.6199
  182OCT     C8 4729   3.363   3.167   3.697  0.1094 -0.1867 -0.1987
  182OCT    H81 4730   3.396   3.125   3.797 -0.7000  1.5401  1.4158
  182OCT    H82 4731   3.453   3.216   3.659  0.7173 -1.8115 -0.9681
  182OCT    H83 4732   3.283   3.241   3.711 -1.2256 -2.3298  1.5352
  183OCT     C1 4733   4.196   3.409   3.489 -0.0208  0.2730  0.0372
  183OCT    H11 4734   4.209   3.321   3.551 -0.8150  1.2580  0.1196
  183OCT    H12 4735   4.089   3.405   3.458 -0.2445  0.5741  1.1668
  183OCT    H13 4736   4.254   3.405   3.397  0.0308 -0.4163 -1.1455
  183OCT     C2 4737   4.221   3.539   3.563 -0.1996  0.0220 -0.8305
  183OCT    H21 4738   4.146   3.551   3.642  0.7446  1.1929 -1.1699
  183OCT    H22 4739   4.316   3.538   3.617 -4.5519 -0.0555  2.3964
  183OCT     C3 4740   4.207   3.671   3.473  0.0810  0.3203 -0.5711
  183OCT    H31 4741   4.232   3.757   3.540 -0.8235 -0.1848 -0.3654
  183OCT    H32 4742   4.283   3.676   3.394  0.7888 -1.3964  2.4094
  183OCT     C4 4743   4.056   3.675   3.429 -0.3560 -0.1553 -0.3910
  183OCT    H41 4744   4.026   3.594   3.367 -2.4161  1.9426 -0.5607
  183OCT    H42 4745   3.998   3.667   3.524  2.0237 -1.7416  2.0558
  183OCT     C5 4746   4.020   3.805   3.355  0.2120  0.5726 -0.0073
  183OCT    H51 4747   4.010   3.891   3.427 -1.6158 -3.0175  1.9150
  183OCT    H52 4748   4.086   3.836   3.277 -0.2873  2.9432  1.5888
  183OCT     C6 4749   3.875   3.796   3.311 -0.3388  0.9119 -0.0442
  183OCT    H61 4750   3.860   3.703   3.260  0.4674  0.8064 -1.7141
  183OCT    H62 4751   3.803   3.820   3.389  1.2323  0.8879  0.6879
  183OCT     C7 4752   3.856   3.896   3.191  0.0093 -0.1126 -0.1311
  183OCT    H71 4753   3.890   4.001   3.217 -1.7190  1.0261 -1.0954
  183OCT    H72 4754   3.917   3.863   3.100 -2.2295 -2.8392  0.2262
  183OCT     C8 4755   3.708   3.914   3.143  0.1911  0.6037 -0.4544
  183OCT    H81 4756   3.664   3.815   3.113  0.6987  1.1276 -1.4660
  183OCT    H82 4757   3.640   3.954   3.216 -1.5567 -0.4108  1.8799
  183OCT    H83 4758   3.695   3.975   3.050  0.0429 -1.2060 -0.3304
  184OCT     C1 4759   3.540   1.434   4.155  0.1091 -0.0639  0.3817
  184OCT    H11 4760   3.649   1.422   4.143 -1.2550 -0.3128  1.9590
  184OCT    H12 4761   3.505   1.340   4.123 -1.7581  1.0049 -2.2894
  184OCT    H13 4762   3.511   1.512   4.083  1.8604 -3.4379 -0.1487
  184OCT     C2 4763   3.503   1.471   4.301  0.1861 -0.0442 -0.4055
  184OCT    H21 4764   3.390   1.475   4.304  0.6050  0.4237 -2.6024
  184OCT    H22 4765   3.536   1.387   4.362  0.5806  1.7844 -2.7521
  184OCT     C3 4766   3.565   1.605   4.330 -0.3327 -0.6020  0.0567
  184OCT    H31 4767   3.674   1.599   4.308  2.9759 -2.2535  1.1513
  184OCT    H32 4768   3.522   1.696   4.264  0.5839  3.0551 -3.1695
  184OCT     C4 4769   3.531   1.656   4.468  0.0107 -0.1048 -0.6876
  184OCT    H41 4770   3.543   1.764   4.463 -0.0810 -0.2250 -1.8345
  184OCT    H42 4771   3.418   1.639   4.491  1.5451 -0.3873 -2.0358
  184OCT     C5 4772   3.605   1.596   4.591 -0.4108 -0.2574  0.0292
  184OCT    H51 4773   3.582   1.483   4.584  2.2542 -1.7004  0.5992
  184OCT    H52 4774   3.713   1.606   4.596 -0.3702 -0.0052 -0.3262
  184OCT     C6 4775   3.540   1.639   4.725 -0.3094  0.0690  0.1910
  184OCT    H61 4776   3.531   1.745   4.742 -0.0517  0.0765 -0.7310
  184OCT    H62 4777   3.432   1.599   4.726 -1.1425 -1.6754 -0.3975
  184OCT     C7 4778   3.618   1.589   4.849  0.2190 -0.6517 -0.5815
  184OCT    H71 4779   3.710   1.656   4.852  0.5763 -0.6291  0.8274
  184OCT    H72 4780   3.556   1.610   4.943  0.2049  0.6971  1.0723
  184OCT     C8 4781   3.674   1.450   4.850  0.3951 -0.5494 -0.1182
  184OCT    H81 4782   3.743   1.447   4.934 -0.1525  1.0813 -1.4520
  184OCT    H82 4783   3.588   1.374   4.875  0.4443 -0.6645 -1.2170
  184OCT    H83 4784   3.720   1.425   4.751  0.3235  1.3779  1.4919
  185OCT     C1 4785   2.043   0.002   2.739 -0.5512 -0.4829 -0.0079
  185OCT    H11 4786   2.008   0.051   2.830  2.3142  1.4980  1.2142
  185OCT    H12 4787   1.964  -0.070   2.706  0.0775 -1.5145  2.8079
  185OCT    H13 4788   2.134  -0.053   2.777 -1.0394 -3.1775 -0.2703
  185OCT     C2 4789   2.079   0.101   2.627  0.0036 -0.0819  0.0894
  185OCT    H21 4790   1.986   0.151   2.602  0.9493 -1.0982  1.2976
  185OCT    H22 4791   2.164   0.163   2.671 -0.3830 -0.0171 -1.5175
  185OCT     C3 4792   2.139   0.031   2.499  0.3661  0.4300 -0.6438
  185OCT    H31 4793   2.218  -0.038   2.537 -1.4030 -0.5350  1.5719
  185OCT    H32 4794   2.054  -0.027   2.451 -1.5200 -0.7047 -1.2751
  185OCT     C4 4795   2.199   0.142   2.413 -0.5725 -0.5081 -0.5942
  185OCT    H41 4796   2.118   0.221   2.383 -1.2594  1.4424 -0.4392
  185OCT    H42 4797   2.286   0.197   2.470  0.4730 -0.7581  3.2329
  185OCT     C5 4798   2.260   0.086   2.277 -0.7052  0.1825  0.0445
  185OCT    H51 4799   2.341   0.020   2.298 -0.6459  0.6708 -0.2960
  185OCT    H52 4800   2.187   0.020   2.227  0.2054  1.7302  0.1157
  185OCT     C6 4801   2.299   0.203   2.183  0.7427  0.7597  0.0468
  185OCT    H61 4802   2.340   0.177   2.087  1.8347 -1.1117  3.1388
  185OCT    H62 4803   2.205   0.253   2.153  0.3088 -0.1067  2.2101
  185OCT     C7 4804   2.395   0.310   2.239 -0.2552  0.5463 -0.3205
  185OCT    H71 4805   2.342   0.377   2.320 -2.1752  4.6487 -1.0976
  185OCT    H72 4806   2.477   0.255   2.290 -0.3959  0.4656 -1.9242
  185OCT     C8 4807   2.461   0.414   2.149 -0.3529 -0.3908 -0.2116
  185OCT    H81 4808   2.544   0.364   2.096 -0.1789  0.3163  0.0040
  185OCT    H82 4809   2.388   0.456   2.074 -1.1199 -0.3395 -1.2997
  185OCT    H83 4810   2.496   0.495   2.220  2.3913  0.3166  0.0378
  186OCT     C1 4811   4.359   2.519   2.035  0.6736  0.4791 -0.3309
  186OCT    H11 4812   4.369   2.546   2.140 -0.6778  0.6522 -3.2813
  186OCT    H12 4813   4.331   2.412   2.030 -0.8270  0.3206  1.2099
  186OCT    H13 4814   4.457   2.539   1.991  1.5866  0.2789  2.7238
  186OCT     C2 4815   4.257   2.609   1.958 -0.6106  0.9130 -0.4219
  186OCT    H21 4816   4.284   2.715   1.969  0.0776  1.5353 -0.4499
  186OCT    H22 4817   4.262   2.577   1.857  2.5353 -2.0170  1.5258
  186OCT     C3 4818   4.109   2.589   2.008  0.0639  0.3753 -0.2410
  186OCT    H31 4819   4.085   2.483   2.024  1.0127 -0.6454 -0.0029
  186OCT    H32 4820   4.093   2.641   2.106 -0.1673  2.0087  2.5703
  186OCT     C4 4821   4.021   2.665   1.911 -0.5755  0.7905 -0.0043
  186OCT    H41 4822   4.064   2.765   1.896 -2.1160  0.0051  0.0465
  186OCT    H42 4823   4.012   2.618   1.812  2.1927  0.4701  0.6370
  186OCT     C5 4824   3.885   2.696   1.974  0.6444 -0.0373  0.6504
  186OCT    H51 4825   3.812   2.611   1.969  0.5529  2.4103 -1.6289
  186OCT    H52 4826   3.900   2.731   2.077  1.2040  0.8748 -0.3660
  186OCT     C6 4827   3.816   2.808   1.888  1.5922 -0.8310  0.3748
  186OCT    H61 4828   3.877   2.898   1.877 -1.1626 -0.7187 -1.9466
  186OCT    H62 4829   3.792   2.765   1.788 -0.3871 -1.9805 -1.9191
  186OCT     C7 4830   3.684   2.871   1.935  0.1333 -0.3979 -0.0440
  186OCT    H71 4831   3.611   2.782   1.955 -0.1715  0.2579 -0.4327
  186OCT    H72 4832   3.705   2.912   2.040  2.1152 -1.0805 -2.3683
  186OCT     C8 4833   3.624   2.980   1.847  0.1593 -0.3277  0.5009
  186OCT    H81 4834   3.692   3.064   1.855 -3.9609 -2.9767 -0.7448
  186OCT    H82 4835   3.610   2.956   1.740  0.2942  1.0108 -1.0098
  186OCT    H83 4836   3.517   3.002   1.877  0.5519 -2.6374 -1.0116
  187OCT     C1 4837   4.259   2.033   2.648 -0.0320 -0.2623  0.1273
  187OCT    H11 4838   4.159   1.987   2.656 -0.4458  1.3404  0.3104
  187OCT    H12 4839   4.246   2.117   2.578  0.6164 -1.9484 -3.5621
  187OCT    H13 4840   4.338   1.962   2.620 -1.4856 -5.1192  0.7657
  187OCT     C2 4841   4.296   2.099   2.782  0.6673 -0.2962 -0.2043
  187OCT    H21 4842   4.341   2.024   2.850 -1.1155 -1.5776  2.8600
  187OCT    H22 4843   4.366   2.179   2.760  1.4702  0.0524 -0.3151
  187OCT     C3 4844   4.179   2.159   2.866  0.5659  0.7606 -1.2796
  187OCT    H31 4845   4.101   2.082   2.886  1.6811 -0.6248 -2.6698
  187OCT    H32 4846   4.208   2.183   2.965 -1.0245 -1.2023  0.3607
  187OCT     C4 4847   4.104   2.275   2.805  0.3766  0.0576  0.0986
  187OCT    H41 4848   4.183   2.336   2.757  0.3683 -1.5801 -1.4258
  187OCT    H42 4849   4.047   2.238   2.725  3.6501  1.2723  0.8564
  187OCT     C5 4850   4.010   2.348   2.910 -0.9062 -0.3959  0.8448
  187OCT    H51 4851   4.078   2.361   2.999 -2.3971 -0.8640 -1.3692
  187OCT    H52 4852   3.973   2.439   2.857  0.8791  0.1269  0.3925
  187OCT     C6 4853   3.897   2.258   2.947 -0.0856  0.2498  0.0763
  187OCT    H61 4854   3.824   2.244   2.868 -0.5347 -0.0393  0.4918
  187OCT    H62 4855   3.937   2.159   2.972 -1.7778  0.7678  0.6054
  187OCT     C7 4856   3.831   2.309   3.070 -0.5417 -0.1012  0.8933
  187OCT    H71 4857   3.914   2.341   3.137  0.2929  2.6845 -4.1771
  187OCT    H72 4858   3.773   2.405   3.058 -0.3576 -0.1438  2.2399
  187OCT     C8 4859   3.748   2.204   3.141  0.2488  0.1910  0.1006
  187OCT    H81 4860   3.798   2.107   3.141  0.2523  0.5713 -2.5672
  187OCT    H82 4861   3.714   2.223   3.244 -0.6160 -1.4732 -0.6193
  187OCT    H83 4862   3.656   2.185   3.087 -0.4020  0.0583  2.5223
  188OCT     C1 4863   1.170   0.034   2.831  0.6336  0.0082 -0.0987
  188OCT    H11 4864   1.281   0.030   2.828 -1.0895 -2.0281  0.8529
  188OCT    H12 4865   1.130   0.108   2.762 -0.3144 -1.1564  1.3910
  188OCT    H13 4866   1.131   0.063   2.926 -0.4064 -1.0220 -1.4023
  188OCT     C2 4867   1.108  -0.102   2.796 -0.4041 -0.1327  0.4693
  188OCT    H21 4868   0.992  -0.087   2.797 -0.3378  0.8098  0.2004
  188OCT    H22 4869   1.122  -0.132   2.687 -0.2132  0.3323 -0.8835
  188OCT     C3 4870   1.155  -0.211   2.888  0.3623 -1.0231 -0.0068
  188OCT    H31 4871   1.260  -0.226   2.863  1.7403 -1.4027 -0.5400
  188OCT    H32 4872   1.153  -0.195   3.003 -0.3292 -1.7184  0.3399
  188OCT     C4 4873   1.078  -0.338   2.872 -0.1414 -0.1189 -0.0180
  188OCT    H41 4874   0.972  -0.314   2.888 -0.4954  0.9531 -2.7806
  188OCT    H42 4875   1.073  -0.371   2.763  1.5491  0.1756 -2.1874
  188OCT     C5 4876   1.129  -0.448   2.962 -0.5109  0.3636  0.4578
  188OCT    H51 4877   1.233  -0.459   2.931  1.1636  0.6052 -1.9794
  188OCT    H52 4878   1.130  -0.406   3.061 -2.5971 -1.7280 -0.9325
  188OCT     C6 4879   1.048  -0.580   2.963  0.5007 -0.1908 -0.4140
  188OCT    H61 4880   0.942  -0.568   3.001 -0.8753 -4.4053  0.2690
  188OCT    H62 4881   1.044  -0.627   2.862 -2.5170 -2.1998 -0.2434
  188OCT     C7 4882   1.118  -0.680   3.062  0.8678 -0.1318 -0.4416
  188OCT    H71 4883   1.223  -0.681   3.041 -4.7455  0.8423  0.3580
  188OCT    H72 4884   1.109  -0.654   3.171 -1.4108  2.0508 -1.7479
  188OCT     C8 4885   1.055  -0.817   3.041  0.5154  0.4896 -0.5916
  188OCT    H81 4886   1.075  -0.865   2.942  2.0008 -2.7875  0.2332
  188OCT    H82 4887   1.103  -0.887   3.108 -0.8111 -0.3535  0.2223
  188OCT    H83 4888   0.946  -0.806   3.053  0.4299  4.3837 -1.6833
  189OCT     C1 4889   0.606   3.348   1.942 -0.1888  0.4281 -0.2301
  189OCT    H11 4890   0.557   3.442   1.915  1.1638 -0.0227  0.9864
  189OCT    H12 4891   0.614   3.338   2.048 -0.9495 -3.4634  1.0203
  189OCT    H13 4892   0.710   3.356   1.899  0.6429  2.3683 -0.3799
  189OCT     C2 4893   0.537   3.228   1.882  0.5421  0.3900  0.6043
  189OCT    H21 4894   0.543   3.237   1.776  0.7672 -1.0318  0.8461
  189OCT    H22 4895   0.595   3.130   1.907  3.6332 -4.1543 -2.7061
  189OCT     C3 4896   0.391   3.226   1.923  0.6124  0.4784 -0.3869
  189OCT    H31 4897   0.392   3.204   2.031  1.2045  2.7876  0.6215
  189OCT    H32 4898   0.352   3.335   1.921  3.3408  3.0023 -0.6792
  189OCT     C4 4899   0.288   3.139   1.837  0.3005  1.1938 -0.0921
  189OCT    H41 4900   0.186   3.159   1.868  2.6037 -0.4064  0.8798
  189OCT    H42 4901   0.292   3.166   1.731  1.2380 -1.4334 -0.7969
  189OCT     C5 4902   0.310   2.984   1.855 -0.5645  0.0912  0.2710
  189OCT    H51 4903   0.413   2.964   1.811 -2.5277  1.0952  0.1345
  189OCT    H52 4904   0.293   2.948   1.955 -0.3683  1.9759 -0.6163
  189OCT     C6 4905   0.214   2.903   1.764 -1.0216  1.1585  0.1772
  189OCT    H61 4906   0.113   2.921   1.791  0.8380  0.5671  0.6132
  189OCT    H62 4907   0.225   2.930   1.653  2.6118 -0.4974 -0.9130
  189OCT     C7 4908   0.244   2.750   1.774 -0.1791 -0.5814  0.2495
  189OCT    H71 4909   0.343   2.724   1.750 -3.5617 -0.1932  0.0287
  189OCT    H72 4910   0.237   2.715   1.877 -0.1176  1.0290 -0.7227
  189OCT     C8 4911   0.152   2.665   1.681 -0.0430 -0.1966 -0.5991
  189OCT    H81 4912   0.159   2.554   1.711  1.7594  0.6699  1.4250
  189OCT    H82 4913   0.047   2.697   1.696  0.2887  2.5031  0.0266
  189OCT    H83 4914   0.168   2.680   1.575 -2.9010 -0.9376 -0.5216
  190OCT     C1 4915   0.196   1.665   4.039  0.1372  0.0656 -0.2227
  190OCT    H11 4916   0.239   1.610   4.131 -0.0078 -2.7946  0.1610
  190OCT    H12 4917   0.086   1.631   4.018 -3.6036  0.3665 -3.0440
  190OCT    H13 4918   0.260   1.646   3.958 -2.1069  0.9144 -2.0257
  190OCT     C2 4919   0.187   1.813   4.062 -0.1360  0.1512 -0.4890
  190OCT    H21 4920   0.164   1.873   3.970  1.7506  1.2460 -0.3049
  190OCT    H22 4921   0.114   1.829   4.141 -3.5091  1.3193  1.2061
  190OCT     C3 4922   0.313   1.893   4.115 -0.7315  0.2192 -0.3877
  190OCT    H31 4923   0.337   1.846   4.211 -0.1913  2.7038 -1.3067
  190OCT    H32 4924   0.399   1.874   4.032  2.2416  1.2370 -2.7193
  190OCT     C4 4925   0.299   2.047   4.137 -0.0655  1.6829  0.1572
  190OCT    H41 4926   0.304   2.087   4.029 -0.7124 -0.5563  0.3246
  190OCT    H42 4927   0.203   2.074   4.182  0.8561  1.4722 -0.3834
  190OCT     C5 4928   0.420   2.114   4.191 -0.2753  0.1819 -0.0557
  190OCT    H51 4929   0.434   2.077   4.293 -1.1168  2.5233 -3.4317
  190OCT    H52 4930   0.516   2.079   4.132  3.1060 -0.8882  1.9038
  190OCT     C6 4931   0.402   2.269   4.181 -0.1414 -0.2073 -0.2843
  190OCT    H61 4932   0.494   2.334   4.206  1.0862  1.8412  1.1598
  190OCT    H62 4933   0.377   2.288   4.076  2.2147  1.9442  0.3966
  190OCT     C7 4934   0.297   2.299   4.294 -0.1537 -1.1144  0.1144
  190OCT    H71 4935   0.251   2.398   4.256 -1.3727  0.3500  1.1781
  190OCT    H72 4936   0.222   2.230   4.323  1.3735  2.4835 -0.1596
  190OCT     C8 4937   0.350   2.341   4.435  0.4080  0.0478  0.0395
  190OCT    H81 4938   0.270   2.404   4.480 -0.9978 -0.8808 -0.3154
  190OCT    H82 4939   0.364   2.252   4.506  2.9026 -1.1340 -1.1803
  190OCT    H83 4940   0.450   2.392   4.429  1.0375  0.8840 -0.9336
  191OCT     C1 4941   0.898   1.329   2.164 -0.0103  1.2516  1.0216
  191OCT    H11 4942   0.879   1.291   2.261  0.4501  0.6485 -1.6217
  191OCT    H12 4943   0.999   1.281   2.146 -0.7839  1.1091 -1.7309
  191OCT    H13 4944   0.901   1.430   2.157 -2.8763 -0.9661  2.3089
  191OCT     C2 4945   0.790   1.270   2.072 -0.5415  0.4401 -0.1826
  191OCT    H21 4946   0.696   1.318   2.109  1.5533 -1.4373  1.2661
  191OCT    H22 4947   0.821   1.298   1.966  0.3422  0.6277 -0.9385
  191OCT     C3 4948   0.778   1.119   2.062 -0.0239  0.0148  0.2464
  191OCT    H31 4949   0.869   1.071   2.027  0.7587  1.2010  3.2346
  191OCT    H32 4950   0.752   1.080   2.166  0.5518  0.6970 -2.2305
  191OCT     C4 4951   0.662   1.072   1.970  0.2499 -0.1306  0.1838
  191OCT    H41 4952   0.567   1.095   2.026 -0.4853 -0.5193  0.3359
  191OCT    H42 4953   0.653   1.137   1.876  0.1344  0.3209 -2.4121
  191OCT     C5 4954   0.678   0.924   1.928  0.0848  0.3421  0.6518
  191OCT    H51 4955   0.779   0.918   1.886 -2.8163  0.8911  0.3967
  191OCT    H52 4956   0.673   0.850   2.005 -1.6725 -0.4901 -0.8264
  191OCT     C6 4957   0.589   0.878   1.813 -0.5030  0.0199  0.3184
  191OCT    H61 4958   0.576   0.964   1.744  1.2377  1.3015  3.2855
  191OCT    H62 4959   0.647   0.801   1.753 -2.3051 -0.4714 -2.4004
  191OCT     C7 4960   0.452   0.821   1.845  0.5125 -0.3888 -0.6244
  191OCT    H71 4961   0.413   0.871   1.936  1.3000 -0.4508  1.0843
  191OCT    H72 4962   0.396   0.845   1.756  1.1279 -3.7385  1.2880
  191OCT     C8 4963   0.443   0.674   1.879  0.3733 -0.2104  0.2517
  191OCT    H81 4964   0.478   0.661   1.980 -2.2812  2.4007 -2.2846
  191OCT    H82 4965   0.337   0.632   1.876 -0.2980  0.6978 -0.8142
  191OCT    H83 4966   0.500   0.614   1.811 -0.3093  3.8570  0.8442
  192OCT     C1 4967   3.227   2.536   1.154  0.4696 -0.1455 -0.7892
  192OCT    H11 4968   3.290   2.470   1.222  2.0708 -2.4347 -1.1011
  192OCT    H12 4969   3.161   2.590   1.217  0.1709 -0.1269 -0.9980
  192OCT    H13 4970   3.159   2.461   1.100 -0.7146 -3.7569  0.9343
  192OCT     C2 4971   3.322   2.617   1.060  0.7949  0.8556  0.4662
  192OCT    H21 4972   3.254   2.660   0.979  0.3789  3.9721  0.3261
  192OCT    H22 4973   3.366   2.705   1.110 -1.0427 -2.8446  1.9126
  192OCT     C3 4974   3.434   2.532   0.995  0.1154 -0.2820 -0.7478
  192OCT    H31 4975   3.518   2.520   1.071  0.5266  0.9311  0.7695
  192OCT    H32 4976   3.385   2.428   0.975  0.2717 -2.2836  1.9093
  192OCT     C4 4977   3.496   2.594   0.875 -0.4592 -0.4859  0.6329
  192OCT    H41 4978   3.432   2.617   0.791  2.1614 -2.1426  0.4111
  192OCT    H42 4979   3.533   2.692   0.912 -2.8635 -1.4977 -0.4671
  192OCT     C5 4980   3.613   2.518   0.821 -0.2325 -0.4724  0.0060
  192OCT    H51 4981   3.693   2.507   0.894 -0.5792  0.7734 -2.6700
  192OCT    H52 4982   3.578   2.416   0.794  1.5232  2.8938 -0.7829
  192OCT     C6 4983   3.669   2.579   0.691  0.3067 -0.0786 -0.6153
  192OCT    H61 4984   3.577   2.557   0.626 -1.4802  2.6493 -0.5585
  192OCT    H62 4985   3.673   2.693   0.699 -0.8656  2.9803  0.9925
  192OCT     C7 4986   3.804   2.518   0.648 -0.6658 -0.6418  0.0115
  192OCT    H71 4987   3.806   2.402   0.662  1.2327 -3.1258 -2.7479
  192OCT    H72 4988   3.815   2.549   0.541 -0.5389 -0.2580 -1.7731
  192OCT     C8 4989   3.906   2.589   0.738 -0.1713  0.0076 -0.1748
  192OCT    H81 4990   3.907   2.700   0.739 -1.5696 -0.8017 -3.5122
  192OCT    H82 4991   3.891   2.566   0.846 -1.3186  2.5464 -1.4468
  192OCT    H83 4992   4.007   2.570   0.703 -2.0803  1.6967  0.7592
  193OCT     C1 4993   0.404   1.797   3.136  0.2219 -0.4007 -0.1584
  193OCT    H11 4994   0.471   1.730   3.077  3.7686 -0.8707  2.2900
  193OCT    H12 4995   0.314   1.738   3.185 -2.6763 -0.5676 -1.8904
  193OCT    H13 4996   0.357   1.860   3.054  0.4666 -3.6282 -0.5935
  193OCT     C2 4997   0.472   1.887   3.241  0.0081  0.2596  0.2871
  193OCT    H21 4998   0.405   1.914   3.321  0.3017 -0.1489  0.1797
  193OCT    H22 4999   0.546   1.820   3.278 -1.8927 -0.8486 -3.9826
  193OCT     C3 5000   0.553   2.011   3.196  0.0371 -0.0052 -0.2286
  193OCT    H31 5001   0.630   1.980   3.127  0.3328  1.5735 -0.3022
  193OCT    H32 5002   0.484   2.077   3.141  0.8909 -1.1247  0.0804
  193OCT     C4 5003   0.623   2.075   3.309  0.3412 -0.0492 -0.4827
  193OCT    H41 5004   0.558   2.147   3.364 -1.2008  0.3862  0.7138
  193OCT    H42 5005   0.658   2.011   3.388 -0.8240  1.8342  0.3295
  193OCT     C5 5006   0.752   2.143   3.252 -0.3822 -0.8595  0.6664
  193OCT    H51 5007   0.824   2.082   3.202 -2.2028  1.6183  1.5917
  193OCT    H52 5008   0.712   2.218   3.173 -0.6717  2.9532  0.6156
  193OCT     C6 5009   0.814   2.229   3.358 -0.0224 -0.7389 -0.1439
  193OCT    H61 5010   0.746   2.315   3.393 -1.9893  0.5197  1.2600
  193OCT    H62 5011   0.837   2.167   3.450  1.2818  0.4651  0.7649
  193OCT     C7 5012   0.947   2.295   3.310  0.5030  0.2757 -0.1880
  193OCT    H71 5013   0.969   2.379   3.387 -4.1108  4.5959  1.1287
  193OCT    H72 5014   1.014   2.210   3.309 -3.0694 -1.1202 -0.5116
  193OCT     C8 5015   0.947   2.353   3.169 -0.4220 -0.1838  0.3174
  193OCT    H81 5016   0.920   2.277   3.093 -2.8706  0.9429 -1.2760
  193OCT    H82 5017   0.865   2.431   3.173 -3.4223 -0.0996  0.4742
  193OCT    H83 5018   1.045   2.398   3.137 -0.7169  0.6681 -2.8048
  194OCT     C1 5019   3.120   3.461   2.459 -0.0770 -0.3622 -0.2353
  194OCT    H11 5020   3.216   3.474   2.411 -0.3922  1.5257 -0.3679
  194OCT    H12 5021   3.041   3.429   2.381  1.4899  0.6716 -1.4443
  194OCT    H13 5022   3.093   3.552   2.512  1.6680  1.8757 -0.0099
  194OCT     C2 5023   3.136   3.342   2.554 -0.1342  0.5829  0.6464
  194OCT    H21 5024   3.226   3.276   2.526  1.9701 -2.9256 -1.5687
  194OCT    H22 5025   3.157   3.384   2.656 -1.7068 -0.1721 -0.7686
  194OCT     C3 5026   3.012   3.253   2.568  0.0936  0.3835  0.5324
  194OCT    H31 5027   2.922   3.316   2.589  0.3851  1.0758  0.8425
  194OCT    H32 5028   2.992   3.204   2.467 -0.5712  1.4781  0.5551
  194OCT     C4 5029   3.013   3.138   2.672  0.2326 -0.1726  0.3718
  194OCT    H41 5030   3.028   3.188   2.767  0.2394  0.3009  0.7259
  194OCT    H42 5031   2.911   3.095   2.677  0.0109  2.6402  0.0070
  194OCT     C5 5032   3.117   3.030   2.649 -0.0851 -0.1232 -0.2320
  194OCT    H51 5033   3.092   2.974   2.555 -0.2146 -3.8167  1.7385
  194OCT    H52 5034   3.218   3.080   2.643 -0.5469  0.9950  1.6608
  194OCT     C6 5035   3.121   2.922   2.762  1.0670 -0.6149  0.7034
  194OCT    H61 5036   3.167   2.968   2.850 -1.8583  0.6435  0.6561
  194OCT    H62 5037   3.023   2.888   2.798  2.4719 -0.3895  2.3059
  194OCT     C7 5038   3.203   2.800   2.720  0.2711 -0.5127 -0.0716
  194OCT    H71 5039   3.204   2.731   2.811 -0.3848 -2.1135  0.4999
  194OCT    H72 5040   3.135   2.753   2.649 -0.0478 -0.7026  1.4476
  194OCT     C8 5041   3.336   2.836   2.661  0.3357  0.5046 -0.5919
  194OCT    H81 5042   3.395   2.743   2.636 -2.1829  0.1546 -0.4133
  194OCT    H82 5043   3.330   2.899   2.569 -1.5672  0.0042 -0.5032
  194OCT    H83 5044   3.398   2.890   2.739  0.2404  0.6663 -1.8606
  195OCT     C1 5045   1.899   1.758   3.177 -0.6542  0.3444  0.4010
  195OCT    H11 5046   2.005   1.743   3.137  1.1125  1.5505 -0.2405
  195OCT    H12 5047   1.885   1.647   3.203  1.8897 -2.2774 -1.1427
  195OCT    H13 5048   1.831   1.783   3.095 -1.1445  0.2943  3.0905
  195OCT     C2 5049   1.905   1.842   3.302  0.2242 -0.1629 -0.2250
  195OCT    H21 5050   1.803   1.840   3.347  0.5136 -0.7824  0.9935
  195OCT    H22 5051   1.982   1.808   3.375 -1.2447  1.3269 -2.6134
  195OCT     C3 5052   1.926   1.993   3.273 -0.1850  0.0485  0.3165
  195OCT    H31 5053   2.023   2.002   3.209  1.7549  3.8580 -1.2722
  195OCT    H32 5054   1.835   2.013   3.208 -1.0794  1.5960  0.4259
  195OCT     C4 5055   1.937   2.088   3.395  0.0558  0.3246 -0.1013
  195OCT    H41 5056   1.830   2.092   3.429  1.1960  2.0338 -1.5477
  195OCT    H42 5057   2.003   2.040   3.468 -2.8646  0.8560 -0.3842
  195OCT     C5 5058   1.985   2.230   3.356 -0.8496 -0.5136  0.0199
  195OCT    H51 5059   1.971   2.296   3.443  2.0402 -0.0945 -1.3602
  195OCT    H52 5060   2.101   2.229   3.342  0.9616 -0.5649  3.1829
  195OCT     C6 5061   1.918   2.298   3.232  0.8665  0.0300  0.0422
  195OCT    H61 5062   1.977   2.394   3.217 -0.1899  0.2244  0.2283
  195OCT    H62 5063   1.941   2.238   3.141  0.6399 -0.9346  1.0757
  195OCT     C7 5064   1.768   2.312   3.237  0.0391 -0.1512  1.1879
  195OCT    H71 5065   1.727   2.214   3.268  1.8851 -0.5122 -1.3746
  195OCT    H72 5066   1.742   2.386   3.315 -0.0222 -1.7788  0.0867
  195OCT     C8 5067   1.708   2.359   3.101 -0.2499 -0.2205 -0.2291
  195OCT    H81 5068   1.716   2.467   3.096  0.6003 -1.4953  0.4411
  195OCT    H82 5069   1.766   2.308   3.020 -1.5125  1.9365 -0.1336
  195OCT    H83 5070   1.605   2.319   3.096 -0.1147 -1.2887 -2.6053
  196OCT     C1 5071   3.244   1.989   3.354 -0.1095 -0.2843 -0.3684
  196OCT    H11 5072   3.309   2.077   3.341 -1.2226 -0.7830  0.2401
  196OCT    H12 5073   3.310   1.903   3.377 -0.2477  3.4079 -2.3878
  196OCT    H13 5074   3.184   1.969   3.265 -0.7283  1.3151  1.5777
  196OCT     C2 5075   3.149   2.016   3.469  0.5481 -0.0136 -0.4493
  196OCT    H21 5076   3.206   2.011   3.570  0.9654 -0.1026  1.3018
  196OCT    H22 5077   3.119   2.121   3.457 -1.9625 -0.5107  1.8445
  196OCT     C3 5078   3.030   1.923   3.474  0.2244  0.3733 -1.0407
  196OCT    H31 5079   2.972   1.923   3.380 -0.4212  2.2702  1.2336
  196OCT    H32 5080   3.082   1.824   3.495  0.0074  2.1132  1.1959
  196OCT     C4 5081   2.935   1.950   3.595  0.2403 -0.1942 -0.0989
  196OCT    H41 5082   3.011   1.967   3.681 -0.4539 -1.9452 -0.9184
  196OCT    H42 5083   2.878   2.043   3.588  0.0643  0.2805  0.1128
  196OCT     C5 5084   2.854   1.821   3.625 -0.3672 -0.0129  0.5414
  196OCT    H51 5085   2.801   1.794   3.532 -0.6098 -0.8675 -1.8478
  196OCT    H52 5086   2.926   1.744   3.658 -0.6930 -0.4571  0.9153
  196OCT     C6 5087   2.751   1.850   3.738 -0.2045  0.7166  0.4811
  196OCT    H61 5088   2.814   1.866   3.829  1.6311  0.1634 -1.1777
  196OCT    H62 5089   2.686   1.932   3.708  2.9158  0.5164 -2.6766
  196OCT     C7 5090   2.681   1.716   3.774 -0.0172  0.0918  0.2278
  196OCT    H71 5091   2.744   1.661   3.846 -0.1569  0.4622 -0.2133
  196OCT    H72 5092   2.587   1.733   3.831 -0.9119 -0.2693 -3.1003
  196OCT     C8 5093   2.639   1.622   3.662 -0.9890  0.0968  0.0221
  196OCT    H81 5094   2.710   1.628   3.572 -0.9156  1.2522  1.2424
  196OCT    H82 5095   2.649   1.517   3.692  0.7448  0.2399 -3.0169
  196OCT    H83 5096   2.532   1.644   3.633 -0.4144  0.6188 -1.1950
  197OCT     C1 5097   2.800   1.867   1.589 -0.5776  0.6015  0.8221
  197OCT    H11 5098   2.878   1.787   1.589  0.2072  3.1617  1.1916
  197OCT    H12 5099   2.860   1.960   1.594  1.0256 -1.0101 -0.5193
  197OCT    H13 5100   2.739   1.857   1.685 -1.3023 -1.5256  0.0934
  197OCT     C2 5101   2.716   1.842   1.461 -0.5383 -0.0970 -0.6159
  197OCT    H21 5102   2.657   1.938   1.440  0.5510 -0.6476 -1.2070
  197OCT    H22 5103   2.782   1.829   1.380 -0.2778  1.1486 -1.4710
  197OCT     C3 5104   2.613   1.728   1.475  0.0453 -0.7708 -0.2295
  197OCT    H31 5105   2.662   1.639   1.498  0.0545  1.4117  0.4599
  197OCT    H32 5106   2.538   1.759   1.553  0.1185 -0.6845 -0.9627
  197OCT     C4 5107   2.539   1.702   1.345  0.2617 -0.2070 -0.3703
  197OCT    H41 5108   2.442   1.642   1.372 -3.4163  0.8255  1.3764
  197OCT    H42 5109   2.497   1.800   1.301 -1.3624  1.2897  1.0916
  197OCT     C5 5110   2.610   1.629   1.237  0.5206 -0.1008  0.8007
  197OCT    H51 5111   2.711   1.673   1.227 -2.6423  0.5504 -0.0434
  197OCT    H52 5112   2.634   1.523   1.265 -1.5555  0.8335 -1.0042
  197OCT     C6 5113   2.534   1.614   1.103 -0.0033 -1.2657  0.7619
  197OCT    H61 5114   2.539   1.724   1.063  1.4730  1.7026  2.8063
  197OCT    H62 5115   2.592   1.570   1.025  2.9157  1.3032  0.9112
  197OCT     C7 5116   2.390   1.566   1.101  0.4989 -0.6959  0.5769
  197OCT    H71 5117   2.380   1.462   1.139 -1.0686 -0.9084 -0.2789
  197OCT    H72 5118   2.331   1.623   1.172  0.4450  2.0517  3.3684
  197OCT     C8 5119   2.323   1.570   0.963 -0.4813 -0.5853  0.6380
  197OCT    H81 5120   2.217   1.536   0.973 -1.6932  0.1493  2.6737
  197OCT    H82 5121   2.322   1.684   0.941 -0.6423  0.5329 -0.3516
  197OCT    H83 5122   2.390   1.514   0.892  2.4200 -0.3867  0.9130
  198OCT     C1 5123   1.333   2.401   0.683 -0.0097 -0.1531 -0.4886
  198OCT    H11 5124   1.306   2.317   0.616  2.2849 -0.8127  2.3954
  198OCT    H12 5125   1.425   2.442   0.644 -2.6449  0.0517  3.8324
  198OCT    H13 5126   1.353   2.348   0.779 -0.1729 -1.6294  0.0425
  198OCT     C2 5127   1.227   2.505   0.700  0.4820 -0.1226  0.7451
  198OCT    H21 5128   1.189   2.531   0.600 -1.9297 -0.0831 -1.4167
  198OCT    H22 5129   1.142   2.446   0.759 -2.0856  0.1741  0.5818
  198OCT     C3 5130   1.251   2.632   0.785  0.3685  0.1376  0.3150
  198OCT    H31 5131   1.261   2.604   0.893 -0.5528  0.0200 -0.6697
  198OCT    H32 5132   1.345   2.673   0.757 -2.0340  0.7807  0.2319
  198OCT     C4 5133   1.144   2.740   0.768 -0.2522 -0.3138 -0.2456
  198OCT    H41 5134   1.043   2.698   0.798 -0.2891 -1.8306  0.3587
  198OCT    H42 5135   1.156   2.827   0.840 -0.1845  1.2922  0.1554
  198OCT     C5 5136   1.135   2.800   0.628 -0.3869 -0.0932 -0.0563
  198OCT    H51 5137   1.230   2.858   0.592  1.1567 -1.0087 -0.8189
  198OCT    H52 5138   1.128   2.720   0.556  2.3767  0.3030  2.8011
  198OCT     C6 5139   1.014   2.892   0.603  0.5524  0.0408 -0.3554
  198OCT    H61 5140   0.996   2.895   0.498 -0.6117  1.7386  2.3159
  198OCT    H62 5141   0.915   2.843   0.636 -0.1335 -0.5016 -1.7425
  198OCT     C7 5142   1.036   3.036   0.664  0.0176 -0.1575 -0.1489
  198OCT    H71 5143   1.054   3.019   0.773 -1.9491  0.4645  2.4525
  198OCT    H72 5144   1.122   3.087   0.610  0.8311 -0.4241 -1.4326
  198OCT     C8 5145   0.917   3.138   0.648 -0.0020  0.0778  0.5345
  198OCT    H81 5146   0.912   3.189   0.547  0.7990  2.2731  1.1121
  198OCT    H82 5147   0.813   3.094   0.668 -2.5356 -0.1524  1.5682
  198OCT    H83 5148   0.923   3.216   0.721  0.8071 -0.3240 -1.5053
  199OCT     C1 5149   4.086   1.921   0.275 -0.4263  0.0537 -0.2670
  199OCT    H11 5150   4.175   1.852   0.285 -1.7072  0.3560 -0.1944
  199OCT    H12 5151   4.037   1.894   0.184  0.3101  0.1413  1.8424
  199OCT    H13 5152   4.127   2.021   0.268 -2.3277 -0.2091  2.0955
  199OCT     C2 5153   3.998   1.917   0.402  0.0249 -0.5198 -0.2677
  199OCT    H21 5154   3.917   1.837   0.388 -1.2515  0.6110 -0.6070
  199OCT    H22 5155   4.048   1.889   0.496 -2.1463 -1.4178 -0.6109
  199OCT     C3 5156   3.925   2.049   0.432  0.3020 -0.1860  0.3690
  199OCT    H31 5157   3.994   2.130   0.470  0.8060  0.6119 -1.3379
  199OCT    H32 5158   3.884   2.087   0.337  1.1956 -1.6886  0.4129
  199OCT     C4 5159   3.816   2.042   0.535 -0.5601  0.1795 -0.1246
  199OCT    H41 5160   3.742   2.127   0.515 -0.0802  0.0880  0.4568
  199OCT    H42 5161   3.772   1.937   0.525 -0.7297  1.2416  1.7046
  199OCT     C5 5162   3.860   2.063   0.683  0.0478  0.1012 -0.2596
  199OCT    H51 5163   3.915   1.970   0.724 -1.1756 -1.4336  2.5669
  199OCT    H52 5164   3.947   2.142   0.679  3.5850 -1.1306  1.3565
  199OCT     C6 5165   3.759   2.109   0.784  0.0348  0.2408 -0.9018
  199OCT    H61 5166   3.825   2.163   0.854 -0.4485  1.2005 -0.3708
  199OCT    H62 5167   3.692   2.189   0.744  0.0924 -1.7505 -1.3268
  199OCT     C7 5168   3.671   1.998   0.843  0.8038  0.3715  0.1942
  199OCT    H71 5169   3.599   1.967   0.763  2.1644  1.7378 -0.5023
  199OCT    H72 5170   3.738   1.911   0.855 -2.1464 -1.2190  2.1630
  199OCT     C8 5171   3.602   2.038   0.975  0.0756 -0.2469  0.1367
  199OCT    H81 5172   3.510   2.099   0.954 -0.4287  0.8331 -0.4555
  199OCT    H82 5173   3.560   1.949   1.034 -0.8036 -2.1923  2.5170
  199OCT    H83 5174   3.659   2.116   1.031 -1.1943 -0.7997  0.2878
  200OCT     C1 5175   0.928   0.162   0.185  0.1508  0.6782  0.1778
  200OCT    H11 5176   1.012   0.102   0.148 -3.4574 -1.2453  1.0776
  200OCT    H12 5177   0.838   0.093   0.184 -0.7831  1.7285  0.3924
  200OCT    H13 5178   0.919   0.246   0.115  1.3740  1.9915  0.9434
  200OCT     C2 5179   0.959   0.224   0.326 -0.5361 -0.1524  0.5371
  200OCT    H21 5180   0.941   0.154   0.411  0.4920 -1.7976  0.4560
  200OCT    H22 5181   1.067   0.253   0.322  1.6769 -0.7890 -2.2301
  200OCT     C3 5182   0.878   0.348   0.361 -0.2886 -0.2212 -0.7357
  200OCT    H31 5183   0.923   0.372   0.460  2.3354 -1.5948 -2.1327
  200OCT    H32 5184   0.903   0.430   0.291  1.1109  0.1867  0.3723
  200OCT     C4 5185   0.730   0.326   0.388  0.1400  0.6040  1.0376
  200OCT    H41 5186   0.699   0.288   0.288  2.3198 -0.9443 -1.8426
  200OCT    H42 5187   0.707   0.238   0.456 -0.0699  0.5300  2.3415
  200OCT     C5 5188   0.651   0.447   0.430 -0.5210  0.1118  0.7465
  200OCT    H51 5189   0.669   0.525   0.353 -2.3828 -0.2931  1.6435
  200OCT    H52 5190   0.543   0.425   0.422 -0.2992 -1.0919 -0.0170
  200OCT     C6 5191   0.704   0.502   0.563  0.2039 -0.1488 -0.3079
  200OCT    H61 5192   0.720   0.419   0.636 -2.1207 -3.0233 -0.9317
  200OCT    H62 5193   0.802   0.551   0.542  0.0673  0.3205 -1.1438
  200OCT     C7 5194   0.613   0.615   0.618 -0.0961  0.1141 -0.7279
  200OCT    H71 5195   0.635   0.701   0.557 -0.1433 -2.1154 -2.5962
  200OCT    H72 5196   0.511   0.588   0.595  2.4919  0.9318 -2.5400
  200OCT     C8 5197   0.646   0.666   0.767 -0.2905  0.5456  0.2029
  200OCT    H81 5198   0.574   0.736   0.806  0.2605 -0.8164 -0.5729
  200OCT    H82 5199   0.640   0.575   0.837  0.8228 -1.8410 -1.1420
  200OCT    H83 5200   0.747   0.718   0.777  1.1866 -0.5826  1.4625
  201OCT     C1 5201   3.080   0.313   2.851  0.3470  0.2920 -0.7779
  201OCT    H11 5202   3.058   0.357   2.952  1.2598  0.9641 -0.8175
  201OCT    H12 5203   2.979   0.283   2.816  1.8894 -1.9848  1.1005
  201OCT    H13 5204   3.130   0.219   2.858 -0.8703  0.0277  0.0502
  201OCT     C2 5205   3.136   0.409   2.748  0.4169  0.5421  0.2470
  201OCT    H21 5206   3.061   0.491   2.742  2.5070  0.9111 -1.2929
  201OCT    H22 5207   3.232   0.442   2.787 -2.0486 -0.5761 -0.7591
  201OCT     C3 5208   3.156   0.343   2.614  0.1478  0.3187 -0.0378
  201OCT    H31 5209   3.235   0.263   2.629 -3.3600 -0.4810  0.9263
  201OCT    H32 5210   3.061   0.301   2.564  2.2897  1.3838 -3.3162
  201OCT     C4 5211   3.216   0.441   2.506  0.2283 -0.3584  0.1562
  201OCT    H41 5212   3.134   0.520   2.495  2.1453  0.1653 -2.0514
  201OCT    H42 5213   3.313   0.486   2.540  2.9866  1.3847  3.2072
  201OCT     C5 5214   3.240   0.366   2.375  0.0360  0.1153  0.7100
  201OCT    H51 5215   3.302   0.275   2.402  1.8096 -1.9532 -2.1944
  201OCT    H52 5216   3.144   0.336   2.318 -0.5415 -0.0113 -0.6584
  201OCT     C6 5217   3.329   0.445   2.278  0.3379 -0.6527  0.1761
  201OCT    H61 5218   3.290   0.544   2.259 -0.0194  1.3023  2.5647
  201OCT    H62 5219   3.433   0.456   2.320  1.8374  1.9075 -2.9613
  201OCT     C7 5220   3.336   0.368   2.143 -0.3941 -0.1047 -0.5075
  201OCT    H71 5221   3.404   0.278   2.175 -0.3861 -0.5834  4.2997
  201OCT    H72 5222   3.239   0.345   2.109  0.9086  1.5295  2.0288
  201OCT     C8 5223   3.422   0.451   2.051  0.1996 -0.2784 -0.3326
  201OCT    H81 5224   3.527   0.453   2.068  0.3351  1.3085 -4.1318
  201OCT    H82 5225   3.410   0.406   1.942 -0.5631 -1.7252 -1.4897
  201OCT    H83 5226   3.381   0.556   2.047 -0.2830  0.6949  2.6811
  202OCT     C1 5227   1.427   3.528   2.891  0.8546 -0.4346  0.7651
  202OCT    H11 5228   1.509   3.464   2.907  0.6039  2.2068  1.3259
  202OCT    H12 5229   1.449   3.622   2.950  1.4275 -1.0558  0.9190
  202OCT    H13 5230   1.337   3.467   2.929  0.5493 -0.4782  0.8070
  202OCT     C2 5231   1.413   3.554   2.740 -0.4588  0.7905  0.3622
  202OCT    H21 5232   1.504   3.599   2.706 -1.3362 -1.6090  1.4381
  202OCT    H22 5233   1.407   3.454   2.688  0.0701  0.5752 -1.2979
  202OCT     C3 5234   1.297   3.650   2.716 -0.0118  0.6453 -0.8079
  202OCT    H31 5235   1.204   3.601   2.736  0.9661  2.0520 -0.9796
  202OCT    H32 5236   1.307   3.733   2.787 -1.6852 -0.2740 -1.7563
  202OCT     C4 5237   1.291   3.716   2.574  0.1280  0.1683  0.1940
  202OCT    H41 5238   1.393   3.754   2.556  2.4907 -0.4612 -0.3673
  202OCT    H42 5239   1.276   3.631   2.500  0.1285  0.7101 -2.9422
  202OCT     C5 5240   1.189   3.822   2.550 -0.5492 -0.7276 -0.5165
  202OCT    H51 5241   1.088   3.783   2.559  0.0576  2.4583  0.6053
  202OCT    H52 5242   1.196   3.910   2.620 -0.0388  1.2703 -0.4717
  202OCT     C6 5243   1.196   3.880   2.405  0.5317 -0.2557  0.0870
  202OCT    H61 5244   1.194   3.803   2.332 -0.9416  1.4350  2.5597
  202OCT    H62 5245   1.105   3.939   2.390  1.1080 -0.8070 -1.0190
  202OCT     C7 5246   1.319   3.977   2.382 -0.3013  0.5378 -0.1431
  202OCT    H71 5247   1.315   4.053   2.456  0.3489  0.4004 -1.3962
  202OCT    H72 5248   1.409   3.917   2.389 -1.6669 -0.2870 -0.4566
  202OCT     C8 5249   1.330   4.028   2.239  0.0204  0.1832  0.1899
  202OCT    H81 5250   1.325   3.939   2.168 -3.5212 -1.5600 -3.6931
  202OCT    H82 5251   1.249   4.093   2.200  1.2110  1.7002 -1.0329
  202OCT    H83 5252   1.430   4.085   2.231  1.7906 -1.5507  0.6435
  203OCT     C1 5253   0.677   1.732   2.695  0.0876 -0.2244 -0.4478
  203OCT    H11 5254   0.740   1.688   2.618 -0.8346  1.6996  2.6506
  203OCT    H12 5255   0.750   1.746   2.773  2.3470 -1.2415 -0.6617
  203OCT    H13 5256   0.588   1.668   2.729 -1.5033  0.0759  0.4309
  203OCT     C2 5257   0.621   1.870   2.656  0.9853  0.1013 -0.1869
  203OCT    H21 5258   0.558   1.918   2.735 -2.1367  0.6728  0.3116
  203OCT    H22 5259   0.712   1.942   2.647  0.4482  0.0735 -1.1121
  203OCT     C3 5260   0.539   1.883   2.530  0.5635  0.6479 -0.7929
  203OCT    H31 5261   0.597   1.854   2.439  2.7943  0.9938  1.2956
  203OCT    H32 5262   0.450   1.819   2.540  1.0290  0.4857  1.9336
  203OCT     C4 5263   0.504   2.030   2.495 -0.1908 -0.4302 -0.9005
  203OCT    H41 5264   0.472   2.074   2.597  0.1907  1.5230  0.1204
  203OCT    H42 5265   0.587   2.083   2.450 -2.8962 -1.3781 -0.7749
  203OCT     C5 5266   0.374   2.039   2.414  0.2208 -0.3340  0.3275
  203OCT    H51 5267   0.296   1.973   2.466 -0.9101 -1.9907 -0.1815
  203OCT    H52 5268   0.340   2.145   2.407  0.5589  2.2262 -0.2139
  203OCT     C6 5269   0.396   1.992   2.274  0.5637  0.1454 -0.1280
  203OCT    H61 5270   0.455   1.903   2.263 -0.6768 -0.0712 -2.9650
  203OCT    H62 5271   0.297   1.959   2.233 -0.4495 -1.6431  0.9602
  203OCT     C7 5272   0.470   2.095   2.187 -0.3914 -0.0468  0.5892
  203OCT    H71 5273   0.417   2.188   2.187  2.3027 -0.8675 -4.1345
  203OCT    H72 5274   0.568   2.127   2.230  1.0123 -2.0130 -1.0417
  203OCT     C8 5275   0.476   2.074   2.032 -0.7679  0.0450  0.1882
  203OCT    H81 5276   0.533   2.159   1.982 -1.2040 -0.8401  0.3683
  203OCT    H82 5277   0.530   1.980   2.011 -0.3540  0.5831  1.7381
  203OCT    H83 5278   0.386   2.055   1.972 -0.9198 -0.0175  1.3702
  204OCT     C1 5279   0.189   3.155   1.443  0.6676  0.3664 -0.3559
  204OCT    H11 5280   0.090   3.129   1.492 -2.0028 -2.4229 -0.3547
  204OCT    H12 5281   0.269   3.126   1.516 -0.4979  0.0964 -2.2200
  204OCT    H13 5282   0.189   3.260   1.433  0.3227  0.9437 -1.3975
  204OCT     C2 5283   0.209   3.086   1.310 -0.0750 -0.2447  0.3994
  204OCT    H21 5284   0.126   3.124   1.244 -1.9848  0.4639  1.0981
  204OCT    H22 5285   0.300   3.123   1.269 -0.6413  0.0708  0.4656
  204OCT     C3 5286   0.201   2.934   1.311  0.1443  0.2076 -0.3168
  204OCT    H31 5287   0.286   2.901   1.370 -0.2860  2.3032 -2.1188
  204OCT    H32 5288   0.104   2.906   1.361  0.5629  1.1502  1.1117
  204OCT     C4 5289   0.201   2.866   1.175  0.4176  0.0412 -0.0813
  204OCT    H41 5290   0.132   2.917   1.098 -0.4404 -1.6395  2.7849
  204OCT    H42 5291   0.300   2.858   1.123 -0.7279  1.5292 -0.7544
  204OCT     C5 5292   0.151   2.723   1.174  0.6688 -0.4425  0.5260
  204OCT    H51 5293   0.058   2.715   1.220  2.8803  0.2340 -1.4402
  204OCT    H52 5294   0.125   2.697   1.064 -1.5516  0.3575 -0.4952
  204OCT     C6 5295   0.244   2.625   1.233 -0.1905 -0.9711  0.0245
  204OCT    H61 5296   0.314   2.587   1.152  2.2143  1.1739 -0.6980
  204OCT    H62 5297   0.301   2.658   1.326 -0.4137 -2.4935  0.5580
  204OCT     C7 5298   0.175   2.490   1.273 -1.1935  0.0706 -0.3061
  204OCT    H71 5299   0.120   2.512   1.365 -1.1106 -0.0578 -0.6604
  204OCT    H72 5300   0.106   2.476   1.188  1.1157  2.2072 -2.1993
  204OCT     C8 5301   0.275   2.382   1.290 -0.4247  0.3092 -0.2581
  204OCT    H81 5302   0.375   2.429   1.309  1.7625 -0.2325 -0.7420
  204OCT    H82 5303   0.256   2.315   1.379  0.4507  0.5519 -0.5152
  204OCT    H83 5304   0.289   2.318   1.202 -0.0323 -1.9058  1.4544
  205OCT     C1 5305   4.082   3.633   1.320  0.0819  0.4830  0.7991
  205OCT    H11 5306   4.011   3.563   1.368  0.1577  0.5160 -1.4428
  205OCT    H12 5307   4.029   3.699   1.236  1.3058  3.5577 -1.9391
  205OCT    H13 5308   4.155   3.580   1.259 -1.9911  0.2019  0.4281
  205OCT     C2 5309   4.156   3.725   1.413  0.0745  0.4368  0.8958
  205OCT    H21 5310   4.227   3.778   1.346 -2.0856 -2.0538 -1.7357
  205OCT    H22 5311   4.091   3.806   1.450  4.0013 -0.4174 -2.2554
  205OCT     C3 5312   4.223   3.660   1.531 -1.3002 -0.2879  0.3504
  205OCT    H31 5313   4.146   3.589   1.577 -1.6077  0.1191  0.7311
  205OCT    H32 5314   4.311   3.600   1.502  0.5571 -1.5301 -0.2083
  205OCT     C4 5315   4.268   3.753   1.649 -0.2063  0.0287  0.1258
  205OCT    H41 5316   4.313   3.846   1.597 -1.5100 -0.0347  0.7865
  205OCT    H42 5317   4.182   3.774   1.713 -0.6961  0.0485 -1.4351
  205OCT     C5 5318   4.371   3.691   1.753 -0.1439 -0.3942  0.2604
  205OCT    H51 5319   4.304   3.618   1.802 -3.0981 -0.9696 -0.9308
  205OCT    H52 5320   4.458   3.641   1.721 -0.7204 -0.2096  2.3723
  205OCT     C6 5321   4.427   3.795   1.853 -0.3551  0.5164 -0.6646
  205OCT    H61 5322   4.340   3.859   1.887 -0.0064 -0.7593 -1.1701
  205OCT    H62 5323   4.459   3.743   1.949  0.0574  0.9489  1.3388
  205OCT     C7 5324   4.536   3.897   1.806 -1.1748  0.1988 -0.1559
  205OCT    H71 5325   4.628   3.842   1.765  1.0816  0.4689  0.9818
  205OCT    H72 5326   4.492   3.950   1.722 -3.1016  0.2417 -0.2505
  205OCT     C8 5327   4.575   3.985   1.925 -0.7617 -0.3819  0.6141
  205OCT    H81 5328   4.492   4.034   1.964  0.1399 -1.0264 -3.7202
  205OCT    H82 5329   4.635   3.923   2.006 -0.9661 -0.6759  0.8581
  205OCT    H83 5330   4.653   4.065   1.888  3.4429 -0.4211  2.7154
  206OCT     C1 5331   2.240   3.019   1.486  0.7838  0.2000  0.2593
  206OCT    H11 5332   2.286   3.118   1.495 -1.1085  1.9967 -2.5072
  206OCT    H12 5333   2.255   2.977   1.389 -1.0657  0.5487  1.2858
  206OCT    H13 5334   2.129   3.028   1.504  1.1354  2.0641 -0.0793
  206OCT     C2 5335   2.319   2.934   1.588 -0.0722 -0.6535 -0.5685
  206OCT    H21 5336   2.430   2.964   1.578  0.6472  4.6860 -1.2068
  206OCT    H22 5337   2.285   2.964   1.690 -0.9818  1.9729 -0.3735
  206OCT     C3 5338   2.280   2.780   1.582 -0.2901  0.4089  0.2911
  206OCT    H31 5339   2.308   2.741   1.684  2.5100 -0.9720 -2.5113
  206OCT    H32 5340   2.169   2.772   1.576 -2.6486  0.6545  0.9205
  206OCT     C4 5341   2.355   2.695   1.477  0.3602 -0.1522  0.1394
  206OCT    H41 5342   2.298   2.709   1.389  0.8448 -0.2403  0.4563
  206OCT    H42 5343   2.456   2.733   1.448  0.4346  0.3025 -2.2256
  206OCT     C5 5344   2.375   2.549   1.511  0.2434 -0.0776 -0.0359
  206OCT    H51 5345   2.424   2.558   1.608 -4.8243 -2.7074  0.5315
  206OCT    H52 5346   2.279   2.495   1.536 -0.2167 -2.3721 -0.5889
  206OCT     C6 5347   2.449   2.470   1.404 -0.2249  0.4498 -0.0487
  206OCT    H61 5348   2.388   2.472   1.316 -1.1434 -1.4689  1.9982
  206OCT    H62 5349   2.545   2.519   1.380 -1.0135 -1.2377 -2.5960
  206OCT     C7 5350   2.473   2.324   1.448  0.2626  0.4268 -0.1827
  206OCT    H71 5351   2.376   2.293   1.494  1.1818 -0.0323 -0.6142
  206OCT    H72 5352   2.486   2.249   1.374 -2.1071  4.1890  3.1331
  206OCT     C8 5353   2.591   2.308   1.549 -0.1484 -0.3877 -0.6740
  206OCT    H81 5354   2.583   2.377   1.641  0.8554  2.8434 -1.0097
  206OCT    H82 5355   2.605   2.201   1.572  1.0249  1.8349  0.2081
  206OCT    H83 5356   2.680   2.340   1.504  0.9326  0.4392  2.7670
  207OCT     C1 5357   0.920   4.248   2.429 -0.1797 -0.2673  0.1637
  207OCT    H11 5358   0.954   4.318   2.353 -4.4364 -1.3125 -1.1809
  207OCT    H12 5359   1.004   4.202   2.487  1.3320 -1.9489  1.4591
  207OCT    H13 5360   0.877   4.162   2.374  1.2695  1.1063  1.3362
  207OCT     C2 5361   0.815   4.303   2.525 -0.6784 -0.4051  0.0158
  207OCT    H21 5362   0.854   4.397   2.564  0.0921 -1.5634 -0.5388
  207OCT    H22 5363   0.724   4.327   2.464 -0.2329  0.6176  2.0693
  207OCT     C3 5364   0.770   4.209   2.633  0.5320 -0.5884 -0.4377
  207OCT    H31 5365   0.698   4.137   2.589 -0.6399 -1.9643  0.4117
  207OCT    H32 5366   0.860   4.166   2.683 -0.8337  1.6978  1.6343
  207OCT     C4 5367   0.696   4.289   2.751  0.4700  0.7670 -0.0012
  207OCT    H41 5368   0.766   4.366   2.794  0.8350  1.4098  2.3586
  207OCT    H42 5369   0.623   4.356   2.698  1.8347 -1.8616 -1.4183
  207OCT     C5 5370   0.619   4.200   2.850 -0.1917  1.0238  0.0044
  207OCT    H51 5371   0.588   4.113   2.789  1.4419  0.2900 -0.3717
  207OCT    H52 5372   0.691   4.162   2.922  2.0004  1.5853 -1.0482
  207OCT     C6 5373   0.498   4.268   2.914  0.5175 -0.0033  0.0412
  207OCT    H61 5374   0.528   4.353   2.980 -1.2747 -0.5900 -1.1626
  207OCT    H62 5375   0.420   4.310   2.843  0.3790 -0.6821 -1.0583
  207OCT     C7 5376   0.430   4.162   3.010 -0.0119  0.6289  0.1700
  207OCT    H71 5377   0.402   4.081   2.942 -0.2870  0.8088  0.5990
  207OCT    H72 5378   0.509   4.118   3.081 -0.8721  1.2588  2.5646
  207OCT     C8 5379   0.310   4.217   3.084  0.0019 -0.7370 -0.3829
  207OCT    H81 5380   0.332   4.302   3.148 -1.5083 -1.4099  0.6462
  207OCT    H82 5381   0.238   4.255   3.018  3.2215 -0.4411  0.2774
  207OCT    H83 5382   0.270   4.137   3.158 -0.3141 -1.5301  1.3385
  208OCT     C1 5383   3.603   3.924   1.384  0.2010 -0.9624 -0.1194
  208OCT    H11 5384   3.648   3.940   1.289 -0.6009 -0.6993 -0.8721
  208OCT    H12 5385   3.680   3.948   1.460 -1.4526  0.0153  1.0011
  208OCT    H13 5386   3.580   3.817   1.393  0.6749  1.5091  0.0697
  208OCT     C2 5387   3.478   4.012   1.399  0.0826 -0.7299 -0.1095
  208OCT    H21 5388   3.464   4.049   1.506 -0.3951 -1.4471 -1.6418
  208OCT    H22 5389   3.493   4.096   1.327 -0.5831  0.0665 -0.0433
  208OCT     C3 5390   3.344   3.939   1.382  0.3155 -0.1542  0.1456
  208OCT    H31 5391   3.336   3.875   1.474 -0.1741  1.8122  0.6653
  208OCT    H32 5392   3.256   4.004   1.373 -0.0198  0.0689  0.6107
  208OCT     C4 5393   3.341   3.851   1.255 -0.8187 -0.3175  0.1569
  208OCT    H41 5394   3.379   3.921   1.175  0.2977 -0.3244  0.0456
  208OCT    H42 5395   3.422   3.771   1.248 -0.9548  1.4050 -4.2848
  208OCT     C5 5396   3.208   3.801   1.212  0.1286  0.4052 -0.6782
  208OCT    H51 5397   3.192   3.701   1.249  3.3684  1.5890  0.0610
  208OCT    H52 5398   3.126   3.858   1.259  0.4954  0.8248 -1.2089
  208OCT     C6 5399   3.186   3.799   1.062 -0.6090 -0.2628 -0.3518
  208OCT    H61 5400   3.190   3.905   1.028 -0.5141  2.6995 -1.7145
  208OCT    H62 5401   3.278   3.749   1.016 -0.7972 -0.1579  0.7650
  208OCT     C7 5402   3.063   3.726   1.020  0.3802  0.1986  1.1017
  208OCT    H71 5403   3.070   3.613   1.037 -0.6893  1.5572  0.8826
  208OCT    H72 5404   2.973   3.768   1.070 -2.2163 -2.3697 -0.0045
  208OCT     C8 5405   3.044   3.732   0.867  0.0313  0.3666 -0.0731
  208OCT    H81 5406   2.961   3.678   0.824  1.4020 -1.2167 -4.6366
  208OCT    H82 5407   3.034   3.839   0.833  1.8545  4.0966  0.2361
  208OCT    H83 5408   3.140   3.705   0.817  0.2369 -0.5476 -1.4069
  209OCT     C1 5409   0.510   3.156   2.548  0.0669  0.2454 -0.0708
  209OCT    H11 5410   0.459   3.066   2.522 -0.0651  2.7314 -0.5675
  209OCT    H12 5411   0.605   3.142   2.493 -0.9482  2.2208 -0.5747
  209OCT    H13 5412   0.534   3.180   2.650  2.2312  0.8160  0.0696
  209OCT     C2 5413   0.443   3.277   2.484  0.1026  0.6698 -0.1780
  209OCT    H21 5414   0.342   3.285   2.531  0.1960  0.7599  3.0719
  209OCT    H22 5415   0.506   3.359   2.514  0.5556  1.6712 -0.3180
  209OCT     C3 5416   0.426   3.263   2.332 -0.0176 -0.0308 -0.2782
  209OCT    H31 5417   0.522   3.231   2.280  2.6830 -2.0908 -0.5049
  209OCT    H32 5418   0.351   3.184   2.302 -0.5631 -0.2554 -1.1170
  209OCT     C4 5419   0.370   3.399   2.277 -0.3159 -0.1109  0.6705
  209OCT    H41 5420   0.412   3.478   2.336 -1.9037 -2.1136 -1.6795
  209OCT    H42 5421   0.408   3.415   2.170 -0.5740 -2.9272 -0.9934
  209OCT     C5 5422   0.213   3.406   2.272  0.2442  0.5796 -0.1350
  209OCT    H51 5423   0.183   3.365   2.181  2.8664 -2.8038  3.5124
  209OCT    H52 5424   0.174   3.343   2.350  1.4919  0.7642 -1.7295
  209OCT     C6 5425   0.163   3.553   2.283  0.4985  0.0002 -0.3066
  209OCT    H61 5426   0.191   3.598   2.195 -1.5605 -2.1219  2.0719
  209OCT    H62 5427   0.059   3.553   2.271  0.3749  0.7116 -1.1978
  209OCT     C7 5428   0.194   3.629   2.410 -0.5343  0.7345 -0.3072
  209OCT    H71 5429   0.135   3.589   2.497 -0.3254 -0.0833  1.6701
  209OCT    H72 5430   0.308   3.644   2.421  1.7936  0.8263 -1.0945
  209OCT     C8 5431   0.150   3.787   2.402 -0.6740 -0.3524 -0.6547
  209OCT    H81 5432   0.210   3.840   2.327 -0.6521 -2.5163 -1.5204
  209OCT    H82 5433   0.043   3.796   2.387  0.3786 -1.6100  1.7601
  209OCT    H83 5434   0.166   3.842   2.498 -0.7740 -0.0473 -1.8003
  210OCT     C1 5435   3.238   2.337   4.226  0.5265  0.0755  0.1752
  210OCT    H11 5436   3.239   2.444   4.211  0.0903 -1.0902 -2.7133
  210OCT    H12 5437   3.148   2.293   4.178  0.7295 -0.3740 -1.5055
  210OCT    H13 5438   3.235   2.321   4.336 -0.5961  0.4889 -0.2863
  210OCT     C2 5439   3.367   2.293   4.155  0.7206  0.0707 -0.4654
  210OCT    H21 5440   3.361   2.333   4.048  0.9321  0.3681 -0.2962
  210OCT    H22 5441   3.454   2.338   4.207  1.5085  0.8521 -0.7933
  210OCT     C3 5442   3.378   2.140   4.141  0.6278 -0.4902 -0.4371
  210OCT    H31 5443   3.404   2.095   4.236 -0.4365  0.4879 -0.3410
  210OCT    H32 5444   3.272   2.102   4.122 -0.7167  0.3824  2.3475
  210OCT     C4 5445   3.481   2.102   4.026  0.3818 -0.6983 -0.2625
  210OCT    H41 5446   3.430   2.089   3.931 -0.4184  0.6525 -1.0380
  210OCT    H42 5447   3.561   2.182   4.026  0.8950 -1.1145  2.2132
  210OCT     C5 5448   3.552   1.971   4.068  0.1823  0.2183 -0.6155
  210OCT    H51 5449   3.597   1.967   4.165 -1.7921 -0.9887  1.7338
  210OCT    H52 5450   3.460   1.906   4.075 -0.1211  2.6735 -1.4475
  210OCT     C6 5451   3.635   1.916   3.958  0.2288  0.5310 -1.0232
  210OCT    H61 5452   3.559   1.896   3.885 -0.3957 -0.9947  2.0589
  210OCT    H62 5453   3.700   1.990   3.910  0.3749 -3.3548 -3.3206
  210OCT     C7 5454   3.692   1.779   3.998  0.0590  0.1764 -0.2072
  210OCT    H71 5455   3.783   1.796   4.063  0.4999 -0.2335  2.7536
  210OCT    H72 5456   3.606   1.733   4.056 -1.3500  1.6822  1.4341
  210OCT     C8 5457   3.741   1.687   3.885 -1.1292  0.3918  0.1075
  210OCT    H81 5458   3.672   1.652   3.816  2.2993  1.9714 -1.2430
  210OCT    H82 5459   3.823   1.739   3.823 -0.5116 -0.7282 -1.3717
  210OCT    H83 5460   3.787   1.601   3.939 -0.7795  1.7898 -0.7985
  211OCT     C1 5461   2.213   0.088   3.517  0.6459  0.2562 -0.2667
  211OCT    H11 5462   2.218   0.130   3.625 -0.9188 -2.7592 -0.2055
  211OCT    H12 5463   2.168   0.162   3.452  0.0207 -1.0654  2.9221
  211OCT    H13 5464   2.138   0.004   3.510 -1.7708 -0.4784 -1.2813
  211OCT     C2 5465   2.348   0.060   3.467 -0.3443 -0.7381  0.5661
  211OCT    H21 5466   2.380  -0.046   3.502  0.3818 -2.0386 -1.1774
  211OCT    H22 5467   2.339   0.059   3.359 -0.5082  0.3731 -0.3289
  211OCT     C3 5468   2.453   0.160   3.515  0.4165  0.2930  0.0691
  211OCT    H31 5469   2.464   0.163   3.622  3.1712  1.2426 -2.4101
  211OCT    H32 5470   2.555   0.136   3.481  1.0697  2.6124  1.9732
  211OCT     C4 5471   2.436   0.302   3.460  0.4089 -0.0930  0.9466
  211OCT    H41 5472   2.408   0.294   3.353  1.3513 -0.3448  0.2986
  211OCT    H42 5473   2.356   0.360   3.506  3.2345 -3.6165 -1.5888
  211OCT     C5 5474   2.564   0.381   3.460 -1.0982 -0.0417 -0.2503
  211OCT    H51 5475   2.595   0.400   3.567 -0.1297 -1.3267  1.5662
  211OCT    H52 5476   2.640   0.327   3.405 -0.3431 -0.4454  1.5967
  211OCT     C6 5477   2.553   0.508   3.380  0.1732 -0.2210 -0.3238
  211OCT    H61 5478   2.448   0.553   3.401 -0.3001 -0.3515 -0.2838
  211OCT    H62 5479   2.633   0.584   3.399 -2.2778 -0.5654  1.5247
  211OCT     C7 5480   2.569   0.484   3.226  0.0905  0.6606  0.3613
  211OCT    H71 5481   2.673   0.449   3.199 -0.4607  0.1760 -0.4123
  211OCT    H72 5482   2.489   0.408   3.199 -2.9700 -2.9407  0.5760
  211OCT     C8 5483   2.523   0.608   3.147 -0.3294 -0.1288  0.4465
  211OCT    H81 5484   2.520   0.583   3.042 -1.5215 -0.6789 -0.4483
  211OCT    H82 5485   2.429   0.642   3.192  1.5796 -0.4605  0.1513
  211OCT    H83 5486   2.597   0.687   3.164 -2.7441 -2.3103 -1.2382
  212OCT     C1 5487   2.141   0.968   2.702 -0.3770  0.4692 -0.3115
  212OCT    H11 5488   2.077   0.952   2.610 -0.2452  0.9187  1.1140
  212OCT    H12 5489   2.215   0.887   2.714 -0.2389  0.2650  3.2611
  212OCT    H13 5490   2.091   0.971   2.808  0.7317  1.7506 -0.7262
  212OCT     C2 5491   2.213   1.101   2.689 -0.3770 -0.1767  0.1975
  212OCT    H21 5492   2.309   1.112   2.752  1.3803 -0.0263  1.6652
  212OCT    H22 5493   2.257   1.091   2.587  2.0179  0.4505  1.0352
  212OCT     C3 5494   2.126   1.221   2.705  0.6605  0.0119 -0.9740
  212OCT    H31 5495   2.037   1.207   2.636 -2.1145  0.1133  1.2300
  212OCT    H32 5496   2.078   1.238   2.808 -2.4187  0.5147  2.0766
  212OCT     C4 5497   2.190   1.350   2.659  0.4469 -0.0050  0.8073
  212OCT    H41 5498   2.224   1.321   2.556 -1.5014 -1.9385 -1.8936
  212OCT    H42 5499   2.107   1.430   2.661 -0.0385  1.8674 -0.6012
  212OCT     C5 5500   2.308   1.402   2.735  0.5285 -0.4975 -0.3632
  212OCT    H51 5501   2.391   1.328   2.742  0.0986  0.2529 -1.1602
  212OCT    H52 5502   2.343   1.491   2.677  2.6996 -0.3278 -2.6934
  212OCT     C6 5503   2.284   1.461   2.874  0.4648  0.4070 -0.5543
  212OCT    H61 5504   2.195   1.526   2.877  2.4182 -0.0388  0.0692
  212OCT    H62 5505   2.259   1.368   2.925  1.4121  2.3149 -3.3861
  212OCT     C7 5506   2.409   1.515   2.937  0.4186 -0.5931 -0.0949
  212OCT    H71 5507   2.457   1.597   2.880 -0.9370 -0.6769 -2.4513
  212OCT    H72 5508   2.391   1.564   3.033  0.6168 -0.5367  0.6689
  212OCT     C8 5509   2.516   1.407   2.961  0.4907 -0.2346  0.3286
  212OCT    H81 5510   2.599   1.452   3.025 -1.3272 -1.8930  1.3950
  212OCT    H82 5511   2.480   1.322   3.022  0.4936  3.0947  2.1835
  212OCT    H83 5512   2.560   1.370   2.867 -0.8658 -0.2515 -1.6465
  213OCT     C1 5513   0.563   1.203   4.378  0.7117 -0.1625  0.0897
  213OCT    H11 5514   0.651   1.264   4.337  0.2544  4.5844  0.0290
  213OCT    H12 5515   0.548   1.240   4.485 -0.4387  1.2901  1.5037
  213OCT    H13 5516   0.595   1.097   4.382  0.8892  1.4636 -2.1931
  213OCT     C2 5517   0.436   1.221   4.294 -0.4200  0.2576 -0.4596
  213OCT    H21 5518   0.355   1.155   4.338 -1.7802 -0.9574 -2.0194
  213OCT    H22 5519   0.404   1.331   4.301 -0.4856 -0.4753  0.9495
  213OCT     C3 5520   0.451   1.193   4.141 -0.0109  0.4654 -0.4273
  213OCT    H31 5521   0.553   1.229   4.119  0.3696  0.4493  1.2324
  213OCT    H32 5522   0.443   1.084   4.126  2.3320  0.4958  2.0841
  213OCT     C4 5523   0.346   1.264   4.056  0.2392  0.0610  0.2496
  213OCT    H41 5524   0.242   1.240   4.086  0.0716  3.0197 -0.0829
  213OCT    H42 5525   0.345   1.373   4.085  0.2959  1.1754  1.4475
  213OCT     C5 5526   0.367   1.239   3.906  0.0437 -0.0895 -0.5462
  213OCT    H51 5527   0.464   1.277   3.884 -3.1410 -1.5416 -0.4184
  213OCT    H52 5528   0.381   1.128   3.888  1.6700 -1.0059  1.0809
  213OCT     C6 5529   0.257   1.307   3.821 -0.0119  0.1449  0.3901
  213OCT    H61 5530   0.163   1.293   3.871  2.4229  0.8701  1.4924
  213OCT    H62 5531   0.282   1.424   3.829 -0.6337  4.0327  0.2960
  213OCT     C7 5532   0.251   1.257   3.681  0.2665  0.0775  0.9115
  213OCT    H71 5533   0.347   1.282   3.624  0.7253  0.6485 -0.9576
  213OCT    H72 5534   0.225   1.145   3.691  0.3828 -0.9524  2.4133
  213OCT     C8 5535   0.135   1.321   3.600  0.1775 -0.4470 -0.1763
  213OCT    H81 5536   0.039   1.286   3.642 -0.8522 -1.4192  0.5138
  213OCT    H82 5537   0.139   1.430   3.604  1.5596  1.6424 -1.4164
  213OCT    H83 5538   0.139   1.293   3.488  0.1262  3.4243 -0.5089
  214OCT     C1 5539   0.410   0.752   3.936 -0.3644  0.5248  0.2223
  214OCT    H11 5540   0.401   0.703   3.834 -1.1153 -0.2293  0.7823
  214OCT    H12 5541   0.356   0.849   3.930 -2.3195  1.9248 -0.4911
  214OCT    H13 5542   0.520   0.772   3.953 -1.6748  0.6785  1.7769
  214OCT     C2 5543   0.364   0.660   4.046  1.3620 -0.2938  0.5306
  214OCT    H21 5544   0.264   0.607   4.025 -0.3170 -1.8423  1.1762
  214OCT    H22 5545   0.425   0.570   4.052 -0.2495  1.4574  0.9474
  214OCT     C3 5546   0.372   0.723   4.192  0.4822  0.6980 -0.1188
  214OCT    H31 5547   0.341   0.645   4.266  1.9064  0.5224  0.3936
  214OCT    H32 5548   0.480   0.737   4.219  2.2756  3.6714 -1.4218
  214OCT     C4 5549   0.280   0.847   4.204  0.0744  0.6170  0.6651
  214OCT    H41 5550   0.326   0.931   4.161 -1.3414 -0.0244  3.1262
  214OCT    H42 5551   0.188   0.819   4.147 -0.5102 -3.0733  1.6034
  214OCT     C5 5552   0.244   0.890   4.347 -0.1366  0.3310  0.1042
  214OCT    H51 5553   0.207   0.802   4.415  1.5608 -0.9243  2.4778
  214OCT    H52 5554   0.341   0.925   4.390  2.3151  0.5581 -4.4418
  214OCT     C6 5555   0.136   0.992   4.344 -0.6729 -0.4787  0.0690
  214OCT    H61 5556   0.162   1.071   4.274 -2.0933  1.1257  1.5047
  214OCT    H62 5557   0.043   0.946   4.302 -0.6030  1.2057 -0.2126
  214OCT     C7 5558   0.104   1.053   4.484 -0.6963  0.1743 -0.5958
  214OCT    H71 5559   0.100   0.971   4.565 -0.6002 -0.2190 -3.1660
  214OCT    H72 5560   0.191   1.109   4.526 -0.3388 -1.9821  0.6747
  214OCT     C8 5561  -0.027   1.133   4.485  0.1418  0.5728 -0.2320
  214OCT    H81 5562  -0.022   1.215   4.408  1.3611  1.3553 -0.7721
  214OCT    H82 5563  -0.104   1.052   4.467 -0.2309 -0.8579  0.2934
  214OCT    H83 5564  -0.046   1.173   4.587  1.5661  1.4999 -0.3349
  215OCT     C1 5565   0.454   1.906   3.673  0.0596  0.3257  0.8258
  215OCT    H11 5566   0.450   1.987   3.747  0.3434  0.6064 -0.1575
  215OCT    H12 5567   0.546   1.913   3.611 -0.7701 -0.5097  1.7826
  215OCT    H13 5568   0.359   1.926   3.609 -0.0103  0.4640 -0.5307
  215OCT     C2 5569   0.437   1.770   3.733  0.4880 -0.7398  0.3726
  215OCT    H21 5570   0.345   1.761   3.793  0.1226  0.0798 -1.5999
  215OCT    H22 5571   0.442   1.688   3.660  1.5677 -0.5240  1.9412
  215OCT     C3 5572   0.552   1.748   3.822  0.1865 -0.4912  0.5411
  215OCT    H31 5573   0.643   1.725   3.759  0.6793 -0.4266  0.9260
  215OCT    H32 5574   0.580   1.842   3.880 -0.3765  1.8941  1.7094
  215OCT     C4 5575   0.536   1.619   3.899 -0.5022 -1.0039 -0.1849
  215OCT    H41 5576   0.461   1.630   3.974  0.4461  0.5519 -0.0111
  215OCT    H42 5577   0.495   1.547   3.827 -0.1992  0.8996 -2.3724
  215OCT     C5 5578   0.661   1.565   3.972  0.6628 -0.4837 -0.2163
  215OCT    H51 5579   0.677   1.644   4.049  0.9744 -0.7682 -0.4383
  215OCT    H52 5580   0.639   1.478   4.022  0.1618 -0.1787  0.2145
  215OCT     C6 5581   0.785   1.541   3.885 -0.3076 -0.3780  0.2174
  215OCT    H61 5582   0.740   1.505   3.791  0.7522 -0.2628 -0.4586
  215OCT    H62 5583   0.841   1.642   3.857  4.2100 -0.5418 -1.0469
  215OCT     C7 5584   0.891   1.441   3.932 -0.2331 -0.1476 -0.0018
  215OCT    H71 5585   0.928   1.467   4.035 -1.7858 -0.4627 -1.0268
  215OCT    H72 5586   0.841   1.340   3.941 -1.1173 -2.1856  2.1173
  215OCT     C8 5587   1.010   1.428   3.828  0.5657  0.3205  0.0979
  215OCT    H81 5588   1.062   1.522   3.815 -2.0141  0.4559  0.3626
  215OCT    H82 5589   1.080   1.348   3.864  1.2460  0.4149  0.7274
  215OCT    H83 5590   0.963   1.400   3.731 -1.2103 -1.0458  0.1004
  216OCT     C1 5591   2.342   2.951   2.061 -0.7066 -0.5648  0.4861
  216OCT    H11 5592   2.337   3.053   2.017 -0.3305  1.2152  2.6642
  216OCT    H12 5593   2.313   2.968   2.167  0.0383  0.7643  0.4643
  216OCT    H13 5594   2.448   2.921   2.052 -1.5795  1.0485 -1.7729
  216OCT     C2 5595   2.240   2.858   1.995 -1.0590 -0.1720  0.2064
  216OCT    H21 5596   2.141   2.887   2.037 -0.9899  0.0166 -1.0521
  216OCT    H22 5597   2.245   2.869   1.889 -1.3486 -1.3510  1.6054
  216OCT     C3 5598   2.269   2.704   2.017 -0.5220 -0.2097 -0.2980
  216OCT    H31 5599   2.362   2.673   1.952 -0.3102 -0.7534 -1.9737
  216OCT    H32 5600   2.295   2.686   2.124  2.2038 -0.4416  1.1089
  216OCT     C4 5601   2.155   2.619   1.980 -0.0565  0.2893 -0.0601
  216OCT    H41 5602   2.068   2.653   2.040 -0.1872  1.3343 -1.7536
  216OCT    H42 5603   2.120   2.648   1.885 -1.6552 -1.0851  2.1846
  216OCT     C5 5604   2.175   2.474   2.001 -0.5149  0.6225 -0.0938
  216OCT    H51 5605   2.219   2.448   2.103 -1.6824 -2.7445 -0.0033
  216OCT    H52 5606   2.072   2.435   2.006  1.2280  0.1227  1.2113
  216OCT     C6 5607   2.248   2.408   1.883  0.7993  0.5838 -0.1914
  216OCT    H61 5608   2.184   2.408   1.791 -0.9552  0.2229 -1.3624
  216OCT    H62 5609   2.333   2.469   1.857  0.3153  0.6253  0.8541
  216OCT     C7 5610   2.297   2.271   1.930  0.1394 -0.0236 -0.0398
  216OCT    H71 5611   2.359   2.215   1.850 -0.4712 -2.4534 -0.3456
  216OCT    H72 5612   2.363   2.297   2.021  1.5151  1.9572  0.8466
  216OCT     C8 5613   2.175   2.183   1.969  0.3088  0.8376  0.1949
  216OCT    H81 5614   2.207   2.080   2.003 -1.4098 -0.6903 -0.4336
  216OCT    H82 5615   2.110   2.217   2.052 -0.2787 -3.2076  1.6298
  216OCT    H83 5616   2.114   2.147   1.882 -1.9202 -2.9905 -2.2476
  217OCT     C1 5617   1.689   3.459   0.298  0.0438  0.0540 -0.3493
  217OCT    H11 5618   1.696   3.497   0.194 -0.7375  0.7583 -0.3568
  217OCT    H12 5619   1.642   3.538   0.359 -1.0533 -0.4815 -1.2761
  217OCT    H13 5620   1.796   3.431   0.325  0.8684 -3.1811 -0.5019
  217OCT     C2 5621   1.621   3.323   0.311 -0.2324  0.0026  0.2209
  217OCT    H21 5622   1.590   3.301   0.204  0.6453  0.1661 -1.7732
  217OCT    H22 5623   1.695   3.244   0.346 -0.6740  0.1771 -0.3208
  217OCT     C3 5624   1.510   3.336   0.414 -0.0571 -0.3351  0.4802
  217OCT    H31 5625   1.448   3.429   0.395  3.4638  0.9566  2.4812
  217OCT    H32 5626   1.439   3.256   0.392 -0.5192  1.9541 -1.1568
  217OCT     C4 5627   1.560   3.328   0.559 -0.3837 -0.0691 -0.8750
  217OCT    H41 5628   1.612   3.232   0.572 -1.8079 -0.1202  0.7015
  217OCT    H42 5629   1.640   3.406   0.578 -0.1513  0.8119 -2.0814
  217OCT     C5 5630   1.436   3.342   0.650  0.0529  0.1368 -0.5308
  217OCT    H51 5631   1.400   3.446   0.634  1.9720 -0.5435 -0.0423
  217OCT    H52 5632   1.347   3.271   0.623 -1.6603 -0.7337 -1.3616
  217OCT     C6 5633   1.473   3.326   0.801  0.3590  0.8242  0.4130
  217OCT    H61 5634   1.381   3.330   0.865  0.0491  1.2727  0.9092
  217OCT    H62 5635   1.513   3.223   0.812 -1.8606 -0.6622  1.7386
  217OCT     C7 5636   1.571   3.427   0.854 -0.1521  0.6884  0.5649
  217OCT    H71 5637   1.596   3.384   0.958 -0.1162 -0.1049  0.3888
  217OCT    H72 5638   1.670   3.430   0.799  0.2239  0.0215  1.0780
  217OCT     C8 5639   1.512   3.571   0.862 -0.8478 -0.2207 -0.0197
  217OCT    H81 5640   1.566   3.637   0.930 -1.1396 -0.5801 -0.4759
  217OCT    H82 5641   1.503   3.617   0.767 -0.0824 -2.6238  3.0070
  217OCT    H83 5642   1.414   3.555   0.907  0.7662  1.1925  0.5405
  218OCT     C1 5643   4.246   4.329   4.070 -0.0096  0.8318 -0.3119
  218OCT    H11 5644   4.233   4.388   3.978  1.7266  0.0615 -1.6856
  218OCT    H12 5645   4.187   4.388   4.146  1.9663  1.9653  1.7910
  218OCT    H13 5646   4.349   4.323   4.102  0.3886  2.8070 -1.0259
  218OCT     C2 5647   4.186   4.190   4.044  0.8962  0.5007 -0.1067
  218OCT    H21 5648   4.076   4.193   4.038  0.2944 -0.9236  1.1835
  218OCT    H22 5649   4.231   4.149   3.952  0.6330 -1.0804  1.3999
  218OCT     C3 5650   4.202   4.088   4.161 -0.2031 -0.2084 -0.0662
  218OCT    H31 5651   4.148   3.997   4.149  0.3932  2.9407  1.4005
  218OCT    H32 5652   4.313   4.071   4.177  1.4690 -0.9414  0.3406
  218OCT     C4 5653   4.147   4.151   4.289 -1.0366 -0.0103  0.3777
  218OCT    H41 5654   4.212   4.238   4.323  0.9468 -1.8971 -0.3784
  218OCT    H42 5655   4.046   4.178   4.262  0.9553  1.6684 -1.6171
  218OCT     C5 5656   4.162   4.054   4.408 -0.1062  0.2182 -0.2962
  218OCT    H51 5657   4.117   3.955   4.374  1.7184 -1.5863  1.1403
  218OCT    H52 5658   4.273   4.044   4.431  0.1707 -1.8557  2.3959
  218OCT     C6 5659   4.107   4.114   4.536  0.0825  0.1591  0.7142
  218OCT    H61 5660   4.105   4.038   4.616 -1.8870 -1.0830  0.4433
  218OCT    H62 5661   4.171   4.193   4.561 -0.0394  1.2982 -0.1691
  218OCT     C7 5662   3.965   4.179   4.525  0.2248  1.3152 -0.1714
  218OCT    H71 5663   3.972   4.269   4.464  1.2614  1.9260  0.5877
  218OCT    H72 5664   3.889   4.106   4.476 -0.1192  0.6129 -0.3138
  218OCT     C8 5665   3.910   4.228   4.666 -0.9764  0.4493  0.5810
  218OCT    H81 5666   3.993   4.281   4.717 -0.3911  1.2172 -0.6089
  218OCT    H82 5667   3.827   4.295   4.655  0.8329  0.2859  0.1351
  218OCT    H83 5668   3.874   4.136   4.715  0.9233  0.0984  1.4638
  219OCT     C1 5669   1.025   3.335   1.903 -0.4992 -0.1640  0.2153
  219OCT    H11 5670   0.941   3.366   1.965  0.3529  0.6982 -2.3329
  219OCT    H12 5671   1.105   3.292   1.972  0.8452  0.6323  0.6843
  219OCT    H13 5672   1.066   3.419   1.837 -0.6423 -0.3769  0.1329
  219OCT     C2 5673   0.975   3.222   1.810  0.3465 -0.9409 -0.4704
  219OCT    H21 5674   0.876   3.253   1.773  0.4682 -2.9317  0.7709
  219OCT    H22 5675   1.040   3.209   1.723 -1.4946  0.6154  0.0112
  219OCT     C3 5676   0.950   3.088   1.883  0.2120 -0.2501 -0.3011
  219OCT    H31 5677   1.035   3.062   1.958  2.1033 -1.9990 -2.3713
  219OCT    H32 5678   0.859   3.094   1.949 -0.4271  1.2108 -1.2558
  219OCT     C4 5679   0.958   2.967   1.795  0.6166 -0.6611  0.2547
  219OCT    H41 5680   0.899   2.999   1.697 -0.0174 -0.4822 -2.3164
  219OCT    H42 5681   1.065   2.946   1.765  0.3482 -0.1833  2.7024
  219OCT     C5 5682   0.899   2.844   1.858 -0.2484  0.0628  0.5652
  219OCT    H51 5683   0.961   2.786   1.933 -0.6932 -1.1057  0.0700
  219OCT    H52 5684   0.800   2.866   1.912 -0.3913 -1.2286  0.5180
  219OCT     C6 5685   0.878   2.732   1.755  0.0827 -0.2656  0.1652
  219OCT    H61 5686   0.844   2.640   1.812  0.1325  1.6991  1.1913
  219OCT    H62 5687   0.808   2.759   1.683  3.6950  1.9800  2.0929
  219OCT     C7 5688   1.008   2.683   1.677 -0.7424  0.3315 -0.7919
  219OCT    H71 5689   1.045   2.770   1.617 -0.6325 -0.9863  0.0202
  219OCT    H72 5690   1.086   2.669   1.757 -0.3848  0.2453  0.6387
  219OCT     C8 5691   0.997   2.552   1.604  0.1144 -0.1454 -0.3679
  219OCT    H81 5692   0.980   2.470   1.671 -2.7702 -0.2298  1.0426
  219OCT    H82 5693   0.910   2.553   1.539  1.2404  2.2977 -2.3509
  219OCT    H83 5694   1.090   2.526   1.539  1.0596 -1.5068 -0.0700
  220OCT     C1 5695   2.867   0.734   3.719 -0.4560  0.2729 -0.2479
  220OCT    H11 5696   2.831   0.778   3.816  3.5244  0.1002 -2.1574
  220OCT    H12 5697   2.781   0.698   3.659 -0.6087  2.4139 -2.4877
  220OCT    H13 5698   2.937   0.648   3.736 -1.5493  1.4179 -0.8284
  220OCT     C2 5699   2.941   0.842   3.641  0.4110  0.4718  0.5904
  220OCT    H21 5700   3.021   0.894   3.704 -1.0326  1.0722  1.8080
  220OCT    H22 5701   2.979   0.806   3.540 -2.1742  0.8017 -1.7884
  220OCT     C3 5702   2.844   0.956   3.596  0.2321 -0.2074  0.3265
  220OCT    H31 5703   2.785   0.982   3.681  1.1903 -0.3260 -2.1127
  220OCT    H32 5704   2.904   1.051   3.567  2.4426  1.7810 -0.1718
  220OCT     C4 5705   2.772   0.923   3.464  0.2488  0.3111  0.0255
  220OCT    H41 5706   2.832   0.927   3.374 -1.5925 -1.8907  0.5248
  220OCT    H42 5707   2.710   0.831   3.461 -1.5619 -0.2230 -0.2817
  220OCT     C5 5708   2.658   1.031   3.431  0.3364 -0.5200 -0.5778
  220OCT    H51 5709   2.590   1.034   3.513 -1.5189  0.8423 -2.8686
  220OCT    H52 5710   2.714   1.126   3.426  0.5169 -1.6833 -0.3039
  220OCT     C6 5711   2.581   1.026   3.295  0.1108  0.2798 -0.0432
  220OCT    H61 5712   2.649   1.041   3.205  0.1856  0.2358 -0.4829
  220OCT    H62 5713   2.527   0.927   3.281 -0.1491  0.1386  2.1249
  220OCT     C7 5714   2.469   1.133   3.295  0.5609  0.0512  0.2977
  220OCT    H71 5715   2.409   1.135   3.387 -1.0498 -0.6605  0.3406
  220OCT    H72 5716   2.520   1.234   3.287  3.8595  2.0687 -1.5485
  220OCT     C8 5717   2.376   1.109   3.174 -0.0941  0.5308 -0.0313
  220OCT    H81 5718   2.429   1.092   3.081  0.8875  0.8502  0.8307
  220OCT    H82 5719   2.306   1.028   3.186  0.1354  2.6039 -0.5767
  220OCT    H83 5720   2.303   1.194   3.166  0.2971 -0.3058  0.2822
  221OCT     C1 5721   0.753   3.527   1.671 -0.1978 -0.2854  0.1304
  221OCT    H11 5722   0.758   3.523   1.780 -0.8409  1.3874 -0.0508
  221OCT    H12 5723   0.781   3.432   1.622  2.0542 -1.8177 -1.9513
  221OCT    H13 5724   0.825   3.599   1.650  1.1246 -2.9657 -1.4637
  221OCT     C2 5725   0.612   3.565   1.616 -0.7438 -0.0397 -0.0644
  221OCT    H21 5726   0.532   3.502   1.652  3.2126 -0.1032 -2.4823
  221OCT    H22 5727   0.586   3.665   1.656 -4.3894 -1.3709 -2.9537
  221OCT     C3 5728   0.602   3.572   1.462 -0.0619  0.2062 -0.5491
  221OCT    H31 5729   0.682   3.645   1.427  0.0635  2.1018  0.2487
  221OCT    H32 5730   0.620   3.476   1.400  0.8471 -0.0676 -0.1112
  221OCT     C4 5731   0.461   3.621   1.428  0.1133  0.0531  1.0625
  221OCT    H41 5732   0.386   3.546   1.456 -1.7284 -1.5152  2.2307
  221OCT    H42 5733   0.433   3.709   1.495  0.0956 -2.3547  0.6665
  221OCT     C5 5734   0.457   3.655   1.277  0.2860 -0.0726  0.1698
  221OCT    H51 5735   0.564   3.691   1.245  0.9492  1.4440 -0.5285
  221OCT    H52 5736   0.429   3.567   1.210  1.5701 -0.9734 -0.9555
  221OCT     C6 5737   0.355   3.761   1.242 -0.4002 -0.2064  0.0697
  221OCT    H61 5738   0.375   3.864   1.291  1.4602  0.6261 -1.7265
  221OCT    H62 5739   0.360   3.781   1.130  2.7829 -1.4886  1.0754
  221OCT     C7 5740   0.210   3.726   1.282 -0.5385 -0.7470 -0.0798
  221OCT    H71 5741   0.193   3.616   1.263  0.3076  0.4394  1.7813
  221OCT    H72 5742   0.211   3.732   1.395  3.8091  1.0028 -0.9434
  221OCT     C8 5743   0.106   3.817   1.229  0.2012  0.5311  0.4281
  221OCT    H81 5744   0.084   3.903   1.293 -1.6495 -0.1375 -1.6852
  221OCT    H82 5745   0.131   3.861   1.129 -0.0904  3.5971  0.8368
  221OCT    H83 5746   0.008   3.757   1.215 -0.7437 -1.6802 -1.0632
  222OCT     C1 5747   0.487   3.769   3.830 -0.1339 -0.5184  0.4264
  222OCT    H11 5748   0.549   3.680   3.846  1.7288  0.9330  0.0354
  222OCT    H12 5749   0.523   3.824   3.744 -0.2596  1.6440  1.8844
  222OCT    H13 5750   0.496   3.847   3.915 -0.5642 -0.9667  0.1230
  222OCT     C2 5751   0.342   3.722   3.809  0.6575 -0.9531  0.6812
  222OCT    H21 5752   0.305   3.642   3.882 -1.5093 -0.2048 -0.0171
  222OCT    H22 5753   0.284   3.812   3.818  3.1082 -1.0588 -1.2475
  222OCT     C3 5754   0.333   3.648   3.675 -0.0618 -0.7331  0.0327
  222OCT    H31 5755   0.387   3.713   3.599  1.5185  1.1299  0.4733
  222OCT    H32 5756   0.396   3.554   3.680  0.0838 -2.7899 -0.5343
  222OCT     C4 5757   0.187   3.633   3.630 -0.2408 -0.4699  0.2414
  222OCT    H41 5758   0.138   3.570   3.699  0.4520  2.1697  1.3368
  222OCT    H42 5759   0.136   3.731   3.636 -0.0527  1.0327  2.4024
  222OCT     C5 5760   0.195   3.590   3.486 -0.7026  0.2197  0.2995
  222OCT    H51 5761   0.098   3.560   3.438 -2.0903 -4.6171  3.2062
  222OCT    H52 5762   0.231   3.678   3.427  0.4821 -0.0339 -2.3381
  222OCT     C6 5763   0.294   3.474   3.453  1.1773  0.2579  0.3661
  222OCT    H61 5764   0.403   3.497   3.475  0.1236 -0.2692  1.0034
  222OCT    H62 5765   0.259   3.389   3.530  1.0991  0.2095  1.9282
  222OCT     C7 5766   0.282   3.405   3.320 -0.6776 -0.2363 -0.3662
  222OCT    H71 5767   0.176   3.371   3.298 -1.1030 -0.9918  0.2617
  222OCT    H72 5768   0.311   3.476   3.234 -0.2809  2.8006 -1.1209
  222OCT     C8 5769   0.389   3.288   3.311  0.6575 -0.3420  0.2819
  222OCT    H81 5770   0.376   3.217   3.387  0.0186  2.9491 -0.0622
  222OCT    H82 5771   0.381   3.238   3.210  0.5436 -0.5616 -0.4984
  222OCT    H83 5772   0.483   3.337   3.305 -3.3856  1.0065 -0.3010
  223OCT     C1 5773   2.050   1.763   2.757 -0.2810  0.7748  0.7812
  223OCT    H11 5774   2.030   1.686   2.832  1.2299 -1.3214  0.1427
  223OCT    H12 5775   2.106   1.730   2.665  0.0400  0.8160 -2.1184
  223OCT    H13 5776   2.120   1.839   2.801  0.6687 -0.1529  0.6357
  223OCT     C2 5777   1.919   1.827   2.710  0.1646  0.0767  0.5511
  223OCT    H21 5778   1.943   1.924   2.649  0.8845  1.4373 -0.2717
  223OCT    H22 5779   1.867   1.762   2.631  0.0249 -0.0490  1.6890
  223OCT     C3 5780   1.825   1.873   2.816  0.6508 -0.4603 -0.4013
  223OCT    H31 5781   1.783   1.782   2.868  0.6857  1.9508 -0.8924
  223OCT    H32 5782   1.888   1.925   2.888  1.2269 -0.9678  1.5328
  223OCT     C4 5783   1.699   1.956   2.774  0.6228 -0.0828 -0.4912
  223OCT    H41 5784   1.733   2.043   2.717  0.6789 -0.6612  0.4781
  223OCT    H42 5785   1.626   1.896   2.712 -0.9619  0.7116 -0.4376
  223OCT     C5 5786   1.633   2.018   2.899  0.2365  0.3366 -0.2474
  223OCT    H51 5787   1.629   1.936   2.970  1.6556  2.4110 -2.1630
  223OCT    H52 5788   1.697   2.108   2.929  0.7779 -0.2138 -0.3592
  223OCT     C6 5789   1.497   2.088   2.860 -0.3854 -0.0698  0.3298
  223OCT    H61 5790   1.452   2.015   2.787  0.5066 -0.9875 -0.3162
  223OCT    H62 5791   1.436   2.098   2.950 -0.2578  1.7536  2.0665
  223OCT     C7 5792   1.511   2.226   2.784 -0.0471 -0.2552 -0.8556
  223OCT    H71 5793   1.589   2.290   2.837  2.1691 -0.4257  1.8152
  223OCT    H72 5794   1.535   2.212   2.678 -2.2207  1.0523  0.7542
  223OCT     C8 5795   1.392   2.321   2.777 -0.3776  0.3031  0.2522
  223OCT    H81 5796   1.374   2.362   2.885  0.4061 -0.9892 -0.3164
  223OCT    H82 5797   1.406   2.398   2.695  2.2667  0.8851 -1.8511
  223OCT    H83 5798   1.298   2.264   2.758 -1.9657 -1.4562 -3.8970
  224OCT     C1 5799   0.237   0.043   0.959 -0.2712  0.5938  0.1126
  224OCT    H11 5800   0.216   0.022   1.066 -0.9620  3.2002 -0.2298
  224OCT    H12 5801   0.140   0.037   0.899 -1.3712  0.4257  0.5245
  224OCT    H13 5802   0.318  -0.029   0.933  1.8922  0.3570 -0.8203
  224OCT     C2 5803   0.296   0.184   0.949  0.4156 -0.0486 -0.7636
  224OCT    H21 5804   0.381   0.178   1.017 -2.6997  1.5135  0.0491
  224OCT    H22 5805   0.316   0.209   0.843 -2.1926  0.0466 -0.4129
  224OCT     C3 5806   0.208   0.299   1.004  0.7971 -0.6239  0.4874
  224OCT    H31 5807   0.126   0.317   0.933  1.3524 -0.8833  2.1694
  224OCT    H32 5808   0.181   0.284   1.107  1.3131 -0.0265 -1.2271
  224OCT     C4 5809   0.292   0.431   0.990  0.0974 -0.2462  1.1370
  224OCT    H41 5810   0.393   0.402   1.018 -0.5637 -3.1801  0.9106
  224OCT    H42 5811   0.306   0.453   0.888 -0.2792  1.2345  0.6664
  224OCT     C5 5812   0.238   0.543   1.072  0.2414 -0.0621  0.3087
  224OCT    H51 5813   0.154   0.594   1.020  1.1167  0.3010 -0.7922
  224OCT    H52 5814   0.211   0.512   1.176  1.7365 -0.4222  1.1350
  224OCT     C6 5815   0.342   0.654   1.087 -0.5316 -0.0214  0.3813
  224OCT    H61 5816   0.420   0.625   1.162  0.3603  2.2038  1.9275
  224OCT    H62 5817   0.403   0.660   0.990  1.2071 -0.6900 -2.4301
  224OCT     C7 5818   0.306   0.799   1.132  0.5862 -0.1475 -0.0122
  224OCT    H71 5819   0.209   0.827   1.093  3.1776  0.1768  1.5557
  224OCT    H72 5820   0.277   0.799   1.238  0.7570  3.1633  0.0197
  224OCT     C8 5821   0.405   0.901   1.102 -0.6640 -0.7001  0.4851
  224OCT    H81 5822   0.403   0.989   1.174 -0.8311 -0.5333 -0.0453
  224OCT    H82 5823   0.511   0.863   1.111  0.2432  2.2919  2.8168
  224OCT    H83 5824   0.411   0.935   0.994 -0.4761 -0.0268 -1.0690
  225OCT     C1 5825   4.378   0.040   3.007  0.5116 -0.2694  0.0671
  225OCT    H11 5826   4.481   0.027   3.059  0.6190 -1.1653  0.0755
  225OCT    H12 5827   4.359  -0.047   2.938 -2.3683 -1.4448 -1.7686
  225OCT    H13 5828   4.382   0.132   2.936 -0.0905  0.8462 -0.8137
  225OCT     C2 5829   4.259   0.038   3.105  0.4792  0.3251 -0.2872
  225OCT    H21 5830   4.165   0.043   3.053 -0.9591 -0.5793 -0.1409
  225OCT    H22 5831   4.253  -0.065   3.147  3.0501  1.3485  0.4515
  225OCT     C3 5832   4.273   0.149   3.212  0.1186  0.3477  0.7919
  225OCT    H31 5833   4.198   0.136   3.296 -0.9121  0.5007  1.4734
  225OCT    H32 5834   4.370   0.145   3.261 -0.2783 -2.0016  0.1343
  225OCT     C4 5835   4.244   0.290   3.165  0.2244 -0.3274  0.7778
  225OCT    H41 5836   4.336   0.324   3.106 -0.7900  1.4677 -0.6636
  225OCT    H42 5837   4.163   0.279   3.090 -0.2288 -0.0173 -1.5030
  225OCT     C5 5838   4.195   0.391   3.271 -0.3917  0.0470  0.1895
  225OCT    H51 5839   4.154   0.487   3.219  0.8567  1.6770 -0.2998
  225OCT    H52 5840   4.114   0.342   3.322  0.4633 -0.5488  0.7990
  225OCT     C6 5841   4.301   0.437   3.375  0.5170  0.2150  0.2950
  225OCT    H61 5842   4.273   0.512   3.450 -0.4156  0.4799  0.3795
  225OCT    H62 5843   4.319   0.343   3.434  2.9132  0.4848 -0.5816
  225OCT     C7 5844   4.446   0.468   3.324 -0.1587 -0.2416 -0.1140
  225OCT    H71 5845   4.483   0.374   3.264 -1.8509 -1.8929 -1.3281
  225OCT    H72 5846   4.445   0.545   3.245 -0.1781  0.2668  0.8284
  225OCT     C8 5847   4.541   0.500   3.436 -0.2725  0.1780  0.6571
  225OCT    H81 5848   4.506   0.573   3.511  1.9195 -1.2459  1.5515
  225OCT    H82 5849   4.557   0.399   3.485  0.7351 -3.4184 -0.0578
  225OCT    H83 5850   4.645   0.534   3.399  2.1633  2.8827 -0.8650
  226OCT     C1 5851   3.333   4.203   0.357  0.1909  0.3001  0.8918
  226OCT    H11 5852   3.260   4.210   0.278 -0.5857  0.8888  3.0749
  226OCT    H12 5853   3.303   4.132   0.432  0.3342 -2.7141 -0.1053
  226OCT    H13 5854   3.342   4.308   0.397 -0.2799 -1.4505  1.9266
  226OCT     C2 5855   3.472   4.152   0.313 -0.6606 -0.1831  0.0243
  226OCT    H21 5856   3.491   4.195   0.215 -1.0418 -0.8900 -1.5515
  226OCT    H22 5857   3.537   4.184   0.393 -0.7419 -0.5463  1.9218
  226OCT     C3 5858   3.474   3.999   0.288 -0.0617  0.1576 -0.4008
  226OCT    H31 5859   3.424   3.933   0.367 -2.1003 -1.9762  0.5745
  226OCT    H32 5860   3.425   3.980   0.193  2.1790 -2.5447  2.1740
  226OCT     C4 5861   3.619   3.951   0.273  0.6040  0.8506  0.1929
  226OCT    H41 5862   3.675   4.020   0.209  0.3971 -0.1679  2.0208
  226OCT    H42 5863   3.677   3.950   0.370  2.6206  0.2292  3.7737
  226OCT     C5 5864   3.622   3.814   0.210 -0.3558  0.5008  0.4844
  226OCT    H51 5865   3.542   3.758   0.261 -1.7847 -0.0345 -0.7268
  226OCT    H52 5866   3.585   3.823   0.100  2.5564  0.7767 -0.4678
  226OCT     C6 5867   3.756   3.729   0.220 -0.2913 -0.8340 -0.3120
  226OCT    H61 5868   3.791   3.753   0.328  1.3516  0.6582  3.7014
  226OCT    H62 5869   3.747   3.618   0.216 -1.9655 -0.4417 -1.8056
  226OCT     C7 5870   3.862   3.777   0.123  0.1590 -0.3741 -0.2031
  226OCT    H71 5871   3.830   3.741   0.019 -1.5463 -2.3224 -1.4770
  226OCT    H72 5872   3.868   3.889   0.134 -0.0358  0.3816  3.6806
  226OCT     C8 5873   3.990   3.711   0.171 -0.4558 -0.2548  1.1860
  226OCT    H81 5874   4.086   3.738   0.114  2.0961  1.1115  2.6251
  226OCT    H82 5875   4.029   3.747   0.272  2.7919 -0.2869  0.3977
  226OCT    H83 5876   3.980   3.597   0.168  2.5396  2.5311 -1.3277
  227OCT     C1 5877   0.356   0.704   2.301  0.2540 -0.7148  0.4811
  227OCT    H11 5878   0.294   0.690   2.394  0.5998  0.1848  0.3528
  227OCT    H12 5879   0.296   0.786   2.254 -0.4002 -1.5646 -2.0535
  227OCT    H13 5880   0.357   0.612   2.234  0.9304 -1.4653 -1.9490
  227OCT     C2 5881   0.498   0.748   2.327  0.2989 -0.8004 -0.1375
  227OCT    H21 5882   0.514   0.705   2.430 -0.3847 -0.6052  2.4684
  227OCT    H22 5883   0.561   0.687   2.255  0.6252  0.4606 -2.0331
  227OCT     C3 5884   0.537   0.900   2.328  0.5763  0.4185  0.6528
  227OCT    H31 5885   0.646   0.905   2.343  0.5353  1.7315 -2.1228
  227OCT    H32 5886   0.518   0.936   2.231  3.0549 -1.7758 -0.0359
  227OCT     C4 5887   0.462   0.997   2.417 -0.4237 -1.0686 -0.1129
  227OCT    H41 5888   0.352   1.008   2.383 -1.9703  1.5415 -1.1723
  227OCT    H42 5889   0.462   0.967   2.523  1.4893  1.7183 -0.1240
  227OCT     C5 5890   0.520   1.140   2.404 -0.0942 -0.0713  0.0331
  227OCT    H51 5891   0.633   1.135   2.417  2.3931  0.7972  0.2598
  227OCT    H52 5892   0.501   1.169   2.299  0.2606 -0.7139 -3.1017
  227OCT     C6 5893   0.454   1.240   2.502 -0.1077  0.1464  0.0525
  227OCT    H61 5894   0.344   1.206   2.517 -1.2156 -1.8811  2.6967
  227OCT    H62 5895   0.497   1.220   2.599 -2.1374  0.3468  1.3192
  227OCT     C7 5896   0.470   1.396   2.467  0.5083  0.0061 -0.0472
  227OCT    H71 5897   0.404   1.423   2.380 -2.6031  0.6731 -0.6545
  227OCT    H72 5898   0.422   1.453   2.547  0.6431  2.3637 -0.5263
  227OCT     C8 5899   0.616   1.433   2.440 -0.3296  0.5479  0.5455
  227OCT    H81 5900   0.679   1.401   2.521 -1.2219 -1.6234  3.3435
  227OCT    H82 5901   0.644   1.373   2.350  0.4375 -1.7621 -1.0183
  227OCT    H83 5902   0.626   1.540   2.417  0.2630  0.2346  2.9162
  228OCT     C1 5903   1.365   0.776   2.201  0.7299  0.2383 -0.7051
  228OCT    H11 5904   1.342   0.745   2.307 -1.0132 -0.5156 -1.3962
  228OCT    H12 5905   1.273   0.755   2.149  0.9876  4.3541 -1.2281
  228OCT    H13 5906   1.453   0.719   2.178  1.3799  1.7027  1.5702
  228OCT     C2 5907   1.394   0.923   2.183  0.6041 -0.8233  0.6038
  228OCT    H21 5908   1.320   0.988   2.234  0.4554  0.6891  1.7691
  228OCT    H22 5909   1.492   0.942   2.228  0.2491  0.5994  0.2729
  228OCT     C3 5910   1.373   0.973   2.040  0.6109 -0.1460  0.5610
  228OCT    H31 5911   1.410   0.898   1.963 -1.2779 -0.0996 -0.2500
  228OCT    H32 5912   1.264   0.966   2.023  1.9839  1.5952  0.3443
  228OCT     C4 5913   1.427   1.107   2.005  0.2822 -0.8986 -0.4968
  228OCT    H41 5914   1.385   1.187   2.071  0.9622  1.1433 -0.6595
  228OCT    H42 5915   1.531   1.104   2.028 -2.2612 -1.2581 -0.0046
  228OCT     C5 5916   1.406   1.131   1.855  0.0356  0.3561  0.1046
  228OCT    H51 5917   1.434   1.042   1.791  0.6283 -0.0218  1.2888
  228OCT    H52 5918   1.298   1.147   1.839  3.0974  1.1783 -1.3283
  228OCT     C6 5919   1.465   1.259   1.791 -0.6973  0.7781  0.3147
  228OCT    H61 5920   1.575   1.245   1.776  0.6484 -0.5120  1.8856
  228OCT    H62 5921   1.416   1.282   1.696  1.3258  3.0316 -1.0509
  228OCT     C7 5922   1.454   1.397   1.866  0.5424 -0.2297 -0.4574
  228OCT    H71 5923   1.356   1.417   1.911  2.1120 -1.0350  0.5549
  228OCT    H72 5924   1.526   1.383   1.948 -1.6772 -1.3011 -0.0464
  228OCT     C8 5925   1.503   1.520   1.796  0.0820 -0.4130  0.4938
  228OCT    H81 5926   1.428   1.523   1.711 -0.7775 -0.9942 -0.4111
  228OCT    H82 5927   1.508   1.616   1.860 -0.8260  1.7688  0.6050
  228OCT    H83 5928   1.600   1.498   1.752  0.1408  1.3864 -0.6677
  229OCT     C1 5929   0.727   0.710   1.394  0.0713  0.0937 -0.2622
  229OCT    H11 5930   0.618   0.727   1.408 -0.9024  0.0195 -1.5595
  229OCT    H12 5931   0.787   0.763   1.470 -0.1980 -2.7007 -1.5701
  229OCT    H13 5932   0.758   0.743   1.287  0.7694  1.6035 -3.5975
  229OCT     C2 5933   0.762   0.554   1.409 -0.6100  0.1405  0.6001
  229OCT    H21 5934   0.697   0.514   1.336 -0.0741  2.0426  0.5325
  229OCT    H22 5935   0.869   0.540   1.371 -0.7120 -0.7491  0.9790
  229OCT     C3 5936   0.774   0.497   1.553  0.1779 -0.6013  0.0553
  229OCT    H31 5937   0.811   0.567   1.626 -0.3409 -2.3051  1.0228
  229OCT    H32 5938   0.676   0.470   1.596  0.2253 -3.8030  2.0765
  229OCT     C4 5939   0.864   0.373   1.557 -0.0388  0.8824  0.2568
  229OCT    H41 5940   0.954   0.384   1.487  1.3917 -0.1700 -1.5050
  229OCT    H42 5941   0.905   0.359   1.659  1.8839  0.1865 -1.5062
  229OCT     C5 5942   0.786   0.250   1.517 -0.5372 -0.0496  0.0650
  229OCT    H51 5943   0.712   0.223   1.593 -1.5494 -0.3805  1.0494
  229OCT    H52 5944   0.732   0.265   1.426 -1.2246  0.8487 -1.1788
  229OCT     C6 5945   0.881   0.131   1.494 -0.3934 -0.4397  0.2450
  229OCT    H61 5946   0.821   0.043   1.453 -1.3198 -3.1222 -1.0077
  229OCT    H62 5947   0.961   0.155   1.417 -0.6763 -0.2618 -4.2782
  229OCT     C7 5948   0.958   0.085   1.619 -0.4411 -0.5647  0.1006
  229OCT    H71 5949   1.035   0.158   1.652 -0.6283 -1.5853  0.3467
  229OCT    H72 5950   0.889   0.077   1.707 -1.4260  1.3365 -2.9800
  229OCT     C8 5951   1.025  -0.049   1.598 -0.1370  0.1475 -0.1965
  229OCT    H81 5952   0.944  -0.126   1.588 -1.3331  0.1647 -0.0890
  229OCT    H82 5953   1.073  -0.056   1.501 -0.4197 -1.9634  0.4797
  229OCT    H83 5954   1.094  -0.074   1.684  0.1358 -3.4525  0.7009
  230OCT     C1 5955   3.118   4.197   4.001  0.4020  0.5220  0.1089
  230OCT    H11 5956   3.193   4.258   4.062  1.3255  0.3414  0.1114
  230OCT    H12 5957   3.039   4.259   3.952 -2.6537  2.1806  0.4050
  230OCT    H13 5958   3.062   4.133   4.076  1.7430 -4.0196 -0.5660
  230OCT     C2 5959   3.179   4.100   3.901 -0.4528  0.3223 -0.4610
  230OCT    H21 5960   3.235   4.155   3.821  1.9231  1.3327  1.0626
  230OCT    H22 5961   3.253   4.042   3.947 -1.4708  2.4973 -1.5253
  230OCT     C3 5962   3.080   4.001   3.840 -0.0779 -0.2704  0.0673
  230OCT    H31 5963   3.036   3.936   3.911  1.8748  0.5133 -0.5749
  230OCT    H32 5964   2.996   4.067   3.803 -0.2075 -0.1902  0.5324
  230OCT     C4 5965   3.131   3.926   3.718  0.2205  0.3611 -0.1794
  230OCT    H41 5966   3.187   3.991   3.650  1.0689  1.2247  0.0763
  230OCT    H42 5967   3.207   3.852   3.749  0.0844 -0.1578 -0.1551
  230OCT     C5 5968   3.030   3.827   3.658  0.3951 -0.8781  0.0597
  230OCT    H51 5969   2.998   3.756   3.731 -0.2664  3.2416  1.1222
  230OCT    H52 5970   2.932   3.882   3.624 -2.1947  2.2509  0.2131
  230OCT     C6 5971   3.086   3.748   3.543 -0.7444  0.3742  0.7399
  230OCT    H61 5972   3.112   3.832   3.470 -1.4423  1.5900  0.9832
  230OCT    H62 5973   3.180   3.706   3.584 -3.1981  1.6012 -0.8934
  230OCT     C7 5974   2.993   3.653   3.477 -0.1666  0.6523 -0.8566
  230OCT    H71 5975   2.900   3.708   3.455 -2.2910 -0.6797  0.0931
  230OCT    H72 5976   3.034   3.604   3.386  1.8422  0.6767 -0.9882
  230OCT     C8 5977   2.970   3.537   3.582  0.0690  0.2517 -0.5408
  230OCT    H81 5978   3.066   3.499   3.619  0.6735 -0.5007  1.6881
  230OCT    H82 5979   2.909   3.577   3.665 -1.7753 -0.3272 -1.6705
  230OCT    H83 5980   2.916   3.448   3.536  0.2882  0.6939 -1.1507
  231OCT     C1 5981   0.378   3.292   3.934  0.9296  0.4790 -0.1940
  231OCT    H11 5982   0.455   3.252   4.002 -1.3375  1.0688 -0.2781
  231OCT    H12 5983   0.379   3.394   3.968  1.7970 -1.7860  0.4303
  231OCT    H13 5984   0.289   3.240   3.950  2.6576  1.6661 -0.2047
  231OCT     C2 5985   0.433   3.291   3.791 -0.8476 -0.0708  0.1639
  231OCT    H21 5986   0.355   3.329   3.721  0.1220 -1.2632  0.6860
  231OCT    H22 5987   0.517   3.367   3.791  2.0861  0.7214  0.4278
  231OCT     C3 5988   0.494   3.157   3.759 -0.0532  0.2140 -0.8811
  231OCT    H31 5989   0.567   3.125   3.844  2.2413  0.3520  2.5723
  231OCT    H32 5990   0.405   3.089   3.746 -3.7007  3.4339 -1.1999
  231OCT     C4 5991   0.571   3.160   3.627 -0.4424 -0.5235 -0.2536
  231OCT    H41 5992   0.491   3.176   3.546 -1.9989  1.0607 -2.1496
  231OCT    H42 5993   0.638   3.248   3.626 -0.1416 -1.2648 -1.2283
  231OCT     C5 5994   0.640   3.030   3.592 -0.3498  0.1902  0.1007
  231OCT    H51 5995   0.586   2.948   3.629  0.6472  2.7923 -2.2506
  231OCT    H52 5996   0.661   3.024   3.485 -0.3703 -0.5446 -0.3377
  231OCT     C6 5997   0.777   3.016   3.670  0.9168 -0.3869 -0.0212
  231OCT    H61 5998   0.835   3.101   3.625  2.4791 -1.0539 -1.1871
  231OCT    H62 5999   0.767   3.031   3.782 -2.3001 -2.7849  0.5894
  231OCT     C7 6000   0.839   2.882   3.646 -0.0244  0.1569  0.2183
  231OCT    H71 6001   0.769   2.795   3.672  0.8116 -1.2847 -0.3572
  231OCT    H72 6002   0.860   2.858   3.537  1.3522 -2.0754 -0.5981
  231OCT     C8 6003   0.957   2.863   3.732 -0.4818  0.3503 -0.2525
  231OCT    H81 6004   1.019   2.948   3.707  1.6418  2.2274 -1.2773
  231OCT    H82 6005   0.942   2.863   3.838  1.7111  0.2408  0.1724
  231OCT    H83 6006   1.008   2.763   3.710 -2.8369 -1.7026  0.2405
  232OCT     C1 6007   1.648   3.781   4.028 -0.5181  0.3930  0.0097
  232OCT    H11 6008   1.628   3.752   4.134  1.6178  0.8842  0.7570
  232OCT    H12 6009   1.567   3.773   3.959  1.5515  0.3146 -0.0124
  232OCT    H13 6010   1.729   3.713   3.996  0.9144 -1.9448  0.4588
  232OCT     C2 6011   1.694   3.920   4.028 -0.1532 -0.1022 -0.3727
  232OCT    H21 6012   1.768   3.961   4.100 -1.7857  2.0871  0.2124
  232OCT    H22 6013   1.757   3.937   3.936 -0.3055  1.4912  1.6488
  232OCT     C3 6014   1.578   4.017   4.009 -0.0169  0.4710  0.1998
  232OCT    H31 6015   1.624   4.115   4.013 -3.3485  0.0633 -1.0389
  232OCT    H32 6016   1.540   4.013   3.903  2.8400  0.9051 -0.8635
  232OCT     C4 6017   1.466   4.014   4.112  0.1046  0.7823 -0.3685
  232OCT    H41 6018   1.435   3.910   4.143 -0.6405  1.0494  1.4743
  232OCT    H42 6019   1.504   4.054   4.209 -3.1903 -1.5314  0.1064
  232OCT     C5 6020   1.331   4.082   4.073  0.4038  0.2936  0.0860
  232OCT    H51 6021   1.285   4.039   3.977 -1.3556 -0.5311  1.1034
  232OCT    H52 6022   1.255   4.068   4.158 -2.4628 -1.6841 -0.7579
  232OCT     C6 6023   1.347   4.237   4.052  0.0241  0.4375 -0.2990
  232OCT    H61 6024   1.415   4.281   4.126 -0.2173  0.4493 -0.0355
  232OCT    H62 6025   1.396   4.255   3.952  0.1217 -0.0766  2.9514
  232OCT     C7 6026   1.220   4.324   4.065  0.6417 -0.4985  0.1902
  232OCT    H71 6027   1.238   4.432   4.029 -2.6756 -1.1522 -2.5063
  232OCT    H72 6028   1.140   4.280   3.998 -0.6514 -0.1993  1.3811
  232OCT     C8 6029   1.150   4.327   4.200 -0.4398  0.3768  0.0823
  232OCT    H81 6030   1.047   4.351   4.205  0.5778 -4.0128 -0.6159
  232OCT    H82 6031   1.150   4.225   4.243  0.1820  0.9890 -0.7381
  232OCT    H83 6032   1.205   4.394   4.271  0.4347  1.1962 -0.3719
  233OCT     C1 6033   3.035   3.332   0.822 -0.7493 -0.5051 -0.1496
  233OCT    H11 6034   3.033   3.300   0.924 -0.1567  1.2045  0.5615
  233OCT    H12 6035   3.142   3.333   0.789 -0.6234 -0.7235  1.5779
  233OCT    H13 6036   2.984   3.433   0.814 -1.0366  0.0515  0.9921
  233OCT     C2 6037   2.966   3.233   0.732  0.0212 -0.5934  0.0550
  233OCT    H21 6038   3.022   3.145   0.745 -1.2754  1.6251 -1.2389
  233OCT    H22 6039   2.854   3.222   0.755 -4.5316  1.2758 -0.7070
  233OCT     C3 6040   2.964   3.275   0.583 -0.0152 -0.3787  0.1268
  233OCT    H31 6041   2.895   3.366   0.593  1.5516  0.1108  1.1245
  233OCT    H32 6042   3.071   3.303   0.556 -1.1633 -3.2386 -0.8391
  233OCT     C4 6043   2.900   3.174   0.484  0.2247 -0.3638 -0.6253
  233OCT    H41 6044   2.943   3.075   0.510  0.4728 -0.6843 -1.1150
  233OCT    H42 6045   2.798   3.165   0.508  2.8290  2.3125 -3.2174
  233OCT     C5 6046   2.897   3.204   0.332 -0.6218  0.6709  0.4904
  233OCT    H51 6047   2.838   3.295   0.322 -1.0496 -1.3959  0.0620
  233OCT    H52 6048   3.003   3.216   0.292  2.8701 -0.8570 -1.8354
  233OCT     C6 6049   2.824   3.093   0.247  0.2282  0.3214  1.1459
  233OCT    H61 6050   2.717   3.089   0.278  1.5837 -3.3662  1.2301
  233OCT    H62 6051   2.832   3.127   0.140  2.3379  0.3833 -1.3401
  233OCT     C7 6052   2.892   2.960   0.255 -0.3845 -0.3165  0.4572
  233OCT    H71 6053   2.997   2.973   0.237 -0.9327  1.3725 -0.2816
  233OCT    H72 6054   2.870   2.911   0.353 -3.4541  0.5023  1.4693
  233OCT     C8 6055   2.850   2.848   0.152  0.3480  0.2512 -0.2222
  233OCT    H81 6056   2.939   2.772   0.134  1.4161 -2.5485 -1.5368
  233OCT    H82 6057   2.759   2.795   0.195  0.6134 -0.2871  0.8733
  233OCT    H83 6058   2.817   2.889   0.055 -2.9450 -0.1938 -1.6668
  234OCT     C1 6059   1.474   0.097   1.191  0.0290 -0.6305  0.0280
  234OCT    H11 6060   1.475   0.019   1.273 -0.9860 -1.7495  2.8686
  234OCT    H12 6061   1.568   0.100   1.135 -0.9254  0.6177  0.5525
  234OCT    H13 6062   1.464   0.193   1.246 -0.0650  0.5777 -0.6739
  234OCT     C2 6063   1.347   0.066   1.110 -0.2874 -0.2908 -0.1750
  234OCT    H21 6064   1.363   0.119   1.013  0.7437  0.5420 -1.6215
  234OCT    H22 6065   1.336  -0.045   1.097  1.3662  0.7027  1.8383
  234OCT     C3 6066   1.216   0.119   1.170  0.0615 -0.2038 -0.0430
  234OCT    H31 6067   1.179   0.071   1.265  0.7459  1.0587  0.6148
  234OCT    H32 6068   1.233   0.226   1.193  2.1429 -3.6575  0.2646
  234OCT     C4 6069   1.109   0.110   1.063  0.2983  0.0229 -0.1695
  234OCT    H41 6070   1.166   0.105   0.966  0.0587  0.2663  0.2321
  234OCT    H42 6071   1.056   0.012   1.072  2.1318 -0.2683 -1.1230
  234OCT     C5 6072   1.010   0.215   1.068 -0.9400 -0.1032  0.7720
  234OCT    H51 6073   0.959   0.198   1.168 -1.1367 -0.9861  0.0370
  234OCT    H52 6074   1.067   0.311   1.069 -1.0668  3.3198  0.9597
  234OCT     C6 6075   0.914   0.208   0.950  0.3332 -0.4372 -0.5535
  234OCT    H61 6076   0.956   0.218   0.849 -1.0419  1.5503 -1.8283
  234OCT    H62 6077   0.854   0.116   0.947 -0.4782  1.3814  3.4092
  234OCT     C7 6078   0.815   0.333   0.941 -0.3756  0.6083 -0.3993
  234OCT    H71 6079   0.884   0.420   0.910  1.5849 -0.6891  1.7909
  234OCT    H72 6080   0.762   0.319   0.844  0.4095  0.8539 -2.2934
  234OCT     C8 6081   0.738   0.356   1.073  0.5246  0.3858  0.4681
  234OCT    H81 6082   0.665   0.430   1.049  3.3004  0.9794  1.3136
  234OCT    H82 6083   0.709   0.256   1.124 -0.1114 -0.4706  1.9888
  234OCT    H83 6084   0.799   0.403   1.147  0.1760 -0.4842  2.2031
  235OCT     C1 6085   3.827   2.841   2.353  0.2030 -0.0420  0.2109
  235OCT    H11 6086   3.906   2.871   2.434 -0.0446 -1.7654  1.6986
  235OCT    H12 6087   3.768   2.751   2.391  3.1675 -0.2198  0.2640
  235OCT    H13 6088   3.880   2.819   2.262 -0.2551  0.4024  1.2763
  235OCT     C2 6089   3.744   2.968   2.329 -0.2451 -0.8505 -0.0867
  235OCT    H21 6090   3.804   3.050   2.297  1.5951 -3.1367  1.7341
  235OCT    H22 6091   3.666   2.955   2.256  0.0070  3.4975  2.8588
  235OCT     C3 6092   3.666   3.009   2.455 -0.8039  0.0687  0.4647
  235OCT    H31 6093   3.591   2.931   2.468  1.3767 -0.9145 -0.4535
  235OCT    H32 6094   3.726   3.012   2.548 -0.1482 -1.5435  1.4309
  235OCT     C4 6095   3.599   3.145   2.444 -0.4390  0.3114  0.4061
  235OCT    H41 6096   3.682   3.214   2.443 -2.1774 -0.2511  1.0570
  235OCT    H42 6097   3.547   3.144   2.350  2.8680  0.8409 -0.8087
  235OCT     C5 6098   3.508   3.184   2.559  0.1745  0.3557  0.2070
  235OCT    H51 6099   3.457   3.287   2.549 -1.7934  1.6258  1.3266
  235OCT    H52 6100   3.426   3.108   2.548  0.9075 -0.3895  2.4089
  235OCT     C6 6101   3.549   3.175   2.707  0.1920 -0.8127  0.1306
  235OCT    H61 6102   3.566   3.064   2.732  0.0387  0.8464 -1.3594
  235OCT    H62 6103   3.641   3.230   2.732  0.9696 -0.2628 -1.1228
  235OCT     C7 6104   3.437   3.231   2.795  0.1838 -0.2319 -0.8179
  235OCT    H71 6105   3.398   3.328   2.745 -2.8171  0.7747 -1.8635
  235OCT    H72 6106   3.351   3.160   2.791 -1.4170 -0.3095 -0.2572
  235OCT     C8 6107   3.464   3.255   2.942  0.1046 -0.4898 -0.2768
  235OCT    H81 6108   3.451   3.167   3.010 -2.1398  0.1277  4.5505
  235OCT    H82 6109   3.571   3.287   2.956  1.0519  1.4994 -0.4512
  235OCT    H83 6110   3.402   3.337   2.996 -0.5525  0.5437 -1.3607
  236OCT     C1 6111   1.731   4.345   1.377  0.4379  0.1112 -0.0156
  236OCT    H11 6112   1.663   4.270   1.324  2.5316 -1.0967 -1.1354
  236OCT    H12 6113   1.679   4.432   1.403  0.5253 -0.2904  0.2536
  236OCT    H13 6114   1.821   4.373   1.315  3.1144  0.2184  3.2347
  236OCT     C2 6115   1.778   4.295   1.516 -0.4300  0.1569  0.0776
  236OCT    H21 6116   1.849   4.210   1.502  0.5408  2.0862  1.8011
  236OCT    H22 6117   1.827   4.382   1.557  0.1906 -0.0189 -1.4646
  236OCT     C3 6118   1.663   4.252   1.602  0.3751 -0.2397 -0.2953
  236OCT    H31 6119   1.623   4.160   1.558  0.1382  1.3325 -0.7659
  236OCT    H32 6120   1.704   4.227   1.705  2.8658  2.0909 -0.7626
  236OCT     C4 6121   1.549   4.361   1.624  0.7680  0.2715 -0.3769
  236OCT    H41 6122   1.506   4.384   1.525  1.7687  2.9471 -0.0259
  236OCT    H42 6123   1.471   4.324   1.691 -1.3187  1.1459 -2.0188
  236OCT     C5 6124   1.594   4.495   1.697 -0.9591  0.6159  0.7686
  236OCT    H51 6125   1.644   4.472   1.789 -1.3074  1.7938 -2.3999
  236OCT    H52 6126   1.675   4.534   1.631  0.3115 -3.4332  1.4808
  236OCT     C6 6127   1.476   4.594   1.711  0.3431  0.5810  0.3442
  236OCT    H61 6128   1.393   4.546   1.766 -0.8901 -0.8022 -0.3205
  236OCT    H62 6129   1.510   4.683   1.759 -1.5680  0.3958 -3.6018
  236OCT     C7 6130   1.431   4.656   1.573  0.8893  0.5779  0.1548
  236OCT    H71 6131   1.518   4.716   1.536 -0.5096 -0.6093 -0.4917
  236OCT    H72 6132   1.423   4.581   1.494  1.6667 -1.2079 -0.0708
  236OCT     C8 6133   1.303   4.741   1.578 -0.2490 -0.9986  0.0839
  236OCT    H81 6134   1.289   4.793   1.479  1.3763  2.7011  0.0506
  236OCT    H82 6135   1.217   4.674   1.610 -0.5229 -2.5948  0.9827
  236OCT    H83 6136   1.296   4.825   1.647  0.3555  1.2138 -1.3896
  237OCT     C1 6137   2.828   0.577   0.854 -0.2894 -0.7626 -0.4289
  237OCT    H11 6138   2.808   0.487   0.915 -1.4517  0.5347 -1.7039
  237OCT    H12 6139   2.937   0.585   0.835 -1.4480 -0.6068  0.4367
  237OCT    H13 6140   2.788   0.675   0.905 -2.3335  0.0038  0.7783
  237OCT     C2 6141   2.736   0.550   0.745  0.1791 -0.2482  0.4045
  237OCT    H21 6142   2.772   0.466   0.681  1.5954 -0.2630  1.1913
  237OCT    H22 6143   2.634   0.526   0.773  2.9853 -2.7159  1.1663
  237OCT     C3 6144   2.737   0.666   0.641 -0.2293 -0.4553  0.5822
  237OCT    H31 6145   2.674   0.744   0.685 -2.2765 -1.3533 -0.1697
  237OCT    H32 6146   2.835   0.717   0.639  0.5495 -1.3995  0.1586
  237OCT     C4 6147   2.676   0.642   0.502 -0.6018 -0.4397 -0.3844
  237OCT    H41 6148   2.572   0.611   0.512 -1.5573  2.8592  0.7951
  237OCT    H42 6149   2.662   0.750   0.466 -0.5018  2.6763  1.5570
  237OCT     C5 6150   2.729   0.548   0.393 -0.2138 -0.0223  0.1473
  237OCT    H51 6151   2.718   0.447   0.453 -0.3118 -2.0911  2.4931
  237OCT    H52 6152   2.658   0.541   0.299 -1.0230  0.9591 -3.5767
  237OCT     C6 6153   2.871   0.575   0.351 -0.0984  0.6413 -0.1020
  237OCT    H61 6154   2.889   0.674   0.305 -1.3676 -2.0407 -1.3783
  237OCT    H62 6155   2.937   0.566   0.449  1.1527 -1.2991  3.1722
  237OCT     C7 6156   2.930   0.481   0.245  0.0233 -0.5024 -0.1326
  237OCT    H71 6157   2.943   0.389   0.302  1.2014  1.9957 -0.3508
  237OCT    H72 6158   2.863   0.478   0.162  2.8205 -0.0236 -1.3879
  237OCT     C8 6159   3.073   0.519   0.192 -0.3083 -0.2125 -0.1144
  237OCT    H81 6160   3.150   0.532   0.268 -3.0850  1.8587 -0.2351
  237OCT    H82 6161   3.116   0.449   0.115  0.1662  0.1940 -1.6732
  237OCT    H83 6162   3.074   0.621   0.143  2.7973  1.0917 -0.1136
  238OCT     C1 6163   0.960   3.871   0.264  0.4286 -0.2984 -0.0473
  238OCT    H11 6164   1.020   3.965   0.260 -1.3405  2.7201  2.9970
  238OCT    H12 6165   0.942   3.844   0.362 -0.4360  0.6876 -2.4078
  238OCT    H13 6166   1.014   3.787   0.223 -0.3237  0.8084  4.8511
  238OCT     C2 6167   0.817   3.883   0.207  0.0719 -0.1823  0.2527
  238OCT    H21 6168   0.822   3.948   0.117 -0.7022  0.2945 -2.1016
  238OCT    H22 6169   0.770   3.782   0.179  0.9247 -1.6599  0.1525
  238OCT     C3 6170   0.720   3.949   0.315 -0.0879  0.0947 -0.1671
  238OCT    H31 6171   0.705   3.880   0.400 -1.2668  1.1752 -0.0673
  238OCT    H32 6172   0.773   4.039   0.360 -0.4561  0.1349  2.7530
  238OCT     C4 6173   0.581   3.988   0.258 -0.6279  0.1793 -0.8768
  238OCT    H41 6174   0.527   4.065   0.319  0.2238  0.2635  0.7471
  238OCT    H42 6175   0.587   4.037   0.155  0.5445  1.0655  0.4468
  238OCT     C5 6176   0.490   3.870   0.254  0.4688 -0.1986  0.3983
  238OCT    H51 6177   0.523   3.786   0.189 -2.0474  0.2426  1.9801
  238OCT    H52 6178   0.481   3.822   0.352  0.2402  0.9813  1.0054
  238OCT     C6 6179   0.345   3.898   0.217  0.6753 -0.2445  0.3486
  238OCT    H61 6180   0.298   3.794   0.215  2.4529  0.9622  2.2068
  238OCT    H62 6181   0.293   3.942   0.299  0.1633 -1.3940 -0.1512
  238OCT     C7 6182   0.304   3.973   0.092 -1.6064  0.8210  0.5251
  238OCT    H71 6183   0.317   4.086   0.109  0.0769  2.9124  2.2026
  238OCT    H72 6184   0.382   3.936   0.022 -1.2388  0.2886 -0.3594
  238OCT     C8 6185   0.170   3.955   0.015 -0.0285  0.2879 -0.4316
  238OCT    H81 6186   0.157   3.846  -0.003 -0.2352 -1.4066 -1.6507
  238OCT    H82 6187   0.079   3.983   0.075  0.4663  1.1794 -1.2994
  238OCT    H83 6188   0.173   4.006  -0.080 -0.0731 -1.3508  3.1464
  239OCT     C1 6189   3.611   0.699   1.788  0.1159 -0.3842 -0.0776
  239OCT    H11 6190   3.650   0.645   1.876 -1.3166 -1.9250 -1.0499
  239OCT    H12 6191   3.579   0.626   1.713  1.4443  1.8717 -0.2929
  239OCT    H13 6192   3.688   0.762   1.753  1.2528 -1.2659  0.8547
  239OCT     C2 6193   3.494   0.781   1.835 -0.3587  0.3206 -0.1131
  239OCT    H21 6194   3.439   0.821   1.751  3.0654 -2.3703  1.1296
  239OCT    H22 6195   3.416   0.717   1.885 -0.0525  1.2228  2.0771
  239OCT     C3 6196   3.544   0.890   1.935 -0.1370  0.1551  0.0134
  239OCT    H31 6197   3.619   0.958   1.882  1.2722  2.2379 -0.4737
  239OCT    H32 6198   3.458   0.950   1.965  1.5948  0.9129 -3.1760
  239OCT     C4 6199   3.623   0.838   2.059  0.9265  0.4014  0.0306
  239OCT    H41 6200   3.572   0.748   2.105  0.0291 -0.8119  4.5139
  239OCT    H42 6201   3.724   0.803   2.038 -1.3871 -1.3233 -0.7126
  239OCT     C5 6202   3.622   0.958   2.164 -0.1951  0.8233  0.3792
  239OCT    H51 6203   3.701   1.041   2.144 -0.3403  0.0518 -0.9089
  239OCT    H52 6204   3.518   1.007   2.154 -1.0750  2.3731 -2.7196
  239OCT     C6 6205   3.624   0.903   2.308  0.1001 -0.0153  0.9543
  239OCT    H61 6206   3.708   0.846   2.329 -1.1130  0.0232  0.9238
  239OCT    H62 6207   3.634   0.983   2.381  3.0417  0.5123  1.2536
  239OCT     C7 6208   3.499   0.825   2.342  0.0284 -0.8033 -0.1312
  239OCT    H71 6209   3.407   0.886   2.310  0.4690  3.9612 -0.3430
  239OCT    H72 6210   3.495   0.727   2.296 -0.6678  0.5833  0.7579
  239OCT     C8 6211   3.485   0.793   2.488 -0.0908 -0.2897  0.7418
  239OCT    H81 6212   3.568   0.733   2.519  0.4977 -0.3095 -1.0526
  239OCT    H82 6213   3.488   0.896   2.541 -2.8170  0.5496 -1.8888
  239OCT    H83 6214   3.396   0.722   2.506 -0.4071  1.2829  0.8721
  240OCT     C1 6215   1.825   1.284   1.566  0.6103 -0.3893  0.2731
  240OCT    H11 6216   1.809   1.320   1.465 -0.6066 -2.2265 -0.4778
  240OCT    H12 6217   1.753   1.333   1.629  2.7583 -0.1444 -1.8553
  240OCT    H13 6218   1.930   1.311   1.598  0.7407 -2.0998  2.5795
  240OCT     C2 6219   1.806   1.130   1.570  0.2054 -0.4214 -0.1097
  240OCT    H21 6220   1.698   1.103   1.540 -3.4649  0.9428 -2.1990
  240OCT    H22 6221   1.876   1.075   1.502  1.1769 -1.2682 -2.3983
  240OCT     C3 6222   1.837   1.079   1.710 -0.6650  0.4315 -1.1426
  240OCT    H31 6223   1.938   1.111   1.738  0.7739 -0.9362 -0.8168
  240OCT    H32 6224   1.774   1.139   1.783  0.9376 -0.2770  1.5881
  240OCT     C4 6225   1.824   0.928   1.729  0.4210  0.5872  0.4603
  240OCT    H41 6226   1.860   0.866   1.643  1.1496  2.0288  0.6705
  240OCT    H42 6227   1.888   0.907   1.810 -0.2077  0.9250  0.2713
  240OCT     C5 6228   1.679   0.883   1.779  0.2476  0.9966  0.1088
  240OCT    H51 6229   1.656   0.942   1.872  0.9820  2.2585 -2.0569
  240OCT    H52 6230   1.610   0.913   1.701  1.1068  1.8705  0.4721
  240OCT     C6 6231   1.669   0.736   1.815 -0.4081 -0.0196  0.5023
  240OCT    H61 6232   1.754   0.704   1.872 -1.1172  1.8525  0.0204
  240OCT    H62 6233   1.581   0.729   1.881  2.0194  2.8557 -1.4492
  240OCT     C7 6234   1.658   0.646   1.686 -1.4544  0.4327 -0.4940
  240OCT    H71 6235   1.738   0.670   1.614 -0.3224  1.8123  0.4679
  240OCT    H72 6236   1.674   0.539   1.724  0.9932 -0.7449  0.5911
  240OCT     C8 6237   1.525   0.646   1.609  0.2731 -0.1902 -0.3164
  240OCT    H81 6238   1.517   0.723   1.535  1.0100  0.8452  0.4146
  240OCT    H82 6239   1.510   0.548   1.548 -0.5948 -0.3261 -0.5059
  240OCT    H83 6240   1.431   0.654   1.668 -2.3999  0.6759 -0.6572
  241OCT     C1 6241   3.707   0.160   3.537  0.0513 -0.0757 -0.5255
  241OCT    H11 6242   3.667   0.060   3.580  2.7690 -2.9956 -1.1752
  241OCT    H12 6243   3.809   0.180   3.576  1.1826 -0.1030  0.4835
  241OCT    H13 6244   3.643   0.246   3.556  1.8140 -3.7364 -0.1349
  241OCT     C2 6245   3.702   0.141   3.391  0.3629  0.1178  0.2772
  241OCT    H21 6246   3.593   0.123   3.358 -0.3100  0.2638 -1.7182
  241OCT    H22 6247   3.727   0.238   3.345 -0.2720 -2.8141 -0.6677
  241OCT     C3 6248   3.805   0.032   3.347  0.6499  0.3420  0.1864
  241OCT    H31 6249   3.915   0.060   3.360  0.5530  1.9292  0.1293
  241OCT    H32 6250   3.783  -0.074   3.385  0.3416  0.2231 -1.2086
  241OCT     C4 6251   3.800   0.011   3.187 -0.3552 -0.6917 -0.2185
  241OCT    H41 6252   3.695   0.007   3.160 -2.1822 -1.7185  0.2902
  241OCT    H42 6253   3.850   0.103   3.138 -1.3430  0.3220  0.7679
  241OCT     C5 6254   3.872  -0.107   3.132 -0.3750  0.3190 -0.0161
  241OCT    H51 6255   3.978  -0.103   3.175 -0.1519  0.2275 -1.5046
  241OCT    H52 6256   3.832  -0.199   3.178 -0.2305 -0.1080 -1.1721
  241OCT     C6 6257   3.882  -0.124   2.979  0.2815 -0.3864 -0.4199
  241OCT    H61 6258   3.777  -0.118   2.936  0.7175 -0.4868  1.5477
  241OCT    H62 6259   3.950  -0.051   2.933 -0.8322 -2.4863 -0.7998
  241OCT     C7 6260   3.931  -0.262   2.931  0.2163  0.9331 -0.0373
  241OCT    H71 6261   3.858  -0.338   2.971 -1.4954 -0.6515 -0.4730
  241OCT    H72 6262   3.920  -0.266   2.819 -2.3184  1.3706 -0.5994
  241OCT     C8 6263   4.069  -0.299   2.965  0.5435 -0.5050 -0.1554
  241OCT    H81 6264   4.111  -0.387   2.923 -1.4688  2.8146 -0.0338
  241OCT    H82 6265   4.130  -0.222   2.913 -0.4104  1.1570 -0.8528
  241OCT    H83 6266   4.088  -0.291   3.072 -2.9461 -0.0998 -1.2970
  242OCT     C1 6267   1.960   3.723   0.263 -0.2188  0.4748  0.4290
  242OCT    H11 6268   1.905   3.633   0.290 -2.3902  0.8359  0.3872
  242OCT    H12 6269   2.069   3.691   0.238  2.4337 -0.9055  1.6459
  242OCT    H13 6270   1.960   3.777   0.360  1.9359  0.8875 -1.1629
  242OCT     C2 6271   1.893   3.812   0.152  0.0376  0.9306 -0.1542
  242OCT    H21 6272   1.797   3.841   0.193 -1.8165  0.4293  1.0035
  242OCT    H22 6273   1.952   3.899   0.125  0.7161 -1.7155 -0.5656
  242OCT     C3 6274   1.861   3.739   0.016 -0.8719 -0.2567 -0.1750
  242OCT    H31 6275   1.814   3.648   0.038  0.6362  2.5199  2.1082
  242OCT    H32 6276   1.805   3.807  -0.053  0.5999 -0.2096 -0.5698
  242OCT     C4 6277   1.990   3.706  -0.055 -0.9161 -0.4607 -0.0324
  242OCT    H41 6278   2.056   3.796  -0.054  1.4612  0.4537 -1.2568
  242OCT    H42 6279   2.040   3.618  -0.004 -1.5188  0.8363  0.0025
  242OCT     C5 6280   1.961   3.674  -0.205 -0.9484  0.2201 -0.2882
  242OCT    H51 6281   1.882   3.594  -0.219 -1.0330 -0.5640 -1.3415
  242OCT    H52 6282   1.923   3.768  -0.257 -2.6795 -0.0978 -0.8775
  242OCT     C6 6283   2.086   3.625  -0.276 -0.6923  0.0729  0.6466
  242OCT    H61 6284   2.150   3.560  -0.209  1.2444 -1.1944  0.4890
  242OCT    H62 6285   2.051   3.559  -0.366  2.3522 -0.7342 -2.0199
  242OCT     C7 6286   2.172   3.743  -0.324  0.5458 -0.4075 -0.1664
  242OCT    H71 6287   2.119   3.812  -0.390 -2.2877 -0.7022  1.6274
  242OCT    H72 6288   2.198   3.802  -0.234  0.1505  0.8383 -0.5634
  242OCT     C8 6289   2.293   3.698  -0.399 -1.4160 -0.6590 -0.1032
  242OCT    H81 6290   2.368   3.782  -0.407 -0.0654 -0.2670  1.4872
  242OCT    H82 6291   2.353   3.609  -0.356 -2.1539 -1.7051 -0.1729
  242OCT    H83 6292   2.272   3.685  -0.515 -0.2833  0.9726  0.2330
  243OCT     C1 6293   1.013   2.087   2.853 -0.8086 -0.0875  0.5273
  243OCT    H11 6294   0.926   2.115   2.793  2.4345 -2.3740 -2.3935
  243OCT    H12 6295   1.051   2.171   2.919  1.2275  2.4066 -3.5494
  243OCT    H13 6296   1.091   2.066   2.774 -0.3058 -1.3576 -1.3673
  243OCT     C2 6297   0.996   1.953   2.926  0.5361  0.3059  0.0585
  243OCT    H21 6298   0.918   1.946   3.006 -0.4674  1.2701 -0.2158
  243OCT    H22 6299   0.960   1.876   2.852  0.8846 -1.6865  0.1920
  243OCT     C3 6300   1.120   1.898   2.989  0.4459  0.5723  0.6444
  243OCT    H31 6301   1.085   1.808   3.040 -0.5958  2.2990  0.2882
  243OCT    H32 6302   1.197   1.859   2.921 -0.5816  0.7663 -0.5797
  243OCT     C4 6303   1.180   1.987   3.092  0.0111 -0.4587 -0.1285
  243OCT    H41 6304   1.243   2.072   3.043  2.1567  1.1004 -0.7069
  243OCT    H42 6305   1.093   2.041   3.141 -0.0913 -0.1428  1.6755
  243OCT     C5 6306   1.271   1.932   3.201  0.9911  0.3089  0.1921
  243OCT    H51 6307   1.207   1.860   3.247 -0.4751  3.0247 -0.6589
  243OCT    H52 6308   1.358   1.886   3.146 -2.0639 -2.4366 -2.2084
  243OCT     C6 6309   1.330   2.026   3.302 -0.0014  0.1836  0.0633
  243OCT    H61 6310   1.401   2.073   3.235 -1.3246 -0.2889 -0.0300
  243OCT    H62 6311   1.269   2.113   3.342 -0.1510 -1.1165  0.8726
  243OCT     C7 6312   1.409   1.966   3.429 -0.8513 -0.5386  0.3410
  243OCT    H71 6313   1.336   1.962   3.515 -2.0233  0.4606 -1.5383
  243OCT    H72 6314   1.430   1.857   3.403  0.7091 -1.8754  0.1801
  243OCT     C8 6315   1.543   2.043   3.459  0.0909  0.2234 -0.3892
  243OCT    H81 6316   1.615   2.044   3.380 -1.1145  0.8622 -1.4336
  243OCT    H82 6317   1.513   2.145   3.485  1.5948 -2.6076  0.5118
  243OCT    H83 6318   1.590   2.009   3.552 -0.6911 -0.4088  2.0060
  244OCT     C1 6319   1.329   4.200   1.374 -0.2227  0.0318  0.8114
  244OCT    H11 6320   1.242   4.263   1.380 -0.7547  0.3053  0.8528
  244OCT    H12 6321   1.418   4.259   1.385  2.3341 -0.8909  0.4401
  244OCT    H13 6322   1.324   4.157   1.270 -0.3918  0.3375 -0.4793
  244OCT     C2 6323   1.315   4.098   1.489  0.1052  0.2755  0.6078
  244OCT    H21 6324   1.335   4.150   1.591 -1.8689  2.6684  1.0232
  244OCT    H22 6325   1.205   4.067   1.488 -2.0906 -1.0135 -2.0498
  244OCT     C3 6326   1.403   3.972   1.465 -0.3827 -0.0071 -0.4623
  244OCT    H31 6327   1.509   4.000   1.450  1.1840  0.3360 -1.9788
  244OCT    H32 6328   1.408   3.917   1.564 -0.4664 -0.4390 -1.7397
  244OCT     C4 6329   1.353   3.892   1.341  0.3529  0.3651  0.4447
  244OCT    H41 6330   1.260   3.842   1.373  0.7357  1.4859 -0.5831
  244OCT    H42 6331   1.334   3.959   1.252  2.1537  0.5467 -0.5614
  244OCT     C5 6332   1.465   3.792   1.300  0.7130  0.2147  0.0841
  244OCT    H51 6333   1.560   3.848   1.285 -0.6118  0.0260  0.6478
  244OCT    H52 6334   1.467   3.734   1.393  0.0543  1.5058 -1.2132
  244OCT     C6 6335   1.428   3.697   1.183  0.7380 -0.5531  0.1108
  244OCT    H61 6336   1.376   3.756   1.095 -0.8037 -0.6189 -1.7549
  244OCT    H62 6337   1.520   3.666   1.132 -1.9130 -0.4356 -0.9614
  244OCT     C7 6338   1.328   3.586   1.209 -0.6563  0.1339 -0.0620
  244OCT    H71 6339   1.251   3.609   1.283  0.7202 -2.1543 -0.1058
  244OCT    H72 6340   1.289   3.567   1.107 -0.0770  0.7098  2.1560
  244OCT     C8 6341   1.389   3.450   1.254 -0.3242 -0.2690 -0.4287
  244OCT    H81 6342   1.303   3.377   1.253 -0.6630 -0.8255 -1.1494
  244OCT    H82 6343   1.462   3.428   1.179 -1.4250  0.5325  2.0515
  244OCT    H83 6344   1.437   3.459   1.351 -0.2050 -0.3262 -0.8381
  245OCT     C1 6345   4.128   0.356   4.139 -0.5904  0.3279 -0.4902
  245OCT    H11 6346   4.086   0.330   4.240 -1.6061  0.4782 -0.5432
  245OCT    H12 6347   4.040   0.370   4.071  0.6913  1.0738  0.0361
  245OCT    H13 6348   4.174   0.263   4.100  0.4020  0.5398 -1.3621
  245OCT     C2 6349   4.228   0.470   4.150  0.6248 -0.1316 -0.9850
  245OCT    H21 6350   4.272   0.490   4.053 -2.1404 -1.3810  2.6748
  245OCT    H22 6351   4.176   0.557   4.200 -1.4191 -1.6732  1.2299
  245OCT     C3 6352   4.336   0.421   4.248  0.7950  0.5175  0.1877
  245OCT    H31 6353   4.394   0.517   4.266 -2.0076  0.9837  1.2958
  245OCT    H32 6354   4.294   0.387   4.342 -1.2499  1.3193 -0.5225
  245OCT     C4 6355   4.418   0.314   4.186  0.8126 -0.3487 -1.1418
  245OCT    H41 6356   4.489   0.288   4.272  0.1815  0.7706 -1.0244
  245OCT    H42 6357   4.359   0.222   4.164 -0.7826  2.5497 -2.7734
  245OCT     C5 6358   4.513   0.358   4.073 -0.5494  0.9700 -0.0803
  245OCT    H51 6359   4.461   0.406   3.989  0.8608  0.7537  1.8371
  245OCT    H52 6360   4.592   0.426   4.123  3.4431 -1.3433  3.1121
  245OCT     C6 6361   4.597   0.235   4.016 -0.5521  0.8818  0.6245
  245OCT    H61 6362   4.655   0.179   4.099  2.2848  1.6225  0.8895
  245OCT    H62 6363   4.528   0.165   3.957 -0.7127  1.2882 -2.6271
  245OCT     C7 6364   4.704   0.283   3.913 -0.5554  0.0426 -0.1266
  245OCT    H71 6365   4.668   0.354   3.836 -0.1361 -1.5972 -2.9679
  245OCT    H72 6366   4.787   0.333   3.975 -0.6767  0.6516 -1.5734
  245OCT     C8 6367   4.772   0.162   3.845 -0.8375  0.1348  0.0413
  245OCT    H81 6368   4.696   0.102   3.784 -2.9684  1.9527  1.9979
  245OCT    H82 6369   4.862   0.201   3.782  0.7465  1.0872 -0.4740
  245OCT    H83 6370   4.814   0.094   3.923  0.1168  1.2046  0.9009
  246OCT     C1 6371   0.840   1.122   3.706  0.4661  0.2290 -0.9298
  246OCT    H11 6372   0.888   1.098   3.810  2.7467 -1.8672  2.7500
  246OCT    H12 6373   0.822   1.027   3.643  0.7161 -1.6132  1.0502
  246OCT    H13 6374   0.908   1.188   3.643  1.5672 -1.0445  0.0070
  246OCT     C2 6375   0.703   1.191   3.735  0.4716  0.4819 -0.3255
  246OCT    H21 6376   0.639   1.119   3.791  1.4676 -1.4220 -0.9873
  246OCT    H22 6377   0.718   1.280   3.795  0.7484 -0.6269 -2.1202
  246OCT     C3 6378   0.621   1.236   3.614 -0.2627 -0.0763 -0.3811
  246OCT    H31 6379   0.526   1.288   3.645 -2.3140 -0.7769  0.1653
  246OCT    H32 6380   0.678   1.313   3.555 -1.2549  0.2937  1.8471
  246OCT     C4 6381   0.579   1.120   3.523 -0.2707  0.0526  0.0029
  246OCT    H41 6382   0.503   1.172   3.459  0.3994 -0.8589 -0.3689
  246OCT    H42 6383   0.651   1.081   3.452 -2.5031 -1.7173 -1.1218
  246OCT     C5 6384   0.500   1.010   3.589  0.1868 -0.3190  0.0572
  246OCT    H51 6385   0.573   0.937   3.635  3.4723  2.3879  1.7941
  246OCT    H52 6386   0.446   1.048   3.672  0.0073  0.0040  1.1682
  246OCT     C6 6387   0.417   0.925   3.491 -0.0399  0.1715  0.6885
  246OCT    H61 6388   0.330   0.973   3.444  0.2009 -0.8492  0.6256
  246OCT    H62 6389   0.489   0.897   3.407 -2.7283  1.7895 -3.1563
  246OCT     C7 6390   0.353   0.805   3.555  0.1102 -0.2975 -0.9814
  246OCT    H71 6391   0.346   0.729   3.473 -0.5022  0.2017  1.8004
  246OCT    H72 6392   0.421   0.761   3.632  1.2328  0.8052 -2.0127
  246OCT     C8 6393   0.214   0.836   3.616  0.2960  0.0185 -0.7267
  246OCT    H81 6394   0.142   0.888   3.555  0.0146  1.0554  3.0431
  246OCT    H82 6395   0.175   0.733   3.654 -0.6793 -2.2893 -0.2953
  246OCT    H83 6396   0.235   0.901   3.707  0.0955  0.7140  1.8759
  247OCT     C1 6397   2.420   3.414   3.727  0.3453 -0.9982 -0.1429
  247OCT    H11 6398   2.416   3.527   3.754 -0.3795  0.2519 -1.4342
  247OCT    H12 6399   2.521   3.368   3.740 -3.1189  0.7312  1.5587
  247OCT    H13 6400   2.398   3.405   3.617  1.2321 -1.3731  0.2343
  247OCT     C2 6401   2.317   3.341   3.826 -0.3617  0.0863  0.7979
  247OCT    H21 6402   2.349   3.355   3.931  1.0487 -0.0467  2.0032
  247OCT    H22 6403   2.219   3.386   3.799 -0.5625  1.3493 -1.3488
  247OCT     C3 6404   2.320   3.190   3.816 -0.5382  0.4556  0.7042
  247OCT    H31 6405   2.300   3.165   3.710 -0.6543  3.5721  0.3714
  247OCT    H32 6406   2.421   3.144   3.836 -0.8446 -0.0173  1.5496
  247OCT     C4 6407   2.215   3.121   3.902 -0.5440  0.8207  0.2718
  247OCT    H41 6408   2.221   3.135   4.013  0.0446 -1.8847  1.3060
  247OCT    H42 6409   2.117   3.154   3.869  0.7608  0.0933 -1.3234
  247OCT     C5 6410   2.231   2.967   3.900  0.1965  0.2010  0.2128
  247OCT    H51 6411   2.191   2.940   3.797  0.1930  0.5979 -0.0294
  247OCT    H52 6412   2.332   2.929   3.900 -2.2727 -1.0015 -0.5159
  247OCT     C6 6413   2.140   2.898   4.005  0.6891  0.2101 -0.0871
  247OCT    H61 6414   2.047   2.954   3.990  0.2374  2.1625  2.2136
  247OCT    H62 6415   2.132   2.796   3.965  1.0444  1.3774 -2.0387
  247OCT     C7 6416   2.193   2.888   4.147 -0.3301 -0.1867 -0.2050
  247OCT    H71 6417   2.282   2.824   4.142  2.3283  0.0235 -0.9575
  247OCT    H72 6418   2.219   2.987   4.183 -1.5955 -1.7102 -1.3984
  247OCT     C8 6419   2.093   2.821   4.232 -0.4901  0.1770 -0.3720
  247OCT    H81 6420   2.099   2.706   4.218 -1.3229  0.1583  0.6243
  247OCT    H82 6421   2.106   2.851   4.338 -1.9084 -1.5321  1.4475
  247OCT    H83 6422   1.984   2.846   4.203  2.2505  0.4461 -2.3808
  248OCT     C1 6423   4.399   2.267   1.545 -0.6204 -0.2682  0.4631
  248OCT    H11 6424   4.429   2.263   1.441 -0.5490 -1.3828  0.5998
  248OCT    H12 6425   4.420   2.365   1.592  1.0604 -2.3088 -0.3337
  248OCT    H13 6426   4.454   2.191   1.593 -0.4371 -0.0641 -0.8003
  248OCT     C2 6427   4.253   2.224   1.556  0.3244 -0.1092 -0.0377
  248OCT    H21 6428   4.180   2.275   1.490  2.9744 -0.1926  2.6584
  248OCT    H22 6429   4.242   2.121   1.525  2.6609  0.9442 -1.2567
  248OCT     C3 6430   4.192   2.243   1.695  0.2522 -0.0485 -0.0864
  248OCT    H31 6431   4.212   2.345   1.723 -1.7444 -0.9944 -1.2933
  248OCT    H32 6432   4.084   2.242   1.682 -0.6595 -1.9268 -0.5782
  248OCT     C4 6433   4.231   2.148   1.808  0.6437  0.3386 -0.0958
  248OCT    H41 6434   4.217   2.039   1.790  1.5993  1.0451  1.1545
  248OCT    H42 6435   4.341   2.157   1.832  1.1209  0.1559 -0.5520
  248OCT     C5 6436   4.161   2.192   1.935  0.5992  0.2387 -0.6542
  248OCT    H51 6437   4.153   2.307   1.946  1.7713  0.5444 -0.9426
  248OCT    H52 6438   4.054   2.155   1.932  1.5961  0.5297 -2.4097
  248OCT     C6 6439   4.230   2.153   2.062 -0.5630  0.4910 -0.7388
  248OCT    H61 6440   4.331   2.213   2.077  2.7128  2.4256 -1.7138
  248OCT    H62 6441   4.168   2.162   2.155 -0.0333 -0.4230  0.1067
  248OCT     C7 6442   4.286   2.007   2.067 -0.0851 -0.2148  0.3915
  248OCT    H71 6443   4.201   1.941   2.065  0.8743  0.9743  0.4193
  248OCT    H72 6444   4.346   1.981   1.976  0.6629 -0.0548 -1.7606
  248OCT     C8 6445   4.368   1.953   2.190  0.1373 -0.1699  0.8168
  248OCT    H81 6446   4.392   1.846   2.171 -0.8522  1.2464  1.2057
  248OCT    H82 6447   4.461   2.012   2.192  2.5653  1.2485  0.4420
  248OCT    H83 6448   4.309   1.973   2.279 -1.1210 -1.3183  0.7933
  249OCT     C1 6449   1.706   2.951   3.824 -0.9782 -0.0412  0.4128
  249OCT    H11 6450   1.615   3.018   3.824 -1.3090 -0.5639  0.2102
  249OCT    H12 6451   1.755   2.979   3.924 -0.7923  2.9895 -0.3311
  249OCT    H13 6452   1.776   2.986   3.751 -3.2201  0.9509  1.8915
  249OCT     C2 6453   1.686   2.798   3.818 -0.2714 -0.5587 -0.1342
  249OCT    H21 6454   1.770   2.743   3.855 -1.6051  1.4654 -0.9868
  249OCT    H22 6455   1.603   2.775   3.890 -1.0608  1.8523  0.9060
  249OCT     C3 6456   1.641   2.735   3.687  0.0251  0.0234  0.3253
  249OCT    H31 6457   1.561   2.796   3.635  0.4051  0.5996  1.1414
  249OCT    H32 6458   1.723   2.734   3.619 -1.2622  1.2191  3.9546
  249OCT     C4 6459   1.599   2.595   3.711  1.0551 -0.3678  0.1005
  249OCT    H41 6460   1.677   2.544   3.765  0.5056 -0.8739 -1.8342
  249OCT    H42 6461   1.506   2.589   3.770 -0.1476  1.0189  1.9695
  249OCT     C5 6462   1.581   2.511   3.577 -0.2275  0.2720  0.2260
  249OCT    H51 6463   1.680   2.494   3.526 -0.9654 -0.2928  0.1442
  249OCT    H52 6464   1.548   2.411   3.603  0.4229 -1.4850 -2.9292
  249OCT     C6 6465   1.470   2.554   3.471 -0.0797 -0.5363  0.4372
  249OCT    H61 6466   1.378   2.541   3.530  1.9816 -0.6107  1.9132
  249OCT    H62 6467   1.479   2.665   3.442 -0.1586  2.8370  1.5649
  249OCT     C7 6468   1.450   2.465   3.347  0.5315 -0.1976  0.7474
  249OCT    H71 6469   1.514   2.495   3.264 -1.0165 -1.3516 -0.1018
  249OCT    H72 6470   1.472   2.355   3.367  0.3765 -3.1979  1.7426
  249OCT     C8 6471   1.309   2.462   3.291 -0.2021 -0.0983  0.2389
  249OCT    H81 6472   1.319   2.401   3.202  1.2944  1.7166  0.5771
  249OCT    H82 6473   1.234   2.416   3.358 -2.0359 -0.1224 -3.5819
  249OCT    H83 6474   1.271   2.564   3.266 -0.8557  0.9112  1.1178
  250OCT     C1 6475   4.323   0.535   2.525 -0.6088  0.4094  0.0388
  250OCT    H11 6476   4.223   0.493   2.516  1.5319  0.1508 -0.6114
  250OCT    H12 6477   4.327   0.592   2.619 -0.5725  1.2397 -0.0295
  250OCT    H13 6478   4.353   0.597   2.435  0.0239 -0.3845 -0.0433
  250OCT     C2 6479   4.423   0.423   2.535  0.6222  0.3685 -0.8410
  250OCT    H21 6480   4.522   0.468   2.560 -0.1463 -0.5180  2.6590
  250OCT    H22 6481   4.395   0.351   2.617 -0.9352 -2.8032 -1.6593
  250OCT     C3 6482   4.455   0.352   2.399 -0.5302  0.0233  0.5849
  250OCT    H31 6483   4.367   0.301   2.364  1.1477  0.3948 -0.9115
  250OCT    H32 6484   4.473   0.429   2.322  1.6954  0.6931  2.3646
  250OCT     C4 6485   4.575   0.261   2.425  0.2662  0.3558 -0.0613
  250OCT    H41 6486   4.660   0.321   2.451  1.1975 -0.1986  1.2450
  250OCT    H42 6487   4.560   0.201   2.513 -0.2602  1.3072  0.5106
  250OCT     C5 6488   4.621   0.171   2.313 -0.6870 -0.1496  0.2260
  250OCT    H51 6489   4.538   0.110   2.279 -1.3093  0.4894 -0.9664
  250OCT    H52 6490   4.645   0.242   2.229 -0.4062 -0.3517  1.2322
  250OCT     C6 6491   4.755   0.111   2.336  0.0174 -0.1132  0.0476
  250OCT    H61 6492   4.822   0.191   2.358 -2.4971 -1.8927  0.0115
  250OCT    H62 6493   4.759   0.036   2.419  1.3203 -0.7275  0.0198
  250OCT     C7 6494   4.820   0.050   2.216  0.0718 -0.5715  0.0226
  250OCT    H71 6495   4.759  -0.040   2.188 -0.9933 -2.0743  1.3359
  250OCT    H72 6496   4.827   0.116   2.129  0.6418  0.6415 -0.4782
  250OCT     C8 6497   4.968   0.012   2.245  0.4058  0.1201  0.0200
  250OCT    H81 6498   5.010  -0.041   2.155  0.7497  0.1878  0.9408
  250OCT    H82 6499   5.031   0.102   2.266  1.8820 -0.4978 -2.0326
  250OCT    H83 6500   4.970  -0.055   2.335  3.9499  0.0559  1.7748
  251OCT     C1 6501   2.563   3.605   1.704  0.0316  0.1465 -0.3792
  251OCT    H11 6502   2.572   3.650   1.806 -2.0659  2.2868  0.0475
  251OCT    H12 6503   2.590   3.682   1.634 -0.6721 -0.6465 -1.9328
  251OCT    H13 6504   2.463   3.574   1.693  0.8577  2.1062  0.2655
  251OCT     C2 6505   2.657   3.479   1.694 -0.2887  0.0644  0.2560
  251OCT    H21 6506   2.667   3.443   1.588 -1.7954 -1.3776 -1.9439
  251OCT    H22 6507   2.766   3.493   1.723 -0.4309 -0.8158 -1.8164
  251OCT     C3 6508   2.609   3.353   1.772  0.6998 -0.3625  0.0012
  251OCT    H31 6509   2.608   3.367   1.882  1.4543  0.6545 -0.6723
  251OCT    H32 6510   2.510   3.316   1.732  2.1646 -0.3879 -3.5970
  251OCT     C4 6511   2.699   3.233   1.758 -0.0968 -0.3256  0.3352
  251OCT    H41 6512   2.710   3.208   1.650  0.0664 -1.2132 -0.5744
  251OCT    H42 6513   2.804   3.260   1.791  0.1469  1.3458 -0.5416
  251OCT     C5 6514   2.644   3.115   1.828  0.0798  0.4841  0.2126
  251OCT    H51 6515   2.642   3.131   1.942 -2.2056 -0.5587 -1.4198
  251OCT    H52 6516   2.536   3.103   1.797  1.8931 -0.3703 -0.0592
  251OCT     C6 6517   2.731   2.988   1.806 -0.0092  0.1884  0.2501
  251OCT    H61 6518   2.753   2.992   1.697  1.5761 -1.0784  0.7974
  251OCT    H62 6519   2.826   3.003   1.869  0.6068 -1.8367  0.5106
  251OCT     C7 6520   2.657   2.861   1.846  0.4950 -0.6178  0.4505
  251OCT    H71 6521   2.663   2.860   1.955  0.2379 -0.1175 -2.6594
  251OCT    H72 6522   2.552   2.854   1.798  0.0315 -1.1903 -0.8944
  251OCT     C8 6523   2.743   2.745   1.800 -0.3194 -0.0789  0.0473
  251OCT    H81 6524   2.721   2.729   1.684  2.7231  0.0432 -1.3599
  251OCT    H82 6525   2.847   2.775   1.811  2.0480  2.1758 -0.6592
  251OCT    H83 6526   2.731   2.646   1.849 -0.7938 -0.7791 -1.6032
  252OCT     C1 6527   4.159   4.215   1.795 -0.3037 -0.3997 -0.3337
  252OCT    H11 6528   4.097   4.276   1.864 -1.0760  0.8100  2.8526
  252OCT    H12 6529   4.193   4.126   1.840 -0.6369  3.0322  1.7702
  252OCT    H13 6530   4.251   4.272   1.787  0.0218 -1.6796 -1.0185
  252OCT     C2 6531   4.099   4.212   1.651 -0.3086  0.5150  0.0147
  252OCT    H21 6532   4.022   4.128   1.644  2.9592 -1.7450  0.9939
  252OCT    H22 6533   4.040   4.307   1.642 -0.7165  1.1139  1.3619
  252OCT     C3 6534   4.182   4.197   1.521 -0.2178  0.6255  0.2372
  252OCT    H31 6535   4.233   4.096   1.530 -1.1949 -2.7428 -1.6744
  252OCT    H32 6536   4.117   4.176   1.440  1.3020 -0.4586  4.9079
  252OCT     C4 6537   4.269   4.314   1.486 -0.4251  0.0054  0.0453
  252OCT    H41 6538   4.212   4.400   1.512  1.2006 -4.9719 -0.2192
  252OCT    H42 6539   4.363   4.316   1.553  0.8960  0.0554  2.7662
  252OCT     C5 6540   4.311   4.326   1.339 -1.2816  1.0862 -0.3813
  252OCT    H51 6541   4.375   4.243   1.311 -1.7096 -0.9169  1.9628
  252OCT    H52 6542   4.225   4.310   1.274 -0.0525  2.7708 -2.0702
  252OCT     C6 6543   4.376   4.460   1.297  0.1813 -0.2646  0.0930
  252OCT    H61 6544   4.483   4.457   1.320  1.0956  0.4008  0.7526
  252OCT    H62 6545   4.359   4.477   1.183  1.5801 -2.0078 -1.9376
  252OCT     C7 6546   4.301   4.587   1.361  0.5060  0.3356 -0.1926
  252OCT    H71 6547   4.193   4.583   1.317 -2.2140 -1.1134 -1.2277
  252OCT    H72 6548   4.290   4.581   1.474 -1.0226  0.5140 -0.0164
  252OCT     C8 6549   4.370   4.724   1.351  0.3064  0.2697  0.6012
  252OCT    H81 6550   4.450   4.731   1.417 -2.4946 -0.8565 -4.6098
  252OCT    H82 6551   4.391   4.749   1.250 -0.8977  1.0516  2.3019
  252OCT    H83 6552   4.313   4.816   1.387  0.1241  3.7940  0.4953
  253OCT     C1 6553   1.321   3.859   3.776  0.1530 -0.1370  0.8214
  253OCT    H11 6554   1.216   3.899   3.790 -2.0037 -1.4572 -1.3789
  253OCT    H12 6555   1.338   3.776   3.851 -2.7824 -1.1319 -2.7076
  253OCT    H13 6556   1.400   3.933   3.803 -0.5581 -1.3109 -1.9562
  253OCT     C2 6557   1.344   3.805   3.643  0.9633 -0.3830  0.0624
  253OCT    H21 6558   1.323   3.888   3.567 -4.1073  1.2563 -2.0187
  253OCT    H22 6559   1.446   3.768   3.625  0.0901  0.3436 -0.1100
  253OCT     C3 6560   1.248   3.688   3.610 -0.4553  0.4500  0.4559
  253OCT    H31 6561   1.275   3.588   3.640  0.6494  1.6386  0.5182
  253OCT    H32 6562   1.149   3.705   3.658  0.8393 -0.6907  0.2143
  253OCT     C4 6563   1.226   3.670   3.462  0.0198 -0.2398  0.1202
  253OCT    H41 6564   1.150   3.583   3.451 -0.7817  0.7012 -1.0647
  253OCT    H42 6565   1.165   3.756   3.420 -2.7327  1.5251 -0.1550
  253OCT     C5 6566   1.348   3.635   3.378 -0.1920  0.6340  0.8767
  253OCT    H51 6567   1.328   3.613   3.266  0.3900 -3.2726 -0.9948
  253OCT    H52 6568   1.416   3.716   3.398 -2.6631 -2.2819 -0.7700
  253OCT     C6 6569   1.410   3.499   3.417 -0.2667  0.6921 -0.1326
  253OCT    H61 6570   1.433   3.497   3.525 -0.9618  0.9029 -1.1917
  253OCT    H62 6571   1.330   3.426   3.387 -0.9057  0.6938 -0.8797
  253OCT     C7 6572   1.537   3.462   3.326  0.7559 -0.5494 -0.7898
  253OCT    H71 6573   1.504   3.472   3.224 -0.2817  0.7361  0.6264
  253OCT    H72 6574   1.608   3.542   3.353  0.0172  0.0252  0.8145
  253OCT     C8 6575   1.583   3.323   3.356 -0.2574  0.1584 -0.4027
  253OCT    H81 6576   1.674   3.293   3.294  1.5746  0.1343  1.1297
  253OCT    H82 6577   1.630   3.325   3.462  0.6295  1.2634 -0.9516
  253OCT    H83 6578   1.510   3.243   3.350  1.7550 -1.9153 -0.7845
  254OCT     C1 6579   3.300   3.484   0.309 -0.0442 -0.5451 -1.2254
  254OCT    H11 6580   3.211   3.550   0.314  0.4869 -1.4018  1.3880
  254OCT    H12 6581   3.267   3.389   0.356 -0.3108 -0.9527  1.9487
  254OCT    H13 6582   3.364   3.535   0.384 -1.0167 -1.0891  0.5523
  254OCT     C2 6583   3.360   3.466   0.169 -0.5567 -0.1429 -0.2963
  254OCT    H21 6584   3.285   3.419   0.105  1.0551  1.7279 -0.6042
  254OCT    H22 6585   3.370   3.553   0.102  1.2895 -2.7343 -2.2237
  254OCT     C3 6586   3.482   3.370   0.162 -0.5886 -0.1575  0.2532
  254OCT    H31 6587   3.574   3.432   0.192  2.8772  1.2516 -0.5619
  254OCT    H32 6588   3.468   3.292   0.239 -0.1084  1.6856  1.1002
  254OCT     C4 6589   3.501   3.313   0.019 -0.1625  0.5885  0.7799
  254OCT    H41 6590   3.583   3.242   0.009 -0.7140  1.6772  1.5540
  254OCT    H42 6591   3.409   3.255   0.000  4.1074 -2.5070 -1.4582
  254OCT     C5 6592   3.504   3.418  -0.101 -0.5500 -0.3554  0.3796
  254OCT    H51 6593   3.492   3.376  -0.202  1.9241 -0.5457  0.2436
  254OCT    H52 6594   3.411   3.490  -0.079 -3.3693  3.9230 -0.2585
  254OCT     C6 6595   3.628   3.505  -0.101 -0.1067  0.0544 -0.3349
  254OCT    H61 6596   3.608   3.598  -0.154  1.5322 -0.3869 -2.0127
  254OCT    H62 6597   3.669   3.517   0.003  1.4027 -0.1647  0.8480
  254OCT     C7 6598   3.740   3.434  -0.180  0.2775 -0.0662  0.6659
  254OCT    H71 6599   3.772   3.342  -0.134 -0.3732 -0.2722  0.3338
  254OCT    H72 6600   3.708   3.409  -0.284 -3.9764  0.0018  2.0866
  254OCT     C8 6601   3.866   3.528  -0.194  0.0447 -0.4571 -0.3074
  254OCT    H81 6602   3.909   3.564  -0.100  1.2036 -0.9720 -4.4102
  254OCT    H82 6603   3.952   3.484  -0.245 -0.6004 -1.1473  0.4460
  254OCT    H83 6604   3.833   3.627  -0.250  0.8526  1.8715 -0.9296
  255OCT     C1 6605   1.347   0.218   4.324  0.0570  0.2156  0.1381
  255OCT    H11 6606   1.352   0.242   4.212  2.7362  3.3064 -1.4259
  255OCT    H12 6607   1.443   0.263   4.365  2.2931 -0.6038  2.1676
  255OCT    H13 6608   1.349   0.110   4.337  1.6564 -1.2146  0.5408
  255OCT     C2 6609   1.237   0.291   4.394  0.5610  0.2887  0.4967
  255OCT    H21 6610   1.152   0.255   4.332  2.3405 -0.8037 -1.0929
  255OCT    H22 6611   1.204   0.255   4.494 -1.1122 -2.8265 -2.0854
  255OCT     C3 6612   1.233   0.445   4.390  0.0390  0.0273  0.5532
  255OCT    H31 6613   1.183   0.484   4.481 -0.6904 -0.8015  0.5406
  255OCT    H32 6614   1.342   0.477   4.374  3.3068  0.6136 -0.1561
  255OCT     C4 6615   1.148   0.499   4.265 -0.6906  0.2190 -0.2833
  255OCT    H41 6616   1.193   0.460   4.177 -0.6606 -1.2555  0.1356
  255OCT    H42 6617   1.036   0.466   4.274  0.3075 -1.1207 -1.0856
  255OCT     C5 6618   1.150   0.652   4.268  0.5135  0.2592 -0.5764
  255OCT    H51 6619   1.083   0.702   4.340 -0.8009  1.6342 -0.3670
  255OCT    H52 6620   1.255   0.694   4.289  1.3900  0.8853  2.6242
  255OCT     C6 6621   1.122   0.702   4.128 -0.1190 -0.5582  0.1501
  255OCT    H61 6622   1.181   0.656   4.053  1.0231  1.6678  0.5306
  255OCT    H62 6623   1.017   0.683   4.101 -0.1648  0.0597  0.6314
  255OCT     C7 6624   1.147   0.856   4.111  0.0038 -0.6921  0.4355
  255OCT    H71 6625   1.087   0.902   4.192 -0.7767 -1.6659  0.4395
  255OCT    H72 6626   1.257   0.882   4.149 -0.1772 -0.6193  1.5474
  255OCT     C8 6627   1.116   0.895   3.969  0.0654  0.1164  0.2764
  255OCT    H81 6628   1.096   1.002   3.959 -0.9444 -1.6740 -0.3167
  255OCT    H82 6629   1.208   0.863   3.905  2.7707  1.2316  0.3843
  255OCT    H83 6630   1.030   0.833   3.933  1.7067  0.1116 -2.0932
  256OCT     C1 6631   3.401   1.134   0.992 -0.2509 -0.0259  0.6752
  256OCT    H11 6632   3.477   1.100   0.918 -3.3341  0.2562 -1.3705
  256OCT    H12 6633   3.446   1.202   1.071  0.0703  0.3542 -0.0639
  256OCT    H13 6634   3.350   1.040   1.021  1.0020 -1.3408 -0.4741
  256OCT     C2 6635   3.294   1.207   0.913  0.1698 -1.2610 -0.1981
  256OCT    H21 6636   3.345   1.295   0.881 -0.6997 -1.8897  1.4522
  256OCT    H22 6637   3.260   1.160   0.822  2.9572  1.9850 -1.3145
  256OCT     C3 6638   3.178   1.250   1.001 -0.1725  0.2968  0.6065
  256OCT    H31 6639   3.107   1.168   1.022  0.1593  1.5217 -0.1292
  256OCT    H32 6640   3.226   1.286   1.095  0.4964 -0.9086 -0.4144
  256OCT     C4 6641   3.098   1.366   0.936 -0.4073 -0.1944  0.0647
  256OCT    H41 6642   3.168   1.453   0.948 -0.7186  1.7781  1.7400
  256OCT    H42 6643   3.077   1.340   0.832 -2.2825 -2.3058  0.2585
  256OCT     C5 6644   2.968   1.386   1.019 -0.0115 -0.5946 -0.0498
  256OCT    H51 6645   2.904   1.296   1.019 -0.7404  1.5134 -0.1652
  256OCT    H52 6646   2.998   1.409   1.122  2.2907  0.6901 -1.8398
  256OCT     C6 6647   2.883   1.509   0.967 -0.3701  0.2708 -0.2418
  256OCT    H61 6648   2.827   1.553   1.056  0.4293  2.1324  1.9775
  256OCT    H62 6649   2.955   1.593   0.945  1.8672  0.4467 -1.4441
  256OCT     C7 6650   2.794   1.482   0.847 -1.2805 -0.0852 -0.2790
  256OCT    H71 6651   2.743   1.586   0.843  1.8733  1.4530 -0.0431
  256OCT    H72 6652   2.844   1.461   0.753 -0.7407  1.4174 -0.4288
  256OCT     C8 6653   2.682   1.375   0.862 -0.3014  0.0473  0.3230
  256OCT    H81 6654   2.732   1.278   0.843 -1.4155 -1.2220  1.9789
  256OCT    H82 6655   2.633   1.364   0.953  3.7983  0.1895 -3.5054
  256OCT    H83 6656   2.604   1.388   0.782  3.0646 -3.1329  1.2739
  257OCT     C1 6657   2.917   4.338   2.737  0.0347  0.4183  0.6205
  257OCT    H11 6658   2.946   4.438   2.709  0.3482 -1.9738  1.4848
  257OCT    H12 6659   2.945   4.262   2.662 -0.1200 -0.8099 -1.7896
  257OCT    H13 6660   2.807   4.341   2.752  1.8310 -0.5162 -0.3248
  257OCT     C2 6661   2.986   4.308   2.871 -0.1223  0.4753  0.5386
  257OCT    H21 6662   2.975   4.388   2.948 -0.7083  0.0442 -1.0626
  257OCT    H22 6663   2.923   4.224   2.918 -0.2229  0.1182 -1.2281
  257OCT     C3 6664   3.127   4.257   2.859 -0.6537  0.8533 -0.6496
  257OCT    H31 6665   3.136   4.166   2.799 -0.8548  1.9141  0.4104
  257OCT    H32 6666   3.191   4.332   2.814 -1.1690 -0.0881  0.9263
  257OCT     C4 6667   3.188   4.230   2.997  0.0712  0.0555  1.0163
  257OCT    H41 6668   3.198   4.320   3.061  2.0640  2.4382  1.5458
  257OCT    H42 6669   3.117   4.164   3.057  0.3136 -0.7732  1.0239
  257OCT     C5 6670   3.324   4.158   2.996  0.2831  1.0225 -0.0317
  257OCT    H51 6671   3.406   4.212   2.949  1.3593  0.3598  1.9475
  257OCT    H52 6672   3.350   4.129   3.102  0.0936 -3.3283  1.1725
  257OCT     C6 6673   3.321   4.012   2.929  0.1820 -0.0441 -1.1157
  257OCT    H61 6674   3.298   4.035   2.827 -1.1653 -1.9146  2.3668
  257OCT    H62 6675   3.430   3.979   2.944  0.1051  0.3844  0.4352
  257OCT     C7 6676   3.219   3.912   2.988 -0.1650  0.0337  0.1156
  257OCT    H71 6677   3.237   3.895   3.091  0.1887  2.0510  1.4220
  257OCT    H72 6678   3.121   3.966   2.979  0.9580  1.3654 -2.4323
  257OCT     C8 6679   3.214   3.784   2.901 -0.0448  0.2891 -0.3137
  257OCT    H81 6680   3.204   3.809   2.794  1.6984 -2.9882  0.1610
  257OCT    H82 6681   3.308   3.733   2.924  1.7321  0.3843  0.0210
  257OCT    H83 6682   3.126   3.729   2.932  1.1740  1.8756  0.4780
  258OCT     C1 6683   0.809   4.079   4.264 -0.1969 -0.3113  0.3277
  258OCT    H11 6684   0.872   4.060   4.180 -1.3555 -2.4879  1.4133
  258OCT    H12 6685   0.884   4.118   4.337 -0.1264  0.5727 -1.0476
  258OCT    H13 6686   0.777   3.980   4.297  0.5838  0.3959  0.7708
  258OCT     C2 6687   0.682   4.171   4.245 -0.2510  0.8917  0.4632
  258OCT    H21 6688   0.642   4.207   4.343  1.4252  0.2688  2.3392
  258OCT    H22 6689   0.719   4.265   4.205 -0.3278  1.7592  2.9147
  258OCT     C3 6690   0.577   4.105   4.163 -0.6744 -0.0505  0.4543
  258OCT    H31 6691   0.617   4.090   4.067 -2.5417  3.5721 -0.3178
  258OCT    H32 6692   0.543   4.013   4.221 -1.9103  2.9346 -1.3745
  258OCT     C4 6693   0.445   4.184   4.157  0.3323  0.0013 -1.0823
  258OCT    H41 6694   0.397   4.200   4.259 -0.8571 -0.0794  1.6133
  258OCT    H42 6695   0.474   4.286   4.126  0.6919  2.5786  2.3250
  258OCT     C5 6696   0.336   4.130   4.058  0.8347  0.2052  0.3348
  258OCT    H51 6697   0.396   4.090   3.972  0.4130  2.0093 -0.6337
  258OCT    H52 6698   0.277   4.048   4.105  0.3474 -0.7660 -3.3175
  258OCT     C6 6699   0.234   4.235   4.011 -0.0393  0.7789  0.6295
  258OCT    H61 6700   0.160   4.237   4.089  3.2278 -0.6860 -1.4945
  258OCT    H62 6701   0.282   4.333   4.005 -0.3281 -3.0481 -3.2917
  258OCT     C7 6702   0.172   4.218   3.871  0.4119 -0.1084  0.6187
  258OCT    H71 6703   0.092   4.297   3.865 -3.3923 -5.1563  1.2412
  258OCT    H72 6704   0.242   4.242   3.790  1.9515  0.6067  1.5585
  258OCT     C8 6705   0.109   4.078   3.847  0.2131  0.5242 -0.2747
  258OCT    H81 6706   0.038   4.057   3.929  3.0183  0.4856 -0.7524
  258OCT    H82 6707   0.067   4.073   3.743  2.3197  0.8235  0.4309
  258OCT    H83 6708   0.181   4.000   3.859 -1.0249  0.6899  1.8775
  259OCT     C1 6709   0.320   2.057   1.657  1.1077 -0.6262 -0.5188
  259OCT    H11 6710   0.374   2.161   1.650  0.5499  0.7114 -2.3634
  259OCT    H12 6711   0.225   2.059   1.597 -0.6236  2.4983 -1.1199
  259OCT    H13 6712   0.283   2.048   1.764 -1.3856  3.3003  2.4941
  259OCT     C2 6713   0.412   1.940   1.612 -0.4027 -0.5604  0.7846
  259OCT    H21 6714   0.354   1.851   1.605  1.7526  1.5181  3.1214
  259OCT    H22 6715   0.448   1.956   1.506  0.6225 -1.3106 -0.4283
  259OCT     C3 6716   0.538   1.919   1.704  0.0899  0.8307 -0.1818
  259OCT    H31 6717   0.594   2.012   1.706  0.4084 -0.3397  1.0947
  259OCT    H32 6718   0.494   1.891   1.802  0.6486  0.2269 -2.4774
  259OCT     C4 6719   0.632   1.802   1.668  0.5992  0.1221  0.1869
  259OCT    H41 6720   0.573   1.711   1.679 -0.5237  2.7020  1.5260
  259OCT    H42 6721   0.645   1.805   1.558  0.5192  1.0670  0.7046
  259OCT     C5 6722   0.764   1.800   1.746  0.4300 -0.4338 -0.7464
  259OCT    H51 6723   0.832   1.877   1.709  1.2063  2.7294  1.2036
  259OCT    H52 6724   0.732   1.822   1.853 -0.0140  1.2126  3.4796
  259OCT     C6 6725   0.842   1.667   1.754 -0.1119 -0.2874  0.0159
  259OCT    H61 6726   0.771   1.581   1.776  0.6821 -0.0771  0.4065
  259OCT    H62 6727   0.890   1.648   1.654 -0.0130  0.2287 -0.6020
  259OCT     C7 6728   0.958   1.667   1.856 -0.5818 -0.1104  0.2409
  259OCT    H71 6729   1.014   1.758   1.830 -0.2636  1.1959 -3.1090
  259OCT    H72 6730   0.908   1.687   1.953  1.2230  1.3797  0.4264
  259OCT     C8 6731   1.041   1.536   1.860  0.6401 -0.3582  0.1906
  259OCT    H81 6732   1.075   1.491   1.766  0.6662  0.3270 -2.3499
  259OCT    H82 6733   1.129   1.555   1.925  3.3025 -0.8026  1.7069
  259OCT    H83 6734   0.982   1.461   1.915 -0.8889  0.3428 -0.3107
  260OCT     C1 6735   0.514   2.394   1.722 -0.2442 -0.1074  0.8020
  260OCT    H11 6736   0.430   2.347   1.762  4.4762  0.6069 -1.5645
  260OCT    H12 6737   0.602   2.349   1.768  0.6765  1.9617 -0.9523
  260OCT    H13 6738   0.507   2.502   1.760 -0.7801  1.0113  0.9469
  260OCT     C2 6739   0.507   2.397   1.568 -0.2434 -0.1659 -0.5572
  260OCT    H21 6740   0.536   2.297   1.520  0.9803 -1.8568 -0.2350
  260OCT    H22 6741   0.406   2.418   1.534  1.1201  0.9130  0.1976
  260OCT     C3 6742   0.609   2.494   1.506 -0.6085 -0.2024  0.4050
  260OCT    H31 6743   0.710   2.460   1.526  1.0392 -1.4824 -0.9799
  260OCT    H32 6744   0.595   2.477   1.390  0.1932 -3.4171  1.6252
  260OCT     C4 6745   0.574   2.649   1.528  0.3468 -0.0374  0.3165
  260OCT    H41 6746   0.468   2.671   1.515  2.7941  1.0148 -0.7189
  260OCT    H42 6747   0.609   2.675   1.623 -1.1915 -0.1211 -3.1030
  260OCT     C5 6748   0.662   2.742   1.441  0.4031 -0.0196  1.0163
  260OCT    H51 6749   0.772   2.727   1.458  0.2982 -2.6040  0.4596
  260OCT    H52 6750   0.639   2.731   1.332 -2.1738 -0.2458 -1.4471
  260OCT     C6 6751   0.629   2.888   1.474  0.5260 -0.0878  0.6950
  260OCT    H61 6752   0.527   2.915   1.447 -0.1052  0.3702 -0.5505
  260OCT    H62 6753   0.634   2.909   1.583  0.1740  2.3572 -1.6129
  260OCT     C7 6754   0.731   2.990   1.409 -0.1651 -0.0650 -0.0153
  260OCT    H71 6755   0.833   2.975   1.443 -0.9065 -3.0448 -3.3172
  260OCT    H72 6756   0.732   2.966   1.303  4.3379 -0.1653  0.3632
  260OCT     C8 6757   0.689   3.135   1.435 -1.0843  0.0071  0.5989
  260OCT    H81 6758   0.768   3.211   1.398  1.7916  0.1514  0.3767
  260OCT    H82 6759   0.596   3.161   1.387  0.5088 -3.6043  1.8405
  260OCT    H83 6760   0.676   3.161   1.545  3.4508  0.8656  0.5162
  261OCT     C1 6761   4.357   1.796   1.293  0.3326  0.1321  0.4117
  261OCT    H11 6762   4.384   1.753   1.192  0.8759 -1.8650  1.4552
  261OCT    H12 6763   4.257   1.759   1.303  1.2557 -1.3166  0.5596
  261OCT    H13 6764   4.362   1.907   1.309  0.7159 -0.9134 -0.9345
  261OCT     C2 6765   4.436   1.725   1.405  0.2035 -0.0365  0.7293
  261OCT    H21 6766   4.493   1.798   1.475  3.9898  0.6597  0.5753
  261OCT    H22 6767   4.364   1.667   1.467 -1.0818 -1.8717 -2.8958
  261OCT     C3 6768   4.545   1.629   1.365  0.2081  0.7485  0.3001
  261OCT    H31 6769   4.504   1.536   1.321  1.7984  1.7951  0.0627
  261OCT    H32 6770   4.616   1.676   1.294  3.1298  0.6822  0.1362
  261OCT     C4 6771   4.627   1.578   1.481 -0.0036  0.2169  0.7451
  261OCT    H41 6772   4.655   1.663   1.553  1.0452  1.4395  1.2447
  261OCT    H42 6773   4.564   1.506   1.545 -4.3020 -0.1582  2.4051
  261OCT     C5 6774   4.758   1.513   1.426  0.0438  0.3175 -0.1690
  261OCT    H51 6775   4.812   1.451   1.500  1.0648  1.1757  0.9985
  261OCT    H52 6776   4.729   1.443   1.349  0.2497  0.5233  1.4828
  261OCT     C6 6777   4.860   1.615   1.370  0.8107 -0.7106  0.2188
  261OCT    H61 6778   4.813   1.650   1.277 -1.5772 -1.6469  1.2336
  261OCT    H62 6779   4.875   1.704   1.440  3.8723  0.5577 -0.1618
  261OCT     C7 6780   4.998   1.554   1.349 -0.1681 -0.3732  0.4819
  261OCT    H71 6781   5.042   1.553   1.453 -0.8538  0.8355 -0.8756
  261OCT    H72 6782   4.973   1.456   1.308 -1.8095  0.1487 -0.3683
  261OCT     C8 6783   5.103   1.640   1.271  1.0688  0.3739 -0.4231
  261OCT    H81 6784   5.080   1.654   1.160  0.3023  1.4313 -0.3857
  261OCT    H82 6785   5.107   1.743   1.310 -0.0800  2.5559 -0.9450
  261OCT    H83 6786   5.199   1.591   1.276 -0.6561 -1.1097  0.2772
  262OCT     C1 6787   3.328   4.267   4.372  0.3506 -0.2234 -0.7377
  262OCT    H11 6788   3.239   4.232   4.309 -1.4723  0.3360  0.0369
  262OCT    H12 6789   3.411   4.204   4.349 -1.1254 -1.4168  1.1802
  262OCT    H13 6790   3.300   4.243   4.475 -1.3467 -1.9937  0.0827
  262OCT     C2 6791   3.342   4.418   4.362  0.0938  0.6500  0.8449
  262OCT    H21 6792   3.261   4.456   4.302  3.8703 -0.3322 -0.7892
  262OCT    H22 6793   3.347   4.459   4.472  1.0109 -1.1484  1.8165
  262OCT     C3 6794   3.473   4.455   4.302  0.5918  0.5687  0.1807
  262OCT    H31 6795   3.563   4.433   4.354  0.9954  2.1886 -1.2880
  262OCT    H32 6796   3.471   4.397   4.205 -0.4129  1.6251  0.5858
  262OCT     C4 6797   3.479   4.604   4.259  0.5592 -0.0362 -0.4086
  262OCT    H41 6798   3.565   4.626   4.196  0.2335  0.3182 -0.1910
  262OCT    H42 6799   3.383   4.624   4.216  0.2657 -1.6909  1.7847
  262OCT     C5 6800   3.487   4.697   4.379 -0.7469  0.3704  0.3220
  262OCT    H51 6801   3.425   4.658   4.461  0.1601  1.6492  0.3042
  262OCT    H52 6802   3.594   4.703   4.409  0.5319 -1.1963  2.3877
  262OCT     C6 6803   3.445   4.841   4.347  0.5796  0.5631  0.1588
  262OCT    H61 6804   3.470   4.875   4.239  0.5788 -0.8493 -0.6150
  262OCT    H62 6805   3.335   4.840   4.341  2.7635  0.4098 -2.8346
  262OCT     C7 6806   3.503   4.944   4.446 -0.9574  0.2042 -0.7344
  262OCT    H71 6807   3.500   4.907   4.550  2.3460  0.7277 -0.8634
  262OCT    H72 6808   3.612   4.953   4.430  1.6354  0.7047 -1.5216
  262OCT     C8 6809   3.438   5.087   4.436 -0.3376  0.0437 -0.3804
  262OCT    H81 6810   3.468   5.143   4.345 -1.1478  1.0544  0.3427
  262OCT    H82 6811   3.325   5.070   4.437 -1.5926 -2.6815  1.1884
  262OCT    H83 6812   3.470   5.156   4.518  0.4161 -0.7214  0.1409
  263OCT     C1 6813   4.240   2.069   4.397  0.4870  0.0958  0.2910
  263OCT    H11 6814   4.239   2.180   4.400 -1.9881  0.5327  3.4332
  263OCT    H12 6815   4.215   2.028   4.295  0.6866 -1.1251  1.1205
  263OCT    H13 6816   4.153   2.040   4.464 -0.6293  0.1692 -1.1885
  263OCT     C2 6817   4.377   2.018   4.456 -0.3524  0.7598  0.3775
  263OCT    H21 6818   4.372   1.907   4.466 -0.0280 -1.5655  0.1593
  263OCT    H22 6819   4.453   2.040   4.378  1.0655  0.8488  0.2929
  263OCT     C3 6820   4.413   2.084   4.585  0.9200  0.9815 -0.8900
  263OCT    H31 6821   4.421   2.193   4.587  0.0347 -0.6264  2.0871
  263OCT    H32 6822   4.329   2.056   4.654  0.3983 -3.1931 -0.4304
  263OCT     C4 6823   4.548   2.026   4.629  0.2458  0.0255 -0.0509
  263OCT    H41 6824   4.547   1.917   4.629  0.6093  1.0367 -1.4958
  263OCT    H42 6825   4.631   2.045   4.560 -2.8918  4.3870 -0.6668
  263OCT     C5 6826   4.599   2.086   4.766 -0.3053 -0.7307 -0.2957
  263OCT    H51 6827   4.668   2.012   4.803 -1.8257 -1.5140 -0.0045
  263OCT    H52 6828   4.650   2.179   4.749  0.2926  1.3222  0.0302
  263OCT     C6 6829   4.491   2.105   4.873 -0.2050  0.2526  0.0182
  263OCT    H61 6830   4.523   2.187   4.950 -2.1145  1.1523 -0.8815
  263OCT    H62 6831   4.406   2.163   4.832  1.2681  0.0499  1.9781
  263OCT     C7 6832   4.441   1.980   4.937 -1.2385  0.6008  0.8636
  263OCT    H71 6833   4.325   1.990   4.948 -3.9226  0.2263  0.4342
  263OCT    H72 6834   4.461   1.899   4.862 -0.0623  1.2902  0.6736
  263OCT     C8 6835   4.505   1.944   5.069 -0.2076 -0.9186  0.4618
  263OCT    H81 6836   4.484   1.845   5.101 -1.2307  3.7073 -1.8046
  263OCT    H82 6837   4.616   1.955   5.061 -0.3328  1.4569  1.2362
  263OCT    H83 6838   4.468   2.006   5.149  0.7932 -2.1946 -0.9131
  264OCT     C1 6839   4.311   0.779   0.256  0.6226 -0.5684  0.3824
  264OCT    H11 6840   4.396   0.748   0.197  0.2547  0.7189  1.0391
  264OCT    H12 6841   4.236   0.697   0.241  0.8553 -2.0024 -2.5839
  264OCT    H13 6842   4.274   0.873   0.210 -0.4861  0.1996  1.2685
  264OCT     C2 6843   4.362   0.800   0.395  0.0463 -0.0357  0.0706
  264OCT    H21 6844   4.397   0.704   0.426  0.0450 -0.4465 -0.1740
  264OCT    H22 6845   4.450   0.869   0.393  2.5419  0.7077 -1.8345
  264OCT     C3 6846   4.264   0.850   0.500  1.0547 -0.0928  0.1301
  264OCT    H31 6847   4.160   0.834   0.468 -1.2117 -1.3480  0.4712
  264OCT    H32 6848   4.256   0.801   0.604 -0.8355 -0.7213  1.8226
  264OCT     C4 6849   4.274   1.002   0.525  0.1013  0.3385 -0.4706
  264OCT    H41 6850   4.377   1.030   0.563  2.1755 -0.4719  2.9728
  264OCT    H42 6851   4.258   1.055   0.430  1.4277 -0.1396  0.3949
  264OCT     C5 6852   4.186   1.058   0.635 -0.1855  0.0727 -0.3487
  264OCT    H51 6853   4.092   1.081   0.581  0.3737 -0.2669 -1.6021
  264OCT    H52 6854   4.171   0.989   0.718  0.4629  0.0236 -2.0602
  264OCT     C6 6855   4.248   1.190   0.679 -0.3168  0.2931  0.1564
  264OCT    H61 6856   4.356   1.174   0.712  2.3036 -3.3293  0.9824
  264OCT    H62 6857   4.251   1.259   0.592 -0.6206  2.6597  0.0214
  264OCT     C7 6858   4.166   1.255   0.794  0.9068  0.5213  0.0596
  264OCT    H71 6859   4.189   1.192   0.879 -0.0880 -0.3923  0.2203
  264OCT    H72 6860   4.218   1.351   0.823  0.3965 -0.4724 -0.2827
  264OCT     C8 6861   4.015   1.270   0.763 -0.1161 -0.4618 -0.1066
  264OCT    H81 6862   3.994   1.297   0.656 -2.4836 -0.2543 -2.0692
  264OCT    H82 6863   3.963   1.182   0.786 -0.2825  1.8913  1.1478
  264OCT    H83 6864   3.981   1.357   0.823  1.3908 -0.3368 -0.4048
  265OCT     C1 6865   2.363   3.448   1.402 -0.0309  0.6584  0.3048
  265OCT    H11 6866   2.468   3.492   1.397  0.6646  1.9637 -0.1932
  265OCT    H12 6867   2.301   3.518   1.467 -0.2157 -0.5289  0.3834
  265OCT    H13 6868   2.385   3.354   1.462 -0.3382  1.5798  4.0933
  265OCT     C2 6869   2.314   3.434   1.255  0.1657  0.7154  0.3220
  265OCT    H21 6870   2.221   3.388   1.269  1.6154 -0.5854  0.7084
  265OCT    H22 6871   2.295   3.533   1.214  1.1523  2.5287  0.5855
  265OCT     C3 6872   2.414   3.364   1.156  0.7211  0.5682 -0.3774
  265OCT    H31 6873   2.515   3.408   1.171 -2.0546 -1.3063 -1.3688
  265OCT    H32 6874   2.423   3.263   1.184 -0.2536  1.7453  1.7969
  265OCT     C4 6875   2.374   3.357   1.009  0.4692  0.4157  0.1647
  265OCT    H41 6876   2.280   3.303   1.012 -0.0572  1.5178  2.3041
  265OCT    H42 6877   2.361   3.460   0.962  1.3736  1.2875 -1.1880
  265OCT     C5 6878   2.469   3.281   0.916 -0.5683  0.1505  0.0163
  265OCT    H51 6879   2.571   3.331   0.908  0.4746  0.9158 -1.2605
  265OCT    H52 6880   2.487   3.178   0.950  0.4124 -0.8692  0.5458
  265OCT     C6 6881   2.434   3.260   0.772 -0.1116  0.3725  0.5070
  265OCT    H61 6882   2.339   3.205   0.760  2.8443  3.4251 -0.9693
  265OCT    H62 6883   2.412   3.354   0.728  1.8321 -1.8934  1.7491
  265OCT     C7 6884   2.543   3.184   0.692  0.1175  0.2112 -0.1840
  265OCT    H71 6885   2.634   3.246   0.707 -0.1837  0.0572  0.2251
  265OCT    H72 6886   2.553   3.082   0.740 -1.9560 -2.2115  1.0186
  265OCT     C8 6887   2.511   3.165   0.543  0.3089  0.7595  0.5690
  265OCT    H81 6888   2.527   3.255   0.483  0.1086  0.4110 -0.7202
  265OCT    H82 6889   2.589   3.097   0.496  0.6701  0.7043  0.2845
  265OCT    H83 6890   2.411   3.121   0.527 -1.9548  2.4792 -4.1063
  266OCT     C1 6891   1.738   4.254   3.635 -0.2118  0.3207  0.7172
  266OCT    H11 6892   1.792   4.229   3.720  0.1676  1.6584 -3.2650
  266OCT    H12 6893   1.755   4.365   3.629 -0.5282  0.8804  0.8010
  266OCT    H13 6894   1.632   4.225   3.618  0.0864 -0.6385 -2.7787
  266OCT     C2 6895   1.796   4.204   3.501 -0.5922  0.7831 -0.1141
  266OCT    H21 6896   1.804   4.099   3.513 -0.5233  2.3811 -5.3747
  266OCT    H22 6897   1.725   4.222   3.424 -0.6502  0.0633  4.3983
  266OCT     C3 6898   1.939   4.252   3.464  0.1847  0.5856 -0.5768
  266OCT    H31 6899   1.937   4.363   3.449  0.8468  0.2920  1.2875
  266OCT    H32 6900   2.012   4.229   3.553  2.3886  1.5336  3.3200
  266OCT     C4 6901   1.996   4.185   3.331 -0.0144  0.2562  0.4627
  266OCT    H41 6902   1.987   4.073   3.330  0.3956  1.3291 -0.6698
  266OCT    H42 6903   1.930   4.211   3.245  0.2451 -0.8388 -1.6022
  266OCT     C5 6904   2.141   4.217   3.303  0.7301  0.4556  0.0358
  266OCT    H51 6905   2.157   4.319   3.273  2.1694 -2.1792  1.4491
  266OCT    H52 6906   2.207   4.213   3.391 -1.7339 -1.3445  0.1048
  266OCT     C6 6907   2.203   4.136   3.189  0.0402  0.0432 -0.0880
  266OCT    H61 6908   2.310   4.171   3.171  0.9980 -1.9043 -0.8453
  266OCT    H62 6909   2.213   4.027   3.221  1.3862 -3.3674  0.2469
  266OCT     C7 6910   2.125   4.136   3.054  0.0532 -0.4369 -0.0590
  266OCT    H71 6911   2.024   4.093   3.077  0.1255 -0.5009 -0.9290
  266OCT    H72 6912   2.119   4.240   3.026 -0.1981 -0.4156 -1.0147
  266OCT     C8 6913   2.195   4.044   2.949  0.4769 -0.1963  0.4627
  266OCT    H81 6914   2.142   4.061   2.850 -0.3006  1.4514 -2.1228
  266OCT    H82 6915   2.300   4.079   2.932 -1.3296 -1.2461 -0.7831
  266OCT    H83 6916   2.203   3.938   2.976  1.4753  0.6880 -0.2596
  267OCT     C1 6917   0.004   2.963   3.177 -0.4531  0.0505  0.2587
  267OCT    H11 6918  -0.086   3.013   3.136 -1.7270  1.5764  0.8097
  267OCT    H12 6919  -0.004   2.859   3.161 -0.6471  2.7805 -1.5908
  267OCT    H13 6920  -0.013   2.975   3.281  1.0597 -0.4402 -4.2262
  267OCT     C2 6921   0.130   3.031   3.119 -0.0394 -0.0320  0.4705
  267OCT    H21 6922   0.118   3.140   3.095  0.6909  0.5487  0.6899
  267OCT    H22 6923   0.210   3.028   3.196 -0.1193  1.3522  0.0524
  267OCT     C3 6924   0.196   2.967   2.991  0.6091  0.6417  0.0948
  267OCT    H31 6925   0.276   3.038   2.956  2.3342 -2.5009  0.0600
  267OCT    H32 6926   0.253   2.879   3.026 -0.1205  0.4277  1.0265
  267OCT     C4 6927   0.084   2.937   2.885  0.1301 -0.6675  0.3161
  267OCT    H41 6928   0.140   2.883   2.801  2.8895  1.6635 -1.2412
  267OCT    H42 6929   0.005   2.878   2.935 -0.5960 -1.0800 -1.1297
  267OCT     C5 6930   0.019   3.065   2.829 -0.1933 -0.2220  0.1187
  267OCT    H51 6931  -0.057   3.113   2.902 -0.0834 -1.6605  3.1860
  267OCT    H52 6932   0.105   3.135   2.819  0.9599 -0.1959  0.6473
  267OCT     C6 6933  -0.060   3.052   2.695  0.6934  0.0537 -0.4700
  267OCT    H61 6934  -0.002   2.999   2.620  0.9882 -1.6923  1.2541
  267OCT    H62 6935  -0.156   2.993   2.724 -1.7282 -0.0311  0.0895
  267OCT     C7 6936  -0.099   3.194   2.636  1.2584  0.9296  0.1110
  267OCT    H71 6937  -0.167   3.178   2.549  1.8036  0.5413 -1.6119
  267OCT    H72 6938  -0.162   3.247   2.710 -0.7164 -0.4401  0.3783
  267OCT     C8 6939   0.016   3.284   2.590 -0.0522  0.4033 -0.4058
  267OCT    H81 6940   0.087   3.237   2.520  1.0444  1.1059 -0.3809
  267OCT    H82 6941  -0.013   3.371   2.533  1.7951  2.2280 -2.8410
  267OCT    H83 6942   0.076   3.318   2.673 -1.5488 -1.1442  1.0875
  268OCT     C1 6943   0.295   2.243   3.458 -0.0350  0.2897 -0.3253
  268OCT    H11 6944   0.391   2.234   3.515  0.6992 -2.0582  0.4107
  268OCT    H12 6945   0.301   2.171   3.373  0.0835 -0.6062 -0.2681
  268OCT    H13 6946   0.282   2.351   3.422  1.8927  1.2985 -0.3088
  268OCT     C2 6947   0.185   2.202   3.562 -0.0851 -0.4446  0.1857
  268OCT    H21 6948   0.208   2.106   3.605  1.0032  2.7173 -2.1218
  268OCT    H22 6949   0.185   2.280   3.642  0.8522  2.3916  1.1850
  268OCT     C3 6950   0.050   2.203   3.489 -0.2735  0.3676 -0.2831
  268OCT    H31 6951   0.041   2.299   3.434 -1.0769 -0.4586 -3.6882
  268OCT    H32 6952   0.041   2.121   3.409  0.2543 -0.9174  0.1902
  268OCT     C4 6953  -0.073   2.198   3.572 -0.1568 -0.2586  0.1769
  268OCT    H41 6954  -0.076   2.105   3.640  1.7005 -1.9994 -0.1205
  268OCT    H42 6955  -0.062   2.276   3.648  0.4245  1.3775 -2.9371
  268OCT     C5 6956  -0.206   2.209   3.495  0.2087 -0.9995 -0.5373
  268OCT    H51 6957  -0.207   2.288   3.424 -0.7378 -1.5779  0.4783
  268OCT    H52 6958  -0.237   2.119   3.438  0.7667  0.4153 -0.2207
  268OCT     C6 6959  -0.317   2.236   3.600 -0.4665  1.0404  0.2999
  268OCT    H61 6960  -0.305   2.158   3.682  2.3187  0.7389  3.7601
  268OCT    H62 6961  -0.310   2.336   3.636 -0.8833  0.1415  0.5772
  268OCT     C7 6962  -0.453   2.214   3.538  0.2379 -0.6529 -0.2158
  268OCT    H71 6963  -0.440   2.131   3.461  3.7312  0.0325 -0.0851
  268OCT    H72 6964  -0.515   2.184   3.620  1.7226  2.2994  0.5693
  268OCT     C8 6965  -0.511   2.339   3.478 -0.4554 -0.0845 -0.0768
  268OCT    H81 6966  -0.441   2.376   3.402 -3.1537  0.0935 -1.7117
  268OCT    H82 6967  -0.612   2.309   3.431 -1.3213 -0.2650 -2.0759
  268OCT    H83 6968  -0.515   2.421   3.553  2.4341 -0.2748  0.9698
  269OCT     C1 6969   1.316   2.518   4.397 -0.0661  0.2007 -0.5354
  269OCT    H11 6970   1.269   2.430   4.360  1.0319 -2.4437  3.6095
  269OCT    H12 6971   1.266   2.606   4.362 -0.6874  0.3081 -0.3937
  269OCT    H13 6972   1.417   2.513   4.349 -0.2711  1.5044 -1.7430
  269OCT     C2 6973   1.319   2.534   4.549 -0.4023 -0.4077  0.2779
  269OCT    H21 6974   1.214   2.562   4.572  2.3777  0.5471 -0.1536
  269OCT    H22 6975   1.347   2.442   4.602 -1.2378 -0.3767  0.0880
  269OCT     C3 6976   1.411   2.645   4.601 -0.8230  0.2756 -0.5274
  269OCT    H31 6977   1.517   2.614   4.567  0.3456  0.2902 -0.4498
  269OCT    H32 6978   1.385   2.742   4.558 -0.4467 -0.3134 -2.6055
  269OCT     C4 6979   1.416   2.664   4.751  0.1721 -0.3452 -0.0241
  269OCT    H41 6980   1.318   2.702   4.786  1.7967  1.5840  0.2734
  269OCT    H42 6981   1.442   2.575   4.812  0.5324 -0.8471  1.0668
  269OCT     C5 6982   1.516   2.773   4.797 -0.1126 -0.6817  0.0109
  269OCT    H51 6983   1.609   2.752   4.740 -1.3717 -2.7463  0.6749
  269OCT    H52 6984   1.473   2.876   4.759 -1.6505  2.2936  0.0470
  269OCT     C6 6985   1.542   2.775   4.946 -0.1733  0.6578  0.0096
  269OCT    H61 6986   1.453   2.759   5.004  2.3123  0.9064  1.1167
  269OCT    H62 6987   1.603   2.686   4.970  0.8493  1.8830  2.0425
  269OCT     C7 6988   1.617   2.904   4.981  0.3321 -0.7630 -0.1151
  269OCT    H71 6989   1.707   2.917   4.917  0.8917 -0.2887  0.8525
  269OCT    H72 6990   1.555   2.988   4.950  1.1911  0.7715 -1.0536
  269OCT     C8 6991   1.650   2.910   5.132 -0.7974  0.3015 -0.1980
  269OCT    H81 6992   1.689   3.011   5.149  0.7884  0.7253  1.1432
  269OCT    H82 6993   1.558   2.898   5.193  0.6582 -0.6128  1.4152
  269OCT    H83 6994   1.713   2.818   5.156 -0.2779 -3.3612 -1.0044
  270OCT     C1 6995   1.977   2.552   0.164 -0.5583  0.7063 -0.2045
  270OCT    H11 6996   1.926   2.546   0.264 -2.2713  1.5636 -1.8707
  270OCT    H12 6997   2.008   2.452   0.127  1.3460 -0.4808  0.7339
  270OCT    H13 6998   2.062   2.617   0.179 -1.1971  0.0231 -1.1713
  270OCT     C2 6999   1.871   2.614   0.080  0.0297 -0.1487 -0.2709
  270OCT    H21 7000   1.910   2.609  -0.027  1.3128 -1.1793 -2.6018
  270OCT    H22 7001   1.776   2.563   0.087  3.4676 -2.2701 -0.0117
  270OCT     C3 7002   1.846   2.766   0.109  0.3376  0.2628  0.1799
  270OCT    H31 7003   1.831   2.756   0.222 -0.4492  1.1202 -1.1300
  270OCT    H32 7004   1.932   2.831   0.074 -0.1066 -0.3119 -0.4655
  270OCT     C4 7005   1.713   2.823   0.051  0.4267 -1.1135  0.2655
  270OCT    H41 7006   1.733   2.821  -0.057  0.9193  4.0378 -0.8874
  270OCT    H42 7007   1.628   2.761   0.078  0.2132  1.5087 -2.5267
  270OCT     C5 7008   1.686   2.969   0.079 -0.1559 -0.0584 -0.8140
  270OCT    H51 7009   1.623   2.985   0.173 -0.2589  1.3011  3.7193
  270OCT    H52 7010   1.781   3.023   0.097 -2.2258 -0.2375  2.7325
  270OCT     C6 7011   1.604   3.039  -0.037  0.3568  0.4087  0.1652
  270OCT    H61 7012   1.580   3.147  -0.010  2.1639  2.4507 -2.2153
  270OCT    H62 7013   1.661   3.043  -0.135  2.6814  1.7705  1.4575
  270OCT     C7 7014   1.461   2.973  -0.055  0.1327  0.3324  0.3019
  270OCT    H71 7015   1.466   2.867  -0.080 -0.6354  1.7563  0.3792
  270OCT    H72 7016   1.398   2.977   0.042  0.4220  0.1573  2.1672
  270OCT     C8 7017   1.381   3.047  -0.170 -0.3871  0.2588  0.2998
  270OCT    H81 7018   1.376   3.156  -0.145 -1.6023  1.7635  0.0340
  270OCT    H82 7019   1.431   3.031  -0.266 -1.7784  0.3199 -1.1515
  270OCT    H83 7020   1.277   3.011  -0.181  1.7726  0.5227  1.0706
  271OCT     C1 7021   3.534   0.318   3.126 -0.2786  0.0838  0.1738
  271OCT    H11 7022   3.590   0.389   3.063 -0.3720  0.9129  0.9739
  271OCT    H12 7023   3.499   0.368   3.220  0.0279 -1.2672 -1.0631
  271OCT    H13 7024   3.600   0.233   3.142 -0.7647  1.2899 -2.2732
  271OCT     C2 7025   3.407   0.284   3.042  0.6683  0.0191  0.6362
  271OCT    H21 7026   3.329   0.233   3.099 -2.5002  1.8135 -1.4728
  271OCT    H22 7027   3.357   0.379   3.002  0.8385  1.4719 -0.0676
  271OCT     C3 7028   3.440   0.194   2.922  0.4439  0.0933  0.5369
  271OCT    H31 7029   3.508   0.108   2.941 -0.0670 -0.0969 -1.3767
  271OCT    H32 7030   3.339   0.149   2.892 -1.1506  2.5914  0.2963
  271OCT     C4 7031   3.500   0.269   2.799 -0.3586  0.0891  0.3082
  271OCT    H41 7032   3.418   0.318   2.735 -4.5208 -0.4244 -0.5332
  271OCT    H42 7033   3.562   0.352   2.833 -0.5356 -2.3193 -1.0151
  271OCT     C5 7034   3.587   0.192   2.698  0.1901 -0.4791 -0.5148
  271OCT    H51 7035   3.611   0.268   2.618  1.3552 -0.6678 -1.2685
  271OCT    H52 7036   3.693   0.162   2.727  2.3252 -0.8571 -1.4097
  271OCT     C6 7037   3.520   0.062   2.661 -0.3963  0.4283  0.5476
  271OCT    H61 7038   3.506   0.001   2.750 -0.8838 -0.0815 -1.4553
  271OCT    H62 7039   3.413   0.079   2.637  1.2097 -3.0484  1.2373
  271OCT     C7 7040   3.581  -0.024   2.549  0.0135 -0.3061 -0.4067
  271OCT    H71 7041   3.502  -0.084   2.501  0.7390  1.7652  0.3645
  271OCT    H72 7042   3.627   0.037   2.472  1.3257 -1.1996 -2.2457
  271OCT     C8 7043   3.694  -0.109   2.617  0.1163  0.1535  0.4377
  271OCT    H81 7044   3.778  -0.048   2.653  1.2517  0.8348 -2.5389
  271OCT    H82 7045   3.654  -0.174   2.693  2.9453  1.5873  0.7369
  271OCT    H83 7046   3.735  -0.176   2.544 -0.9622  2.1060 -1.8485
  272OCT     C1 7047   1.799   2.475   1.894  0.4760 -0.0339 -0.5933
  272OCT    H11 7048   1.906   2.492   1.866  0.5654 -1.6193 -0.6733
  272OCT    H12 7049   1.727   2.554   1.870  0.8094 -0.8193  0.4481
  272OCT    H13 7050   1.788   2.455   2.001  1.3298  3.4438 -2.9751
  272OCT     C2 7051   1.748   2.353   1.819 -0.0400 -0.7908 -0.2048
  272OCT    H21 7052   1.667   2.293   1.863  0.5521 -2.6083 -1.8221
  272OCT    H22 7053   1.717   2.385   1.716  1.6405  0.0171 -0.4086
  272OCT     C3 7054   1.859   2.246   1.805 -0.3751  0.2368  0.6155
  272OCT    H31 7055   1.953   2.293   1.788 -3.3159  0.1801  0.5201
  272OCT    H32 7056   1.863   2.193   1.905 -1.7653  1.4764 -1.5388
  272OCT     C4 7057   1.843   2.153   1.679 -0.5836 -0.0906  0.5052
  272OCT    H41 7058   1.761   2.082   1.710  0.6526 -0.3417  2.2412
  272OCT    H42 7059   1.811   2.203   1.583 -1.2196  0.3646 -1.9346
  272OCT     C5 7060   1.962   2.059   1.642  0.0965  0.3752 -0.4917
  272OCT    H51 7061   2.010   2.011   1.738  0.9051  1.4916  0.9051
  272OCT    H52 7062   1.922   1.980   1.576 -0.9340  0.1347  2.4312
  272OCT     C6 7063   2.064   2.129   1.543 -0.2417 -0.3444 -0.1561
  272OCT    H61 7064   2.001   2.173   1.467  1.8295 -0.5643  0.7506
  272OCT    H62 7065   2.124   2.208   1.603  0.2129  0.1680  5.1213
  272OCT     C7 7066   2.161   2.039   1.460  0.2677  0.4871  0.1309
  272OCT    H71 7067   2.106   1.954   1.408  1.0690 -1.6807 -1.8243
  272OCT    H72 7068   2.228   2.101   1.396  0.7036  1.8156  1.9442
  272OCT     C8 7069   2.265   1.979   1.551  0.2548 -0.0150 -0.1926
  272OCT    H81 7070   2.228   1.897   1.615 -1.5726 -2.1298 -2.3124
  272OCT    H82 7071   2.355   1.931   1.507  1.3837 -0.4112  0.8182
  272OCT    H83 7072   2.305   2.057   1.616 -2.3657 -2.7281 -1.2564
  273OCT     C1 7073   4.206   3.419   0.402  0.0923 -0.5044  0.1121
  273OCT    H11 7074   4.134   3.506   0.376  0.2545 -0.0103 -0.0888
  273OCT    H12 7075   4.172   3.320   0.355  0.0026 -2.9961  0.1906
  273OCT    H13 7076   4.199   3.401   0.511  0.3708  2.0577  3.5522
  273OCT     C2 7077   4.344   3.460   0.361  0.0040  0.4496 -0.5869
  273OCT    H21 7078   4.351   3.474   0.250 -2.9005  1.7973  0.0976
  273OCT    H22 7079   4.364   3.560   0.406 -0.0305 -1.2395  1.6983
  273OCT     C3 7080   4.445   3.351   0.402  0.1647 -1.0016  0.0232
  273OCT    H31 7081   4.448   3.337   0.508 -2.3549 -0.0259 -1.4732
  273OCT    H32 7082   4.406   3.255   0.362  2.8364  1.7098 -2.0046
  273OCT     C4 7083   4.578   3.385   0.340 -0.1936  0.5436 -0.3593
  273OCT    H41 7084   4.637   3.288   0.341  1.2769  0.6089  2.0697
  273OCT    H42 7085   4.558   3.425   0.242 -1.2739 -3.2857  2.0580
  273OCT     C5 7086   4.667   3.483   0.429  0.7205 -0.1969 -0.4106
  273OCT    H51 7087   4.623   3.583   0.425 -2.8987 -1.9458  0.8151
  273OCT    H52 7088   4.664   3.441   0.534 -0.8545 -2.4082 -0.8264
  273OCT     C6 7089   4.817   3.470   0.384  0.2772  0.3280  0.3766
  273OCT    H61 7090   4.834   3.358   0.400 -1.9986 -2.4248  2.9650
  273OCT    H62 7091   4.816   3.487   0.268 -0.5684  0.4604 -3.8459
  273OCT     C7 7092   4.913   3.551   0.471  0.9153  0.8958  0.3357
  273OCT    H71 7093   4.875   3.654   0.476  3.1065 -1.6546 -0.1026
  273OCT    H72 7094   4.903   3.513   0.579  1.9762  1.1150  2.0149
  273OCT     C8 7095   5.064   3.552   0.434  0.0324 -0.0019 -0.0274
  273OCT    H81 7096   5.119   3.611   0.509 -1.8804  1.8199 -0.8683
  273OCT    H82 7097   5.099   3.451   0.412 -2.8267  0.3711  1.5428
  273OCT    H83 7098   5.082   3.610   0.338  1.8139 -0.7590 -1.4478
  274OCT     C1 7099   1.282   3.093   1.489 -0.1664 -0.1807 -0.3882
  274OCT    H11 7100   1.277   3.193   1.446  3.2842 -1.1031 -0.4182
  274OCT    H12 7101   1.346   3.030   1.417 -1.1279 -2.0112  0.6794
  274OCT    H13 7102   1.191   3.040   1.482  0.2649  0.4297  0.8071
  274OCT     C2 7103   1.326   3.105   1.640 -0.5049 -0.3192  0.3057
  274OCT    H21 7104   1.429   3.147   1.647  1.6067 -0.4370 -1.2666
  274OCT    H22 7105   1.262   3.168   1.698  0.9199 -0.0921  1.8459
  274OCT     C3 7106   1.331   2.963   1.699  0.0553 -0.7195  0.5037
  274OCT    H31 7107   1.333   2.969   1.807 -1.8491 -0.0713 -4.1684
  274OCT    H32 7108   1.242   2.909   1.668  1.1530  0.1069 -1.5942
  274OCT     C4 7109   1.447   2.874   1.661 -0.9920  0.4236 -0.7829
  274OCT    H41 7110   1.449   2.786   1.727  1.3603 -0.4907 -0.7410
  274OCT    H42 7111   1.427   2.833   1.562  1.4835 -1.2366 -0.6783
  274OCT     C5 7112   1.587   2.936   1.668  0.6080 -0.4319 -0.0689
  274OCT    H51 7113   1.618   3.015   1.593  0.3335 -1.2903  0.7688
  274OCT    H52 7114   1.588   2.986   1.764 -3.9804 -1.1758 -0.3110
  274OCT     C6 7115   1.689   2.818   1.677  0.5248  0.6702  0.5228
  274OCT    H61 7116   1.675   2.762   1.771  5.4061 -0.9610  0.0860
  274OCT    H62 7117   1.677   2.745   1.595  0.9210  0.1123  1.8070
  274OCT     C7 7118   1.836   2.872   1.674 -0.2694  0.3501 -0.2882
  274OCT    H71 7119   1.899   2.781   1.675 -1.1362 -1.8885  3.1930
  274OCT    H72 7120   1.856   2.935   1.587 -0.5703  0.4603 -0.0141
  274OCT     C8 7121   1.879   2.951   1.798 -0.0762 -0.3990 -0.0343
  274OCT    H81 7122   1.988   2.972   1.785 -0.2640  0.2818  1.3933
  274OCT    H82 7123   1.816   3.041   1.811 -0.3158 -2.0661  1.3541
  274OCT    H83 7124   1.869   2.899   1.892 -0.6561 -1.4398 -0.5892
  275OCT     C1 7125   4.362   4.062   0.989  0.1252  0.5809 -0.2901
  275OCT    H11 7126   4.347   4.129   1.080  3.6380 -1.9533  1.0633
  275OCT    H12 7127   4.281   4.087   0.914 -1.5757  1.1509 -1.9481
  275OCT    H13 7128   4.354   3.953   1.007 -0.1235  3.9851 -1.1719
  275OCT     C2 7129   4.498   4.094   0.943  0.0790  0.4454  0.0368
  275OCT    H21 7130   4.493   4.191   0.892 -0.6406 -1.0681  0.9902
  275OCT    H22 7131   4.560   4.098   1.025  2.3016 -2.1395 -1.9812
  275OCT     C3 7132   4.560   3.993   0.843 -0.1784 -0.2229 -0.1894
  275OCT    H31 7133   4.668   4.019   0.807  0.9299 -0.9606 -3.0749
  275OCT    H32 7134   4.581   3.896   0.891  1.2226  0.1563  0.1223
  275OCT     C4 7135   4.478   3.978   0.717 -0.9579  0.2728  1.0139
  275OCT    H41 7136   4.399   3.906   0.731  2.9512  0.5600 -0.2580
  275OCT    H42 7137   4.448   4.080   0.688  3.8375  0.5795 -1.2979
  275OCT     C5 7138   4.550   3.924   0.598 -0.3025  0.0757 -0.4416
  275OCT    H51 7139   4.634   3.991   0.573  0.6300 -1.3340 -0.1055
  275OCT    H52 7140   4.594   3.833   0.636  0.5964 -0.5883  0.7574
  275OCT     C6 7141   4.460   3.892   0.474  0.0698 -0.6153 -0.8403
  275OCT    H61 7142   4.513   3.847   0.389 -0.2284  2.6686  3.7840
  275OCT    H62 7143   4.396   3.814   0.524 -0.7578  0.5789  1.7141
  275OCT     C7 7144   4.368   4.007   0.425 -0.5623 -0.2697 -0.9469
  275OCT    H71 7145   4.299   3.970   0.348 -0.9812  0.4342  0.8268
  275OCT    H72 7146   4.302   4.044   0.508  0.3071  1.1340  0.9828
  275OCT     C8 7147   4.442   4.118   0.359 -0.7114  0.8263  0.2575
  275OCT    H81 7148   4.459   4.090   0.257 -0.6086  3.3391  0.0182
  275OCT    H82 7149   4.386   4.213   0.366 -0.9397 -0.6369  0.9746
  275OCT    H83 7150   4.539   4.131   0.407  0.4898  0.4132 -2.7411
  276OCT     C1 7151   3.814   0.556   3.464  0.0038  0.0208  0.2988
  276OCT    H11 7152   3.849   0.447   3.460  0.3925  1.5486 -0.2336
  276OCT    H12 7153   3.873   0.609   3.384  0.1090  1.9515  0.0674
  276OCT    H13 7154   3.844   0.596   3.560 -1.8733 -0.1703 -0.1782
  276OCT     C2 7155   3.666   0.572   3.437  0.4024 -0.1237  0.0092
  276OCT    H21 7156   3.643   0.536   3.332  0.9587 -0.1556 -2.1196
  276OCT    H22 7157   3.608   0.497   3.512  0.3567 -2.3970  0.5940
  276OCT     C3 7158   3.634   0.719   3.444 -0.0020 -0.5583 -0.4595
  276OCT    H31 7159   3.638   0.757   3.553  0.4086  3.8670 -0.1277
  276OCT    H32 7160   3.707   0.764   3.373 -1.1887  1.5492 -0.6763
  276OCT     C4 7161   3.488   0.739   3.405  0.3236  0.1160 -0.1305
  276OCT    H41 7162   3.459   0.710   3.298 -0.6678  1.3303  1.7688
  276OCT    H42 7163   3.433   0.672   3.469 -2.0970  1.9088 -0.5091
  276OCT     C5 7164   3.434   0.884   3.420 -0.3372  0.0485  0.2816
  276OCT    H51 7165   3.462   0.928   3.510 -0.6643 -1.4719 -0.6733
  276OCT    H52 7166   3.485   0.952   3.348  0.5080  0.5815 -1.9496
  276OCT     C6 7167   3.281   0.893   3.414 -0.2470 -0.0243  0.3013
  276OCT    H61 7168   3.257   0.855   3.314 -2.1683 -2.1359  1.5409
  276OCT    H62 7169   3.228   0.818   3.471  1.7322  3.5712 -4.1878
  276OCT     C7 7170   3.220   1.026   3.449 -0.0031  0.1594  0.4410
  276OCT    H71 7171   3.110   1.035   3.404 -4.3548  0.1362  1.0989
  276OCT    H72 7172   3.217   1.035   3.564 -2.1197 -0.3387 -0.4241
  276OCT     C8 7173   3.285   1.147   3.385 -0.6025 -0.0979 -0.1785
  276OCT    H81 7174   3.250   1.238   3.433 -1.0727 -1.9101  0.8152
  276OCT    H82 7175   3.397   1.136   3.412  1.4717 -3.0707  2.3343
  276OCT    H83 7176   3.273   1.146   3.274 -2.0328 -0.0356 -3.5822
  277OCT     C1 7177   1.817   2.836   2.675 -0.1781  0.2071 -0.7526
  277OCT    H11 7178   1.917   2.849   2.721  0.6169  0.2433  0.3509
  277OCT    H12 7179   1.843   2.780   2.584  0.8810 -1.7253  3.0959
  277OCT    H13 7180   1.779   2.934   2.656  0.3839  0.8483  1.6138
  277OCT     C2 7181   1.721   2.763   2.767  0.0241  0.1497 -0.0321
  277OCT    H21 7182   1.778   2.680   2.819 -0.5650 -2.2490 -1.7456
  277OCT    H22 7183   1.691   2.840   2.842  1.8854  1.7655  1.6287
  277OCT     C3 7184   1.600   2.696   2.706 -0.2677  0.5742 -0.8895
  277OCT    H31 7185   1.548   2.754   2.629  0.0077 -1.4737 -1.1039
  277OCT    H32 7186   1.626   2.600   2.656  2.2767  1.7276  1.5261
  277OCT     C4 7187   1.490   2.644   2.803 -0.6708 -0.0991  0.4438
  277OCT    H41 7188   1.396   2.613   2.738 -1.0565 -0.6653 -5.0380
  277OCT    H42 7189   1.539   2.547   2.840  0.6460 -2.3412  1.8975
  277OCT     C5 7190   1.441   2.742   2.910 -0.2923  0.5119 -0.5094
  277OCT    H51 7191   1.517   2.756   2.991 -1.9758  1.1899  1.0440
  277OCT    H52 7192   1.413   2.840   2.858 -2.5148  1.3841 -1.8577
  277OCT     C6 7193   1.324   2.689   2.993  0.5193  0.2897 -0.2037
  277OCT    H61 7194   1.323   2.577   3.005 -0.6048 -2.5612  1.2327
  277OCT    H62 7195   1.327   2.740   3.090 -4.3893 -2.9704  0.0697
  277OCT     C7 7196   1.195   2.738   2.928 -0.3748 -1.0390  0.0200
  277OCT    H71 7197   1.205   2.848   2.899  1.2385  0.1869 -1.8565
  277OCT    H72 7198   1.186   2.682   2.828  0.7507 -2.4276 -0.5117
  277OCT     C8 7199   1.070   2.711   3.009  0.0849  0.0123 -0.4240
  277OCT    H81 7200   0.983   2.773   2.970 -0.4588  1.1312  1.8428
  277OCT    H82 7201   1.042   2.606   3.008  0.4046  2.2850 -1.3711
  277OCT    H83 7202   1.098   2.746   3.112 -0.0735  1.2248 -0.2009
  278OCT     C1 7203   0.938   1.464   2.682 -0.0602 -0.4366  0.4711
  278OCT    H11 7204   0.895   1.401   2.757  0.6345  0.0740  1.2034
  278OCT    H12 7205   0.969   1.556   2.725 -2.1190  1.1711 -0.6275
  278OCT    H13 7206   0.852   1.504   2.620  0.8864  2.5457  0.2535
  278OCT     C2 7207   1.051   1.409   2.598 -0.4514 -0.2077  0.3843
  278OCT    H21 7208   1.024   1.325   2.529 -0.7703  0.0572 -0.5317
  278OCT    H22 7209   1.087   1.486   2.528 -0.3020  3.2666 -0.4492
  278OCT     C3 7210   1.171   1.361   2.687  0.3413 -0.0236 -0.6674
  278OCT    H31 7211   1.256   1.364   2.621 -1.1099  0.8917 -1.6098
  278OCT    H32 7212   1.188   1.446   2.760  2.7924  3.9880 -2.1609
  278OCT     C4 7213   1.139   1.228   2.754 -0.4726 -0.5076  0.0253
  278OCT    H41 7214   1.048   1.242   2.817 -1.3388 -0.7425 -1.9723
  278OCT    H42 7215   1.128   1.144   2.679  1.4762  0.9481  1.0574
  278OCT     C5 7216   1.255   1.179   2.832  0.1694  0.2698 -0.1748
  278OCT    H51 7217   1.341   1.156   2.768 -0.8965 -0.2191  4.0981
  278OCT    H52 7218   1.287   1.257   2.895  2.1157 -0.1627 -1.8947
  278OCT     C6 7219   1.232   1.055   2.916  0.2475  0.5285 -0.4024
  278OCT    H61 7220   1.323   1.039   2.984 -0.7361 -2.4086  0.9655
  278OCT    H62 7221   1.139   1.079   2.980 -0.3403  3.3655  1.5826
  278OCT     C7 7222   1.202   0.925   2.834  0.1617  0.0614 -0.2452
  278OCT    H71 7223   1.145   0.946   2.740 -1.4381  3.1329 -0.8999
  278OCT    H72 7224   1.301   0.883   2.793  2.5242 -3.9241  0.8994
  278OCT     C8 7225   1.134   0.819   2.917  0.2997  0.0728  0.0065
  278OCT    H81 7226   1.034   0.867   2.949 -2.3887 -0.7295  0.7511
  278OCT    H82 7227   1.115   0.727   2.856  1.7738 -0.5753 -1.8591
  278OCT    H83 7228   1.188   0.791   3.014 -0.3982  0.7367  0.1814
  279OCT     C1 7229   2.831   1.959   3.093  0.0573  0.1930 -0.3080
  279OCT    H11 7230   2.868   1.878   3.029  1.5088  4.4183  0.6898
  279OCT    H12 7231   2.825   1.926   3.202  0.5713  0.7321 -3.3823
  279OCT    H13 7232   2.736   1.990   3.062  1.1114  0.1460  2.9463
  279OCT     C2 7233   2.939   2.067   3.086 -0.3807 -0.2038  0.2101
  279OCT    H21 7234   3.033   2.023   3.135  0.5516  0.1228 -0.5939
  279OCT    H22 7235   2.972   2.089   2.979  0.1562  1.5264 -1.1100
  279OCT     C3 7236   2.917   2.195   3.154 -0.2274 -0.0689 -0.1346
  279OCT    H31 7237   2.817   2.237   3.127 -1.0936  1.5163  0.2778
  279OCT    H32 7238   2.922   2.169   3.267  0.6055  1.6377  0.3604
  279OCT     C4 7239   3.023   2.304   3.122 -0.0143 -0.1641  0.1243
  279OCT    H41 7240   3.036   2.312   3.010  1.4628 -2.3285 -1.0441
  279OCT    H42 7241   2.982   2.391   3.168 -0.8326 -1.8763  2.4457
  279OCT     C5 7242   3.164   2.293   3.187 -0.0371  1.2038 -0.2608
  279OCT    H51 7243   3.146   2.283   3.302 -0.6079  0.5711  2.5987
  279OCT    H52 7244   3.220   2.207   3.154  2.8914  1.7495  2.2959
  279OCT     C6 7245   3.266   2.405   3.183  0.5273 -0.2560  0.1229
  279OCT    H61 7246   3.275   2.432   3.074  0.7890 -0.5779  0.4192
  279OCT    H62 7247   3.227   2.494   3.238 -2.1155 -3.0039 -0.6687
  279OCT     C7 7248   3.399   2.378   3.241 -0.4480 -0.0458 -1.0385
  279OCT    H71 7249   3.384   2.336   3.345 -0.7781  2.1182  0.7636
  279OCT    H72 7250   3.438   2.301   3.172 -2.3998  0.6138 -0.3696
  279OCT     C8 7251   3.488   2.502   3.259  0.1032  0.4400 -0.3141
  279OCT    H81 7252   3.452   2.579   3.324  2.6302 -2.7395 -1.9536
  279OCT    H82 7253   3.586   2.468   3.303  0.9553 -0.6008  3.1278
  279OCT    H83 7254   3.506   2.547   3.157  1.7144  2.4240 -2.9117
  280OCT     C1 7255   3.786   0.987   1.204  0.6121 -0.3664 -0.9562
  280OCT    H11 7256   3.677   0.970   1.187  0.1577 -1.1207  0.3928
  280OCT    H12 7257   3.826   0.908   1.268 -0.8661  1.2615  1.6031
  280OCT    H13 7258   3.797   1.083   1.261 -0.9073  1.8791  3.1858
  280OCT     C2 7259   3.863   0.984   1.070 -0.2926 -0.3699  0.0725
  280OCT    H21 7260   3.827   1.073   1.019 -0.2045 -1.2026  2.3275
  280OCT    H22 7261   3.973   0.998   1.095 -0.5366  0.6070  0.1329
  280OCT     C3 7262   3.824   0.870   0.979 -0.1206 -0.3654  0.0122
  280OCT    H31 7263   3.851   0.775   1.032  0.5515  0.4177 -2.6068
  280OCT    H32 7264   3.714   0.865   0.974 -1.8012 -1.0296  0.7923
  280OCT     C4 7265   3.906   0.876   0.852 -0.1836 -0.4692  0.1692
  280OCT    H41 7266   3.882   0.976   0.790 -2.1301  0.6352  2.1049
  280OCT    H42 7267   4.010   0.866   0.871 -1.7270  1.7276 -1.1055
  280OCT     C5 7268   3.865   0.771   0.753 -0.1164  0.0003 -0.1485
  280OCT    H51 7269   3.888   0.673   0.803  1.6659 -1.3756 -1.8442
  280OCT    H52 7270   3.759   0.765   0.730  2.2529 -0.6323 -0.2603
  280OCT     C6 7271   3.941   0.766   0.619 -0.0733 -0.1769  0.6725
  280OCT    H61 7272   3.938   0.872   0.572  3.3982  1.0961 -3.4350
  280OCT    H62 7273   4.043   0.744   0.649 -0.7032 -1.6210  0.2645
  280OCT     C7 7274   3.897   0.657   0.516  0.1524  0.8348 -0.3379
  280OCT    H71 7275   3.794   0.688   0.503  1.2927 -3.0763  1.4405
  280OCT    H72 7276   3.953   0.673   0.422 -1.3168 -0.3342  0.0725
  280OCT     C8 7277   3.917   0.518   0.579  0.0194 -0.5149  0.5172
  280OCT    H81 7278   3.865   0.500   0.675  1.4753  0.5933  1.3025
  280OCT    H82 7279   3.890   0.432   0.513  1.6541 -1.0031 -2.2570
  280OCT    H83 7280   4.024   0.502   0.604  0.2683  2.9810  0.1602
  281OCT     C1 7281   0.350   1.318   1.046  0.5806 -0.3559 -0.2394
  281OCT    H11 7282   0.416   1.401   1.090  3.2071  0.7275 -1.2766
  281OCT    H12 7283   0.297   1.270   1.125  1.9433  1.6878 -2.9368
  281OCT    H13 7284   0.413   1.239   1.005  0.5973 -1.3276 -0.0211
  281OCT     C2 7285   0.265   1.374   0.937 -0.5640  0.5710  0.0685
  281OCT    H21 7286   0.331   1.440   0.875  0.8707 -0.4707 -0.9643
  281OCT    H22 7287   0.236   1.289   0.869  2.9716 -4.1137 -2.0107
  281OCT     C3 7288   0.136   1.452   0.987  0.4576  0.2450 -0.2540
  281OCT    H31 7289   0.063   1.376   1.044 -1.5105 -3.0917  3.1634
  281OCT    H32 7290   0.169   1.532   1.055  1.9128 -0.3485 -2.8714
  281OCT     C4 7291   0.050   1.506   0.880  0.3606  0.2924 -0.9828
  281OCT    H41 7292   0.113   1.577   0.815 -1.6254  1.3303  1.3058
  281OCT    H42 7293   0.025   1.423   0.809  0.1373  2.2418 -1.7753
  281OCT     C5 7294  -0.071   1.583   0.921  0.1271  0.6137  0.0315
  281OCT    H51 7295  -0.146   1.522   0.966  1.5431  2.0955 -2.4022
  281OCT    H52 7296  -0.048   1.671   0.982 -0.8404 -0.0186 -2.3171
  281OCT     C6 7297  -0.144   1.643   0.791  0.2285 -0.3035  0.4393
  281OCT    H61 7298  -0.065   1.675   0.714 -1.0762  1.0325 -1.4470
  281OCT    H62 7299  -0.215   1.566   0.752  0.1221 -1.4156  0.5665
  281OCT     C7 7300  -0.222   1.773   0.812 -0.2762  0.3510  0.0504
  281OCT    H71 7301  -0.152   1.853   0.833 -0.2365  1.2796  1.5055
  281OCT    H72 7302  -0.272   1.816   0.731  1.6996 -0.9035  1.7787
  281OCT     C8 7303  -0.310   1.779   0.933 -0.2797  0.5788  0.7293
  281OCT    H81 7304  -0.271   1.742   1.031 -0.0268 -1.9457  0.3963
  281OCT    H82 7305  -0.342   1.884   0.950  0.1231  2.8816 -0.0448
  281OCT    H83 7306  -0.401   1.716   0.921  1.7648 -2.3701 -0.2455
  282OCT     C1 7307   2.725   4.341   1.661 -0.6736 -0.8266 -0.3770
  282OCT    H11 7308   2.761   4.440   1.706 -0.9275  1.5588 -3.2123
  282OCT    H12 7309   2.761   4.326   1.554  2.6437  0.2180 -1.7586
  282OCT    H13 7310   2.618   4.353   1.658  0.1383  2.9179  1.9432
  282OCT     C2 7311   2.765   4.217   1.740  0.2857 -0.1562 -0.0269
  282OCT    H21 7312   2.714   4.229   1.849 -3.5577  0.8979  3.0258
  282OCT    H22 7313   2.732   4.123   1.691 -0.7331 -0.3138 -0.5237
  282OCT     C3 7314   2.915   4.215   1.769  0.3694  0.3251  0.3150
  282OCT    H31 7315   2.937   4.316   1.818  1.1380  1.8568  2.2102
  282OCT    H32 7316   2.932   4.132   1.852 -1.1624  0.3233  0.8226
  282OCT     C4 7317   3.009   4.196   1.652  0.0991  0.1208  0.1204
  282OCT    H41 7318   3.010   4.095   1.605  0.4103  0.1096 -0.9202
  282OCT    H42 7319   2.979   4.259   1.569  0.1762  2.3312  0.8351
  282OCT     C5 7320   3.158   4.223   1.688 -0.0803 -0.4200  0.0200
  282OCT    H51 7321   3.193   4.165   1.777  0.8228  1.2417 -0.8097
  282OCT    H52 7322   3.214   4.196   1.603 -2.1355  0.7483  0.1531
  282OCT     C6 7323   3.190   4.371   1.717  0.0692  0.3454 -0.4599
  282OCT    H61 7324   3.201   4.429   1.624  1.0156  2.1972 -1.8914
  282OCT    H62 7325   3.103   4.417   1.775 -2.5944  0.1398  3.3670
  282OCT     C7 7326   3.307   4.403   1.809 -0.0886 -0.5596 -0.0129
  282OCT    H71 7327   3.292   4.342   1.901  1.9700 -0.1354 -0.6858
  282OCT    H72 7328   3.392   4.367   1.756 -0.9742  0.9507 -0.0874
  282OCT     C8 7329   3.323   4.551   1.844 -0.4815  0.0158 -0.1875
  282OCT    H81 7330   3.223   4.593   1.844 -0.4200 -0.6250  0.0754
  282OCT    H82 7331   3.371   4.576   1.944 -0.0371  0.4987 -0.6873
  282OCT    H83 7332   3.371   4.601   1.759 -2.9110  1.9767 -2.2132
  283OCT     C1 7333   1.265   2.712   3.929 -0.6111  0.4606  0.3176
  283OCT    H11 7334   1.363   2.763   3.899  0.0857 -0.7273 -0.2070
  283OCT    H12 7335   1.289   2.600   3.925  0.4537 -1.3076 -2.0222
  283OCT    H13 7336   1.191   2.740   3.854 -0.9309 -1.0483  1.1756
  283OCT     C2 7337   1.241   2.766   4.072 -0.0701  0.1801 -0.1489
  283OCT    H21 7338   1.319   2.729   4.134 -1.8518 -1.5381 -1.4258
  283OCT    H22 7339   1.246   2.876   4.075  1.0718  0.5151  0.0310
  283OCT     C3 7340   1.107   2.709   4.127 -0.3892 -0.0434 -0.3589
  283OCT    H31 7341   1.036   2.724   4.046 -0.2240  1.8217 -0.9793
  283OCT    H32 7342   1.120   2.605   4.155  0.3503  0.8003  0.3454
  283OCT     C4 7343   1.064   2.783   4.255  0.5328  0.2350 -0.3960
  283OCT    H41 7344   1.131   2.759   4.342  1.9031  2.7960  1.6226
  283OCT    H42 7345   1.078   2.894   4.238 -2.2640 -0.7813 -1.8768
  283OCT     C5 7346   0.913   2.765   4.276  0.4105 -0.6748 -0.6457
  283OCT    H51 7347   0.866   2.809   4.188  0.4576  0.8594  1.5099
  283OCT    H52 7348   0.879   2.664   4.267 -1.2578  4.0029 -0.8577
  283OCT     C6 7349   0.843   2.818   4.405 -0.2492  0.1586 -0.0474
  283OCT    H61 7350   0.884   2.743   4.483  0.4393 -1.7691 -0.6929
  283OCT    H62 7351   0.873   2.921   4.421  0.1635 -1.8332  0.8196
  283OCT     C7 7352   0.692   2.819   4.396  0.0961 -0.0705 -0.0724
  283OCT    H71 7353   0.652   2.853   4.499 -2.8666 -0.0401  1.4284
  283OCT    H72 7354   0.667   2.881   4.307 -0.2012 -2.4562 -0.3513
  283OCT     C8 7355   0.627   2.688   4.354  0.2982 -0.2615 -0.3756
  283OCT    H81 7356   0.664   2.608   4.417  1.2432 -0.2691 -4.2818
  283OCT    H82 7357   0.522   2.712   4.360  2.5523  1.2926 -1.4077
  283OCT    H83 7358   0.651   2.658   4.248  1.8992  1.2035 -2.2527
  284OCT     C1 7359   2.869   1.329   3.585 -0.0913 -0.3524  0.1219
  284OCT    H11 7360   2.924   1.336   3.489 -0.7106 -0.4255  0.3637
  284OCT    H12 7361   2.830   1.223   3.608 -0.6334  0.9668 -0.1674
  284OCT    H13 7362   2.771   1.380   3.573  0.1284  0.2008  2.0562
  284OCT     C2 7363   2.957   1.375   3.708 -0.2044  0.7701 -0.0340
  284OCT    H21 7364   3.059   1.343   3.696 -2.1479 -0.4775 -0.4212
  284OCT    H22 7365   2.963   1.482   3.710 -1.0229 -0.0602  2.4403
  284OCT     C3 7366   2.909   1.325   3.846 -0.6140  0.1384 -0.0537
  284OCT    H31 7367   2.818   1.373   3.877 -0.3450  0.6532  0.4551
  284OCT    H32 7368   2.890   1.218   3.832 -0.1948  1.9080 -0.8363
  284OCT     C4 7369   3.006   1.351   3.965  0.2662 -0.0582  0.1040
  284OCT    H41 7370   2.944   1.317   4.054 -0.0564  0.2845  0.2756
  284OCT    H42 7371   3.094   1.287   3.951 -0.5084  0.6946 -2.9258
  284OCT     C5 7372   3.040   1.500   3.981 -0.3782  0.4256  0.1571
  284OCT    H51 7373   3.097   1.531   3.887 -1.0654  0.9074 -1.7779
  284OCT    H52 7374   2.954   1.574   3.994  2.2560  0.5424 -0.2227
  284OCT     C6 7375   3.127   1.527   4.111  0.1084 -0.2906 -0.1589
  284OCT    H61 7376   3.090   1.481   4.200 -0.3608  1.1592 -2.3051
  284OCT    H62 7377   3.227   1.484   4.094 -0.7304  0.1889 -0.6991
  284OCT     C7 7378   3.153   1.677   4.131  0.1362  0.5529  0.2235
  284OCT    H71 7379   3.051   1.724   4.131  0.7049  1.7183  0.4286
  284OCT    H72 7380   3.214   1.689   4.224  1.0552 -1.3437 -2.5662
  284OCT     C8 7381   3.232   1.751   4.020 -0.4782 -0.0470 -0.2690
  284OCT    H81 7382   3.339   1.711   4.008 -1.4154 -2.8752 -2.3407
  284OCT    H82 7383   3.179   1.732   3.927 -1.2678  1.7874 -0.2564
  284OCT    H83 7384   3.222   1.860   4.017 -3.2325 -1.2711 -0.8583
  285OCT     C1 7385   1.210   2.411   3.737  0.2693 -0.6509  0.4145
  285OCT    H11 7386   1.292   2.335   3.734 -1.4349 -2.0025  1.7870
  285OCT    H12 7387   1.158   2.421   3.634  1.4825  1.4659 -0.8634
  285OCT    H13 7388   1.258   2.509   3.759 -0.3359 -0.7356  0.3064
  285OCT     C2 7389   1.105   2.371   3.840  0.0354  0.1457 -0.0086
  285OCT    H21 7390   1.087   2.264   3.841 -0.8129 -0.3655  1.8488
  285OCT    H22 7391   1.146   2.389   3.945  1.5205  1.3304  0.9450
  285OCT     C3 7392   0.973   2.453   3.840  0.4847  0.1979  0.0662
  285OCT    H31 7393   0.987   2.563   3.842 -0.2914  0.9166 -0.5241
  285OCT    H32 7394   0.919   2.424   3.742 -1.7637 -1.9287 -1.9799
  285OCT     C4 7395   0.884   2.421   3.960 -0.1779 -0.0875 -0.5438
  285OCT    H41 7396   0.876   2.309   3.966 -0.0521 -0.2205 -0.5101
  285OCT    H42 7397   0.933   2.458   4.051 -2.6135  0.7232 -0.7317
  285OCT     C5 7398   0.747   2.486   3.951  0.0283  0.1358 -0.8155
  285OCT    H51 7399   0.686   2.456   4.045  1.1742  1.2438 -2.2279
  285OCT    H52 7400   0.759   2.590   3.931 -0.9370 -3.7142 -0.8917
  285OCT     C6 7401   0.655   2.428   3.836 -0.5295  0.2319 -0.0906
  285OCT    H61 7402   0.703   2.439   3.734  2.6500 -0.5784  0.1113
  285OCT    H62 7403   0.652   2.316   3.851  1.6555  1.5715 -3.2947
  285OCT     C7 7404   0.518   2.483   3.831  0.5457 -0.3430 -0.4344
  285OCT    H71 7405   0.469   2.476   3.933 -0.1057 -0.2783  0.2197
  285OCT    H72 7406   0.534   2.595   3.815 -2.1919  1.9290 -1.0817
  285OCT     C8 7407   0.421   2.427   3.729 -0.0177  0.8053 -0.8325
  285OCT    H81 7408   0.330   2.493   3.744 -0.1826  2.4408 -0.7236
  285OCT    H82 7409   0.457   2.432   3.624 -0.8330 -2.3994 -2.3664
  285OCT    H83 7410   0.392   2.324   3.757  4.1840  0.1007  3.7493
  286OCT     C1 7411   0.613   0.337   4.360 -0.1785 -0.8032  0.0391
  286OCT    H11 7412   0.536   0.274   4.411  0.1052 -1.8308 -2.1328
  286OCT    H12 7413   0.686   0.366   4.431 -1.3924 -3.3693 -1.8408
  286OCT    H13 7414   0.568   0.431   4.319  0.9194  0.2281 -1.1646
  286OCT     C2 7415   0.679   0.248   4.256 -0.2322 -1.0335 -0.5350
  286OCT    H21 7416   0.720   0.154   4.302 -0.9624 -1.4465 -1.0264
  286OCT    H22 7417   0.610   0.216   4.169  0.2472 -1.0488 -0.4637
  286OCT     C3 7418   0.792   0.320   4.179 -0.0405 -0.4035  0.2671
  286OCT    H31 7419   0.837   0.387   4.250  0.8267  1.0100 -1.7226
  286OCT    H32 7420   0.877   0.256   4.152 -0.1979 -2.8078  3.0096
  286OCT     C4 7421   0.743   0.402   4.064 -0.2971  0.1690  0.2744
  286OCT    H41 7422   0.660   0.345   4.009  0.7136 -1.5910 -0.7454
  286OCT    H42 7423   0.707   0.499   4.097 -1.4019 -2.6686  0.5762
  286OCT     C5 7424   0.850   0.439   3.958 -0.4646  0.2156  0.3234
  286OCT    H51 7425   0.926   0.498   4.016 -1.4620 -0.5123  2.3735
  286OCT    H52 7426   0.907   0.352   3.933  0.2496 -0.6520  1.1098
  286OCT     C6 7427   0.798   0.536   3.851 -0.2549 -0.2195  0.4759
  286OCT    H61 7428   0.798   0.641   3.900  1.3269 -1.1035  1.0438
  286OCT    H62 7429   0.883   0.528   3.776  1.6820 -2.2921  1.1410
  286OCT     C7 7430   0.668   0.494   3.780 -0.1866  0.0096  0.4545
  286OCT    H71 7431   0.651   0.380   3.763  1.5420 -2.4503 -1.2978
  286OCT    H72 7432   0.588   0.528   3.854  0.1869  3.2739  1.6036
  286OCT     C8 7433   0.650   0.564   3.648 -0.7991  0.5554  0.3374
  286OCT    H81 7434   0.641   0.675   3.657 -1.6346  0.9291  1.4930
  286OCT    H82 7435   0.736   0.536   3.579 -0.8116 -0.6019 -2.1259
  286OCT    H83 7436   0.550   0.527   3.618  2.9537 -1.3260  2.6540
  287OCT     C1 7437   4.305   2.482   4.261  0.1998 -0.3661  0.1682
  287OCT    H11 7438   4.310   2.376   4.305  1.2274  0.8511  0.5518
  287OCT    H12 7439   4.211   2.516   4.204 -0.9224  0.8339 -1.6984
  287OCT    H13 7440   4.391   2.487   4.188  1.2612  0.7975  0.3474
  287OCT     C2 7441   4.332   2.576   4.379  1.0986  0.6191 -0.5004
  287OCT    H21 7442   4.441   2.591   4.392  0.6977  1.3719  0.1947
  287OCT    H22 7443   4.278   2.675   4.358 -0.8533 -1.7287 -3.3501
  287OCT     C3 7444   4.283   2.518   4.515 -0.0194 -0.7654  0.2040
  287OCT    H31 7445   4.331   2.423   4.545 -1.3334 -0.3197 -0.1119
  287OCT    H32 7446   4.307   2.603   4.585 -3.2245  4.1659 -0.8253
  287OCT     C4 7447   4.128   2.488   4.522  0.2823  0.0859  0.2080
  287OCT    H41 7448   4.076   2.581   4.499  0.3052  0.4880  1.2355
  287OCT    H42 7449   4.084   2.402   4.453 -0.8582 -1.4483 -1.5153
  287OCT     C5 7450   4.088   2.429   4.657  0.3152  0.1840  0.1150
  287OCT    H51 7451   3.986   2.396   4.649  0.1773  1.2500 -0.0360
  287OCT    H52 7452   4.150   2.337   4.678 -0.0590  1.0155  0.1313
  287OCT     C6 7453   4.101   2.533   4.771 -0.6219 -0.5253 -0.8682
  287OCT    H61 7454   4.052   2.494   4.861  0.9003  0.9506 -0.3526
  287OCT    H62 7455   4.212   2.538   4.796  0.4964 -2.8264 -0.0167
  287OCT     C7 7456   4.050   2.671   4.744  0.1418 -0.0077 -0.0886
  287OCT    H71 7457   4.089   2.717   4.649 -1.7409 -0.0362 -0.0087
  287OCT    H72 7458   3.940   2.672   4.727 -0.6964  3.9632  3.6951
  287OCT     C8 7459   4.093   2.763   4.858 -0.0980 -1.3200  0.1314
  287OCT    H81 7460   4.201   2.771   4.858  0.2488  0.4728  0.2937
  287OCT    H82 7461   4.037   2.858   4.846 -0.2217  1.7457 -1.8753
  287OCT    H83 7462   4.062   2.714   4.954  0.8691 -0.9157 -0.6063
  288OCT     C1 7463   3.221   2.475   1.811 -0.0957  0.0322 -0.1277
  288OCT    H11 7464   3.265   2.377   1.796  0.3667  0.0175 -1.9127
  288OCT    H12 7465   3.281   2.533   1.883 -0.4651  1.5556 -0.4571
  288OCT    H13 7466   3.127   2.472   1.859  0.3632 -0.6421 -3.3474
  288OCT     C2 7467   3.215   2.548   1.677 -0.4463 -1.5977  0.5046
  288OCT    H21 7468   3.321   2.552   1.622  2.3236 -2.0955  1.8491
  288OCT    H22 7469   3.152   2.502   1.607  1.8857  1.5085 -0.3915
  288OCT     C3 7470   3.168   2.696   1.683  0.3344  0.8270  0.4449
  288OCT    H31 7471   3.071   2.700   1.736  1.5212 -1.3798  2.7891
  288OCT    H32 7472   3.228   2.756   1.749 -0.3194 -2.1659 -0.4673
  288OCT     C4 7473   3.174   2.763   1.542  0.0702  0.2147 -0.2704
  288OCT    H41 7474   3.283   2.797   1.524 -0.7672 -0.3741 -0.0131
  288OCT    H42 7475   3.166   2.693   1.467  1.9626  1.1864 -0.9252
  288OCT     C5 7476   3.074   2.873   1.519 -0.0798  0.3687  0.0672
  288OCT    H51 7477   3.081   2.902   1.413  0.7942 -2.2675  1.5076
  288OCT    H52 7478   2.963   2.847   1.524 -2.9250 -0.9873 -0.7757
  288OCT     C6 7479   3.099   2.987   1.616 -0.3326  0.0678  0.4995
  288OCT    H61 7480   3.044   2.981   1.709  2.4798  2.1920 -0.9926
  288OCT    H62 7481   3.209   2.988   1.634  1.3634 -0.1923  2.4712
  288OCT     C7 7482   3.059   3.118   1.559 -0.5470  1.0315 -0.4473
  288OCT    H71 7483   3.114   3.137   1.467  0.9811 -1.1319  1.0019
  288OCT    H72 7484   2.947   3.105   1.542 -2.2948 -2.4131  0.7151
  288OCT     C8 7485   3.083   3.237   1.658  0.7255  0.1093  0.2059
  288OCT    H81 7486   3.045   3.331   1.616 -0.0487 -2.8098 -0.3816
  288OCT    H82 7487   3.050   3.206   1.761  0.1566 -1.5568 -1.0223
  288OCT    H83 7488   3.190   3.258   1.671 -1.5672  0.9675  0.1803
  289OCT     C1 7489   4.179   1.395   1.309  0.9983  0.2715  0.4509
  289OCT    H11 7490   4.229   1.460   1.244 -0.4391 -1.1367  0.8824
  289OCT    H12 7491   4.235   1.384   1.404 -2.1683 -0.5430 -2.5944
  289OCT    H13 7492   4.172   1.301   1.246 -4.2726  0.8676  0.0144
  289OCT     C2 7493   4.036   1.444   1.333  0.6954  0.8523 -0.1686
  289OCT    H21 7494   3.979   1.374   1.406 -0.5440 -1.5286  1.7814
  289OCT    H22 7495   4.041   1.538   1.393  1.0175  0.7408 -2.0826
  289OCT     C3 7496   3.952   1.482   1.211 -0.0243 -0.0739 -0.2014
  289OCT    H31 7497   3.868   1.550   1.240 -1.3089 -1.0351  0.0451
  289OCT    H32 7498   4.020   1.540   1.147 -1.7734  2.3991  0.8632
  289OCT     C4 7499   3.869   1.369   1.151 -0.0454  0.6097  0.0800
  289OCT    H41 7500   3.931   1.282   1.111  0.1002 -0.0198 -2.6623
  289OCT    H42 7501   3.805   1.327   1.234  1.7811  0.3568  1.3150
  289OCT     C5 7502   3.775   1.396   1.032  0.2502  0.9924  0.1069
  289OCT    H51 7503   3.817   1.484   0.992  0.4316 -1.2196  0.5635
  289OCT    H52 7504   3.771   1.317   0.954 -0.1454  2.3563  2.0002
  289OCT     C6 7505   3.637   1.442   1.068  0.1423  0.1374 -0.3265
  289OCT    H61 7506   3.584   1.364   1.124 -0.1191  3.4621  0.7742
  289OCT    H62 7507   3.644   1.527   1.141  0.3108  3.0815 -1.1738
  289OCT     C7 7508   3.552   1.516   0.966 -0.6007 -0.4682  0.6463
  289OCT    H71 7509   3.535   1.445   0.879 -3.2804  1.1537 -1.3934
  289OCT    H72 7510   3.450   1.533   1.008 -1.5529 -1.8784 -0.0823
  289OCT     C8 7511   3.615   1.646   0.915 -0.7629 -0.2785  0.1537
  289OCT    H81 7512   3.713   1.641   0.870  0.0518 -0.6251  0.9641
  289OCT    H82 7513   3.539   1.693   0.840  0.3183  2.3169  0.8149
  289OCT    H83 7514   3.613   1.716   0.998 -0.3776 -0.8110  2.6881
  290OCT     C1 7515   4.117   2.665   2.845 -0.0090 -0.0741 -0.1463
  290OCT    H11 7516   4.021   2.664   2.901 -0.2100 -0.0190 -1.0524
  290OCT    H12 7517   4.168   2.568   2.860 -0.9950 -0.8194  0.6812
  290OCT    H13 7518   4.177   2.754   2.873 -0.7103  0.2030  1.7012
  290OCT     C2 7519   4.077   2.684   2.697  0.5635 -0.7359  0.1018
  290OCT    H21 7520   3.993   2.611   2.670  0.4431 -1.2072  0.8095
  290OCT    H22 7521   4.046   2.792   2.680 -0.3557  0.8816 -0.7897
  290OCT     C3 7522   4.202   2.665   2.609 -0.4117  0.2271  0.0164
  290OCT    H31 7523   4.283   2.716   2.653  0.4802  0.9970 -0.2289
  290OCT    H32 7524   4.243   2.567   2.587  1.4394 -1.1683  1.1036
  290OCT     C4 7525   4.195   2.725   2.472  0.4409 -0.3621 -0.0462
  290OCT    H41 7526   4.121   2.663   2.416 -1.3940  3.1170 -0.1810
  290OCT    H42 7527   4.153   2.831   2.487 -2.2976  0.7791  0.6654
  290OCT     C5 7528   4.320   2.741   2.389  0.1372  0.0854  0.0443
  290OCT    H51 7529   4.384   2.803   2.457 -0.8794  2.0984 -0.5705
  290OCT    H52 7530   4.382   2.654   2.355  1.2756  0.7707 -1.0532
  290OCT     C6 7531   4.289   2.829   2.265  0.2403 -0.1907 -0.6480
  290OCT    H61 7532   4.210   2.772   2.207 -1.2579 -1.0448 -2.0397
  290OCT    H62 7533   4.225   2.910   2.305  1.9498 -1.3994 -1.8203
  290OCT     C7 7534   4.399   2.890   2.182 -0.0935  0.9396 -0.3678
  290OCT    H71 7535   4.462   2.811   2.149 -3.7252  0.8029 -1.2687
  290OCT    H72 7536   4.364   2.935   2.079 -0.1272  1.5729 -0.0010
  290OCT     C8 7537   4.489   2.997   2.253 -0.0362  0.4733 -0.0143
  290OCT    H81 7538   4.425   3.086   2.270 -0.0825 -0.7121  2.2181
  290OCT    H82 7539   4.547   2.971   2.338 -0.4338 -0.5557  0.3743
  290OCT    H83 7540   4.581   3.015   2.185 -0.3389 -1.2686  0.8040
  291OCT     C1 7541   4.137   0.736   2.281 -0.1208 -0.5421 -0.1162
  291OCT    H11 7542   4.042   0.679   2.253 -1.9350 -2.7606  1.4017
  291OCT    H12 7543   4.154   0.811   2.198  1.8882 -1.2656  1.1672
  291OCT    H13 7544   4.223   0.672   2.283 -0.0942 -0.7815 -1.0151
  291OCT     C2 7545   4.138   0.806   2.417 -0.1501 -0.0983  0.2854
  291OCT    H21 7546   4.109   0.741   2.502 -1.0852 -0.9509  0.8945
  291OCT    H22 7547   4.236   0.849   2.447  2.0588 -1.5185  1.6403
  291OCT     C3 7548   4.042   0.927   2.424 -0.1986 -0.2816  0.4661
  291OCT    H31 7549   4.050   0.976   2.322 -0.3517 -1.7327  0.0143
  291OCT    H32 7550   3.936   0.897   2.441  2.0773  1.1697  0.4212
  291OCT     C4 7551   4.057   1.031   2.535 -0.0125  0.2678  0.3410
  291OCT    H41 7552   4.038   0.983   2.632 -0.8216  0.0379  0.2943
  291OCT    H42 7553   4.160   1.075   2.531  0.9101 -0.6248 -2.7026
  291OCT     C5 7554   3.962   1.155   2.532 -0.6000 -0.5394  0.9351
  291OCT    H51 7555   3.983   1.233   2.454 -2.4363  3.1539 -2.9242
  291OCT    H52 7556   3.864   1.119   2.507  0.6364  1.2830  0.6148
  291OCT     C6 7557   3.925   1.206   2.674 -0.3293 -0.0225 -0.5850
  291OCT    H61 7558   3.888   1.117   2.732  0.4109  1.8038 -0.0448
  291OCT    H62 7559   4.018   1.238   2.727  0.4953 -0.6221  0.3267
  291OCT     C7 7560   3.825   1.324   2.676  0.5298 -0.1756 -0.0871
  291OCT    H71 7561   3.865   1.397   2.602  0.1596 -1.5751 -2.1856
  291OCT    H72 7562   3.730   1.275   2.635  1.0750  0.2497  0.3096
  291OCT     C8 7563   3.802   1.388   2.811 -0.2843  0.3215 -0.5751
  291OCT    H81 7564   3.701   1.435   2.818 -1.0189 -0.1476  0.9838
  291OCT    H82 7565   3.808   1.309   2.888 -2.6410 -0.4142  1.0494
  291OCT    H83 7566   3.879   1.468   2.832  0.8970  1.4865  0.2370
  292OCT     C1 7567   1.775   3.803   3.527 -0.9810  0.7114  0.3730
  292OCT    H11 7568   1.765   3.700   3.497 -3.5023  1.5194 -0.8977
  292OCT    H12 7569   1.672   3.840   3.528 -2.1684 -1.7494 -1.6395
  292OCT    H13 7570   1.830   3.863   3.445  0.0490  0.1319 -1.3015
  292OCT     C2 7571   1.843   3.827   3.663 -0.0987 -0.1158  0.1386
  292OCT    H21 7572   1.851   3.940   3.680  0.8880 -1.1511  1.5890
  292OCT    H22 7573   1.767   3.789   3.741 -0.9711 -4.0008 -0.7627
  292OCT     C3 7574   1.991   3.780   3.680  0.3305  0.2601  0.1981
  292OCT    H31 7575   2.022   3.798   3.785 -2.1505 -0.3467 -1.0735
  292OCT    H32 7576   1.985   3.667   3.666 -0.1361 -0.9040  1.1600
  292OCT     C4 7577   2.097   3.843   3.590  0.5437 -0.4355  0.4779
  292OCT    H41 7578   2.066   3.817   3.487 -0.6718 -0.4789  1.3798
  292OCT    H42 7579   2.091   3.955   3.601  0.1208  1.1503  2.5014
  292OCT     C5 7580   2.234   3.788   3.622  0.1499 -0.1796  0.4178
  292OCT    H51 7581   2.261   3.821   3.727  0.3479  1.1098  2.2206
  292OCT    H52 7582   2.247   3.677   3.626  1.8301 -0.0259  0.6106
  292OCT     C6 7583   2.346   3.834   3.530  0.7607 -0.2213 -0.0502
  292OCT    H61 7584   2.314   3.798   3.419 -1.8160 -0.7424 -2.1411
  292OCT    H62 7585   2.345   3.944   3.530 -4.1808 -2.0495 -1.4029
  292OCT     C7 7586   2.483   3.776   3.560 -0.0304  0.0614  0.1475
  292OCT    H71 7587   2.482   3.665   3.557  0.1838  0.0322  0.4167
  292OCT    H72 7588   2.551   3.805   3.471  1.1282  2.1253 -0.1696
  292OCT     C8 7589   2.546   3.810   3.697  0.3979  0.1673 -0.6322
  292OCT    H81 7590   2.655   3.801   3.711 -1.9273 -1.2636 -0.9392
  292OCT    H82 7591   2.512   3.914   3.712  1.3079 -0.3883 -0.6235
  292OCT    H83 7592   2.504   3.754   3.777  0.3792  2.3230 -2.6997
  293OCT     C1 7593   1.817   3.431   1.268 -0.6182  0.0400  0.1664
  293OCT    H11 7594   1.771   3.455   1.372  1.4616 -1.8204  0.6501
  293OCT    H12 7595   1.739   3.390   1.203 -0.2060  0.7106 -0.4430
  293OCT    H13 7596   1.892   3.354   1.274  1.2842  0.5596 -0.8234
  293OCT     C2 7597   1.876   3.566   1.214 -0.2971  0.5240  0.7437
  293OCT    H21 7598   1.806   3.642   1.217  2.4371  0.2255 -2.2641
  293OCT    H22 7599   1.962   3.596   1.277  2.4587 -0.1805  1.1784
  293OCT     C3 7600   1.950   3.542   1.082 -0.5152  0.4377 -0.4488
  293OCT    H31 7601   2.015   3.448   1.076 -0.8480 -2.9898 -2.6154
  293OCT    H32 7602   1.877   3.518   1.008  2.7170  0.7150  0.3972
  293OCT     C4 7603   2.060   3.650   1.047  0.2908 -0.0582  0.3311
  293OCT    H41 7604   2.130   3.653   1.130 -1.4465 -0.3935 -0.7088
  293OCT    H42 7605   2.117   3.609   0.959 -1.4837  1.0087 -1.0805
  293OCT     C5 7606   1.998   3.785   1.019 -0.0299  0.1338  0.4839
  293OCT    H51 7607   1.917   3.768   0.940 -0.0130 -0.7372 -2.6446
  293OCT    H52 7608   1.946   3.806   1.118  2.6226 -0.5994  0.0783
  293OCT     C6 7609   2.101   3.893   0.991 -0.3714 -0.7750  0.4293
  293OCT    H61 7610   2.162   3.915   1.083 -1.9385 -1.2999  1.4670
  293OCT    H62 7611   2.170   3.862   0.905  2.8237  0.9773 -0.9480
  293OCT     C7 7612   2.028   4.021   0.940 -0.1090  0.1448 -0.0304
  293OCT    H71 7613   1.951   3.991   0.858  1.1662 -0.6543 -1.3708
  293OCT    H72 7614   1.968   4.052   1.033  1.2363  1.9413  6.3049
  293OCT     C8 7615   2.112   4.131   0.888 -0.0653  0.0054  0.3383
  293OCT    H81 7616   2.044   4.204   0.843 -1.0878 -1.2624  1.4205
  293OCT    H82 7617   2.172   4.175   0.971  0.3579  0.3234  1.3372
  293OCT    H83 7618   2.184   4.103   0.806  2.9175 -0.1416  1.7504
  294OCT     C1 7619   2.388   1.247   0.175 -0.4836  0.1035  0.2706
  294OCT    H11 7620   2.421   1.326   0.249 -0.3543  1.5061  0.7254
  294OCT    H12 7621   2.446   1.267   0.085  0.0052  0.9081  1.4073
  294OCT    H13 7622   2.278   1.262   0.157 -1.3476 -1.1060 -1.3855
  294OCT     C2 7623   2.413   1.113   0.237  0.0507 -0.4486  0.2628
  294OCT    H21 7624   2.382   1.116   0.347  3.3022  2.9426  2.1465
  294OCT    H22 7625   2.353   1.033   0.181  1.8499 -1.1825 -4.4693
  294OCT     C3 7626   2.563   1.088   0.251  0.4365  0.2932 -0.5221
  294OCT    H31 7627   2.574   0.994   0.310 -0.8630  2.0574 -0.4839
  294OCT    H32 7628   2.607   1.066   0.150  1.8926 -0.2277  1.7443
  294OCT     C4 7629   2.650   1.195   0.316 -1.3012  0.9721  0.6289
  294OCT    H41 7630   2.649   1.294   0.258 -0.2753 -0.1022 -2.4484
  294OCT    H42 7631   2.614   1.219   0.418  1.3429 -0.1162  1.8312
  294OCT     C5 7632   2.791   1.136   0.327 -0.1469  0.0559 -0.3386
  294OCT    H51 7633   2.808   1.079   0.234 -3.7278 -1.8324 -3.7929
  294OCT    H52 7634   2.860   1.217   0.320 -0.2155 -0.6056 -2.5905
  294OCT     C6 7635   2.810   1.057   0.453  0.8102  0.0802 -1.2055
  294OCT    H61 7636   2.804   1.137   0.538 -0.4319 -0.2339  2.0515
  294OCT    H62 7637   2.732   0.978   0.479 -0.4822 -0.6519 -0.6344
  294OCT     C7 7638   2.946   0.985   0.452 -0.3050 -0.0230  0.2429
  294OCT    H71 7639   2.934   0.882   0.419  0.6628  1.6112  3.9663
  294OCT    H72 7640   3.008   1.053   0.388 -1.6744 -0.8266 -0.6266
  294OCT     C8 7641   3.007   0.982   0.589 -0.5713 -0.3444  0.1740
  294OCT    H81 7642   2.999   1.083   0.628 -0.4143 -0.2425 -0.7940
  294OCT    H82 7643   2.947   0.911   0.650  1.2900 -1.7544 -0.7610
  294OCT    H83 7644   3.117   0.958   0.589  1.8457 -2.9562  1.6604
  295OCT     C1 7645   2.414   2.970   3.033  0.4107 -0.7295 -0.0113
  295OCT    H11 7646   2.404   2.885   3.102 -0.5107 -3.6395 -0.0186
  295OCT    H12 7647   2.413   2.929   2.935  1.5508 -0.7129  4.0686
  295OCT    H13 7648   2.511   3.023   3.041  1.9532  0.9723 -2.8732
  295OCT     C2 7649   2.298   3.068   3.053  0.1650  0.4764  0.2428
  295OCT    H21 7650   2.304   3.105   3.159 -1.4666 -1.9205 -0.9387
  295OCT    H22 7651   2.308   3.150   2.979 -2.1207 -0.0017 -0.3264
  295OCT     C3 7652   2.157   3.002   3.036 -0.2876 -0.1517 -0.1227
  295OCT    H31 7653   2.085   3.074   2.986  2.4472  1.7402 -3.1629
  295OCT    H32 7654   2.164   2.915   2.966  0.6529  0.2537  3.2545
  295OCT     C4 7655   2.094   2.948   3.169 -0.7724  0.0371  0.6058
  295OCT    H41 7656   2.157   2.862   3.202 -2.0994 -0.9706  1.3399
  295OCT    H42 7657   2.082   3.028   3.247 -1.2257  0.9987 -2.3192
  295OCT     C5 7658   1.959   2.889   3.148 -0.1490 -0.4348 -0.4168
  295OCT    H51 7659   1.895   2.970   3.114  0.5675 -3.0452  1.3187
  295OCT    H52 7660   1.956   2.808   3.077  0.9973  0.9158  1.8040
  295OCT     C6 7661   1.896   2.835   3.280 -0.5750 -0.8580 -0.2470
  295OCT    H61 7662   1.938   2.731   3.313 -0.9581 -0.7834 -0.3317
  295OCT    H62 7663   1.907   2.912   3.364  0.6748 -2.0976  0.4833
  295OCT     C7 7664   1.743   2.825   3.266  0.2526 -0.6433  0.6861
  295OCT    H71 7665   1.718   2.754   3.185 -0.1340  0.3862  1.0772
  295OCT    H72 7666   1.710   2.778   3.360  2.0274 -0.0960  1.1237
  295OCT     C8 7667   1.658   2.956   3.256 -0.1350 -0.1087  0.3793
  295OCT    H81 7668   1.680   3.021   3.340 -0.0082 -1.3915  0.1416
  295OCT    H82 7669   1.689   3.009   3.165  0.0836  0.4174  0.3654
  295OCT    H83 7670   1.553   2.918   3.253 -0.7949 -0.0255 -1.3750
  296OCT     C1 7671   2.110   2.402   0.526 -0.8775  0.2479 -0.4389
  296OCT    H11 7672   2.091   2.400   0.414 -1.3751  3.6602  0.8753
  296OCT    H12 7673   2.104   2.511   0.557 -1.8874  1.2455 -1.0473
  296OCT    H13 7674   2.223   2.367   0.538  2.6996  0.5931 -0.2659
  296OCT     C2 7675   2.016   2.307   0.598 -0.2231 -0.5285 -0.1100
  296OCT    H21 7676   2.032   2.313   0.713 -0.8504  1.3377  1.9504
  296OCT    H22 7677   1.911   2.338   0.577  0.2107 -2.0227 -2.4132
  296OCT     C3 7678   2.033   2.162   0.546 -0.0421  0.2031 -0.0302
  296OCT    H31 7679   1.966   2.090   0.602 -1.1491 -0.3976  0.3286
  296OCT    H32 7680   2.022   2.163   0.433  0.9498 -1.8562 -0.4022
  296OCT     C4 7681   2.178   2.107   0.573 -0.3846  0.0448  0.4391
  296OCT    H41 7682   2.250   2.168   0.519 -1.0173 -0.1553  0.0673
  296OCT    H42 7683   2.199   2.130   0.679 -1.1532 -0.8610 -0.2684
  296OCT     C5 7684   2.199   1.963   0.533  0.0902  0.2771  0.3674
  296OCT    H51 7685   2.124   1.901   0.590  0.9981 -1.7379 -2.2379
  296OCT    H52 7686   2.174   1.940   0.424 -1.3823 -3.2070 -1.2869
  296OCT     C6 7687   2.342   1.905   0.566  0.1926  0.1176  1.1421
  296OCT    H61 7688   2.350   1.800   0.536 -2.8642  1.7811 -0.8056
  296OCT    H62 7689   2.423   1.963   0.524 -0.3645  0.9233  1.1928
  296OCT     C7 7690   2.377   1.898   0.719  0.3006  0.2075 -0.1708
  296OCT    H71 7691   2.388   1.997   0.759  2.5187 -0.1791 -0.3074
  296OCT    H72 7692   2.290   1.840   0.761 -2.1256 -0.9506 -1.2883
  296OCT     C8 7693   2.508   1.820   0.757 -0.0890 -0.2518  0.0406
  296OCT    H81 7694   2.589   1.820   0.685  4.3656 -0.1414  1.7512
  296OCT    H82 7695   2.546   1.852   0.863 -1.5107  1.6091  2.3465
  296OCT    H83 7696   2.480   1.710   0.760 -1.2550  0.9431  0.8183
  297OCT     C1 7697   0.489   0.076   0.481 -0.3903  0.8172 -0.2621
  297OCT    H11 7698   0.478   0.184   0.446  2.6120  2.2672  0.6439
  297OCT    H12 7699   0.566   0.031   0.414 -2.6855  0.4781 -2.3286
  297OCT    H13 7700   0.405   0.010   0.458  1.2896 -2.3911  0.5238
  297OCT     C2 7701   0.522   0.051   0.630 -0.2377 -0.4720  0.0621
  297OCT    H21 7702   0.601   0.128   0.666 -1.5141  1.2610  0.0646
  297OCT    H22 7703   0.430   0.075   0.699 -1.8882 -0.9600  1.2176
  297OCT     C3 7704   0.584  -0.087   0.668 -0.1980  0.4384 -0.3204
  297OCT    H31 7705   0.513  -0.166   0.646  0.5872 -0.5351 -1.8058
  297OCT    H32 7706   0.673  -0.092   0.609 -2.0391 -0.3905  0.3706
  297OCT     C4 7707   0.617  -0.111   0.813 -0.2905  0.3982 -0.5786
  297OCT    H41 7708   0.677  -0.025   0.847 -2.4805  1.4299 -2.2294
  297OCT    H42 7709   0.523  -0.114   0.877 -1.8581 -0.3672  0.9761
  297OCT     C5 7710   0.712  -0.235   0.845  0.3774  0.0392  0.3785
  297OCT    H51 7711   0.783  -0.260   0.764 -2.2557 -2.7383 -1.0701
  297OCT    H52 7712   0.757  -0.211   0.941  0.0264  0.1563 -2.2315
  297OCT     C6 7713   0.638  -0.358   0.883  0.3329 -0.1967  0.5578
  297OCT    H61 7714   0.718  -0.423   0.923  0.2262  0.4230  1.4715
  297OCT    H62 7715   0.570  -0.343   0.971  0.7472 -1.7876  1.8945
  297OCT     C7 7716   0.562  -0.438   0.775 -0.2461 -0.1383  0.2387
  297OCT    H71 7717   0.483  -0.375   0.726 -0.4269 -1.5781  2.0103
  297OCT    H72 7718   0.629  -0.468   0.694 -0.7641 -0.1690  1.3724
  297OCT     C8 7719   0.502  -0.563   0.845 -0.9736  0.3350 -0.1873
  297OCT    H81 7720   0.589  -0.621   0.881  2.7181  0.4942  0.1176
  297OCT    H82 7721   0.433  -0.543   0.932  0.8468  0.7235 -1.9477
  297OCT    H83 7722   0.437  -0.614   0.772 -0.2325  2.3705 -0.8355
  298OCT     C1 7723   1.252   0.471   0.831 -0.1998 -0.2298 -0.3586
  298OCT    H11 7724   1.239   0.372   0.785 -1.1249 -1.0271  0.0449
  298OCT    H12 7725   1.152   0.499   0.872 -3.1382 -2.1251  0.2828
  298OCT    H13 7726   1.281   0.527   0.749 -0.4388 -3.5882  2.4404
  298OCT     C2 7727   1.363   0.463   0.941  0.5350 -0.3850 -0.5289
  298OCT    H21 7728   1.378   0.563   0.985  0.8797 -0.9855  1.0712
  298OCT    H22 7729   1.335   0.401   1.032 -1.1404  0.4247  0.1729
  298OCT     C3 7730   1.503   0.425   0.888 -1.0537 -0.0051 -0.5362
  298OCT    H31 7731   1.571   0.407   0.981 -2.1022 -0.9423  0.3894
  298OCT    H32 7732   1.497   0.336   0.829  2.7671 -0.5842  0.0984
  298OCT     C4 7733   1.580   0.538   0.810 -0.4726  0.0626 -0.0626
  298OCT    H41 7734   1.526   0.562   0.719  1.0468  2.0528 -0.1601
  298OCT    H42 7735   1.595   0.626   0.863 -0.5796 -3.0086 -3.9755
  298OCT     C5 7736   1.721   0.497   0.761 -0.4805 -0.6167 -0.2445
  298OCT    H51 7737   1.781   0.483   0.852 -0.5113  0.3739 -0.1360
  298OCT    H52 7738   1.720   0.404   0.706  0.8452  1.1249 -1.9595
  298OCT     C6 7739   1.785   0.608   0.665 -0.0712 -0.1331  0.0156
  298OCT    H61 7740   1.714   0.636   0.585  0.4771 -0.3284 -0.4324
  298OCT    H62 7741   1.800   0.699   0.732  1.2079  1.9039 -1.1913
  298OCT     C7 7742   1.912   0.571   0.596  0.9436 -0.3986 -0.5009
  298OCT    H71 7743   1.941   0.660   0.533  0.1851  0.4784 -0.6605
  298OCT    H72 7744   1.987   0.558   0.678  0.0468  1.4516  1.0393
  298OCT     C8 7745   1.895   0.445   0.498  0.3952  0.1501  0.0363
  298OCT    H81 7746   1.845   0.362   0.551  0.0641  0.5255  0.4048
  298OCT    H82 7747   1.831   0.462   0.417 -0.2960 -1.7039  1.1485
  298OCT    H83 7748   1.989   0.401   0.461 -1.8929 -0.7308 -0.3853
  299OCT     C1 7749   0.270   0.440   0.107  0.0948  0.2732 -0.3771
  299OCT    H11 7750   0.207   0.482   0.023 -1.0285 -1.3080  0.8873
  299OCT    H12 7751   0.312   0.355   0.056 -1.2189 -0.1672 -0.8757
  299OCT    H13 7752   0.201   0.397   0.191  0.2594 -2.8416 -0.7378
  299OCT     C2 7753   0.384   0.528   0.156 -0.0146  0.5482  0.1677
  299OCT    H21 7754   0.471   0.478   0.204 -1.0788  1.5457  3.0076
  299OCT    H22 7755   0.419   0.596   0.069 -0.1434  2.6770 -0.7467
  299OCT     C3 7756   0.324   0.623   0.266  0.5990 -0.1187 -0.1502
  299OCT    H31 7757   0.213   0.641   0.254  0.2072  0.9803  3.3303
  299OCT    H32 7758   0.337   0.568   0.360  0.7470  0.2949 -0.2346
  299OCT     C4 7759   0.397   0.764   0.275 -0.6549  0.1697 -0.1143
  299OCT    H41 7760   0.509   0.752   0.260  2.8231 -1.6660 -2.1361
  299OCT    H42 7761   0.363   0.836   0.199 -1.5756  3.6571  1.0829
  299OCT     C5 7762   0.378   0.823   0.411  0.6332  0.4207 -0.1363
  299OCT    H51 7763   0.269   0.841   0.422  1.9604  0.0289  0.1157
  299OCT    H52 7764   0.411   0.745   0.486  0.4131 -0.6665 -0.2425
  299OCT     C6 7765   0.456   0.948   0.431  0.7008  0.3987 -0.3873
  299OCT    H61 7766   0.561   0.921   0.451 -1.8087  0.2179 -1.1097
  299OCT    H62 7767   0.455   1.010   0.337 -2.1956  2.2307 -1.5598
  299OCT     C7 7768   0.402   1.040   0.548  0.1201  0.4346  0.0488
  299OCT    H71 7769   0.433   1.142   0.542 -0.6826 -4.2127 -1.8638
  299OCT    H72 7770   0.290   1.033   0.532  0.4489 -1.2375  1.2017
  299OCT     C8 7771   0.442   0.991   0.692 -0.4547 -0.1785  0.9912
  299OCT    H81 7772   0.550   0.993   0.712 -0.6493 -1.3298 -0.7888
  299OCT    H82 7773   0.378   1.040   0.768 -0.7532  2.6277 -2.1359
  299OCT    H83 7774   0.413   0.883   0.695 -3.3853 -1.5470  1.9227
  300OCT     C1 7775   0.802   3.943   3.793 -0.6490  0.0709  0.3370
  300OCT    H11 7776   0.820   3.930   3.896 -2.6563  1.1094 -0.9039
  300OCT    H12 7777   0.705   3.995   3.776 -1.5604 -0.2245  1.6955
  300OCT    H13 7778   0.805   3.837   3.755 -0.1165 -2.2754 -0.9867
  300OCT     C2 7779   0.908   4.010   3.712  0.1518 -0.7651  0.4531
  300OCT    H21 7780   0.923   4.117   3.745  1.0285  0.1521 -1.2086
  300OCT    H22 7781   1.004   3.965   3.746 -2.2231 -0.1206  3.0740
  300OCT     C3 7782   0.890   4.029   3.561  0.3410 -0.2047 -0.2648
  300OCT    H31 7783   0.908   3.925   3.527 -1.8726 -1.2503  1.9481
  300OCT    H32 7784   0.787   4.071   3.546  1.3230  0.4187 -0.2526
  300OCT     C4 7785   0.979   4.131   3.502 -0.0963 -0.6519  0.1308
  300OCT    H41 7786   0.961   4.235   3.550 -1.0768 -0.2333  0.0086
  300OCT    H42 7787   1.082   4.100   3.520  0.0415 -0.6278 -0.1068
  300OCT     C5 7788   0.967   4.161   3.352 -0.1803 -0.2200 -0.2403
  300OCT    H51 7789   1.025   4.247   3.333 -0.1690 -1.5475 -1.0431
  300OCT    H52 7790   1.015   4.079   3.291 -1.6590 -0.2295 -1.3473
  300OCT     C6 7791   0.822   4.198   3.311  0.1510 -0.3123 -0.6609
  300OCT    H61 7792   0.767   4.103   3.331  1.6723 -0.1313  2.6588
  300OCT    H62 7793   0.783   4.269   3.381  2.1671 -1.6496 -1.2272
  300OCT     C7 7794   0.799   4.233   3.169  0.3009 -0.2080  0.2248
  300OCT    H71 7795   0.794   4.135   3.115 -0.7057  0.2758  0.0657
  300OCT    H72 7796   0.696   4.274   3.160  0.6478 -0.3255  1.7889
  300OCT     C8 7797   0.891   4.336   3.097  0.0947 -0.2589  0.1157
  300OCT    H81 7798   0.856   4.440   3.123  0.5694  1.5836  1.5702
  300OCT    H82 7799   0.996   4.323   3.119  1.2413 -0.8594 -3.7704
  300OCT    H83 7800   0.881   4.321   2.984 -0.6906  0.1999  1.2265
  301OCT     C1 7801   3.918   1.300   4.143  0.1539  0.1529  0.0679
  301OCT    H11 7802   3.937   1.199   4.111 -2.0652  0.9173  0.2411
  301OCT    H12 7803   3.860   1.300   4.234  2.4687  0.4621  0.7315
  301OCT    H13 7804   3.856   1.339   4.059  1.6507 -2.2655 -0.0761
  301OCT     C2 7805   4.038   1.388   4.159  0.2888 -0.3434 -0.3049
  301OCT    H21 7806   4.008   1.494   4.161  0.7634 -0.4704  2.0577
  301OCT    H22 7807   4.087   1.368   4.254 -0.6001 -1.1196 -0.6576
  301OCT     C3 7808   4.148   1.358   4.054  0.1950  0.8003 -0.6231
  301OCT    H31 7809   4.113   1.386   3.956  0.5789 -0.0691  0.7872
  301OCT    H32 7810   4.236   1.421   4.081  0.4409  0.6194  0.5896
  301OCT     C4 7811   4.188   1.213   4.054 -0.5546  1.0177 -0.4750
  301OCT    H41 7812   4.222   1.179   4.152 -1.4009  0.7525 -0.2393
  301OCT    H42 7813   4.119   1.137   4.022 -0.9105 -0.5448 -0.7096
  301OCT     C5 7814   4.305   1.190   3.953  0.4701  0.3673 -0.1653
  301OCT    H51 7815   4.282   1.248   3.861 -0.2260  0.0821  0.2751
  301OCT    H52 7816   4.395   1.232   3.995 -1.1363 -0.1583  0.4918
  301OCT     C6 7817   4.320   1.042   3.905 -0.0002  0.2699  0.4666
  301OCT    H61 7818   4.217   1.009   3.875 -0.5116 -1.8798  1.2045
  301OCT    H62 7819   4.386   1.049   3.815  0.2268  1.0162 -0.3684
  301OCT     C7 7820   4.380   0.954   4.009 -0.6766  0.7574 -0.9823
  301OCT    H71 7821   4.489   0.981   4.031  1.9520 -1.6913  0.3792
  301OCT    H72 7822   4.329   0.961   4.114 -3.6301 -0.6331  0.4073
  301OCT     C8 7823   4.380   0.805   3.966 -0.2126  0.1424 -0.1936
  301OCT    H81 7824   4.277   0.778   3.934  0.9217  0.7571  1.1852
  301OCT    H82 7825   4.450   0.800   3.874 -1.8935 -1.9708 -0.2987
  301OCT    H83 7826   4.414   0.740   4.047  2.6117  1.5652 -1.4178
  302OCT     C1 7827   4.293   4.361   0.711 -0.5685 -0.9370 -0.6147
  302OCT    H11 7828   4.338   4.460   0.716 -1.3145  0.0816 -0.5908
  302OCT    H12 7829   4.341   4.293   0.781  0.8420  0.8838  0.6376
  302OCT    H13 7830   4.328   4.327   0.608  0.9301 -3.1762 -0.8782
  302OCT     C2 7831   4.143   4.363   0.731  0.2166 -0.0589 -0.5724
  302OCT    H21 7832   4.098   4.257   0.742  0.1751 -1.3237 -0.7154
  302OCT    H22 7833   4.111   4.419   0.824 -0.2750  1.4675  0.9373
  302OCT     C3 7834   4.061   4.435   0.619  0.0216 -0.2923  0.1806
  302OCT    H31 7835   4.122   4.525   0.595 -0.4213  0.7776  0.9051
  302OCT    H32 7836   4.063   4.370   0.537 -0.0960  1.6080  1.8782
  302OCT     C4 7837   3.918   4.460   0.651  0.8857  0.5950  0.2993
  302OCT    H41 7838   3.871   4.365   0.686 -1.5998  4.6022 -3.1117
  302OCT    H42 7839   3.909   4.536   0.729 -3.1628  0.6820 -2.0958
  302OCT     C5 7840   3.832   4.511   0.535  0.0491  0.2755  0.2966
  302OCT    H51 7841   3.883   4.597   0.492  0.9272 -0.1181 -0.7271
  302OCT    H52 7842   3.814   4.429   0.461 -0.1460 -0.3399 -1.2640
  302OCT     C6 7843   3.684   4.554   0.565  0.1548  0.1678  0.1987
  302OCT    H61 7844   3.638   4.467   0.616 -1.6345 -1.0856 -1.9341
  302OCT    H62 7845   3.683   4.643   0.633 -0.1184 -0.1752 -0.3152
  302OCT     C7 7846   3.606   4.617   0.449  0.0608  0.7534  0.8624
  302OCT    H71 7847   3.532   4.685   0.498  1.4223 -1.9640  0.7627
  302OCT    H72 7848   3.665   4.678   0.377  0.2145  1.2824  1.2835
  302OCT     C8 7849   3.522   4.516   0.361  0.6688 -0.5276 -0.3589
  302OCT    H81 7850   3.431   4.560   0.319  1.8615 -0.7002  1.9137
  302OCT    H82 7851   3.592   4.479   0.280  2.5762  0.7657  0.2302
  302OCT    H83 7852   3.492   4.431   0.421  4.7434  2.0183 -0.3136
  303OCT     C1 7853   1.439   3.768   0.428  0.6274  0.6989 -0.4812
  303OCT    H11 7854   1.478   3.673   0.466  0.7120  0.8330 -0.3561
  303OCT    H12 7855   1.338   3.761   0.474 -0.8591 -0.5537  0.3581
  303OCT    H13 7856   1.428   3.773   0.314 -1.2991  3.7097 -1.0567
  303OCT     C2 7857   1.509   3.898   0.466 -0.0876 -0.4219  0.2330
  303OCT    H21 7858   1.452   3.979   0.417  0.4578 -0.1209  0.2011
  303OCT    H22 7859   1.501   3.911   0.580 -2.9961 -0.8212 -0.8634
  303OCT     C3 7860   1.656   3.909   0.425 -0.6943  0.6138 -0.1656
  303OCT    H31 7861   1.721   3.828   0.468 -0.5346 -0.1380 -0.9943
  303OCT    H32 7862   1.664   3.908   0.314 -1.2309  1.3862 -0.1409
  303OCT     C4 7863   1.717   4.041   0.474 -0.0725 -0.2307  0.2176
  303OCT    H41 7864   1.658   4.128   0.433  1.8109  0.6342  1.8541
  303OCT    H42 7865   1.689   4.035   0.584 -2.3150 -2.1431 -0.4391
  303OCT     C5 7866   1.866   4.041   0.450  0.0646  0.0933  0.7893
  303OCT    H51 7867   1.920   3.959   0.509 -1.4244 -2.1608  3.0425
  303OCT    H52 7868   1.885   4.042   0.340 -0.6832  1.6782 -0.2027
  303OCT     C6 7869   1.923   4.168   0.514  0.2197 -0.1324  0.3233
  303OCT    H61 7870   1.881   4.257   0.469  0.6096  0.1423 -0.0833
  303OCT    H62 7871   1.894   4.154   0.620  2.3719 -0.2041 -0.8300
  303OCT     C7 7872   2.071   4.177   0.515  0.1790 -0.0826  0.3496
  303OCT    H71 7873   2.102   4.095   0.580  0.2430 -0.3346 -0.9364
  303OCT    H72 7874   2.114   4.167   0.413  1.1670 -1.1631  0.1338
  303OCT     C8 7875   2.123   4.312   0.561 -0.8621 -0.2532 -0.1470
  303OCT    H81 7876   2.073   4.402   0.524  3.0615 -1.2452  0.5712
  303OCT    H82 7877   2.119   4.328   0.668  0.0924 -1.9449 -0.5725
  303OCT    H83 7878   2.228   4.308   0.534 -0.8806 -0.6921 -0.3930
  304OCT     C1 7879   1.598   1.516   3.620 -0.4945  0.0527 -0.3643
  304OCT    H11 7880   1.621   1.412   3.587  3.5883 -1.7826  0.3239
  304OCT    H12 7881   1.666   1.548   3.704 -2.3911  1.0334 -0.3607
  304OCT    H13 7882   1.492   1.525   3.646 -0.8205 -3.6066 -0.6191
  304OCT     C2 7883   1.626   1.602   3.495  0.0646  0.6691 -0.1329
  304OCT    H21 7884   1.624   1.704   3.524  0.0199 -0.3495 -1.7241
  304OCT    H22 7885   1.729   1.567   3.472 -2.7448 -2.4200  0.5900
  304OCT     C3 7886   1.520   1.578   3.387  0.5342 -0.0969  0.3909
  304OCT    H31 7887   1.516   1.470   3.364  1.8920 -0.6279 -2.6295
  304OCT    H32 7888   1.419   1.607   3.425  0.5964  1.5597  2.7349
  304OCT     C4 7889   1.540   1.648   3.249 -0.4578  0.2436  0.1372
  304OCT    H41 7890   1.530   1.760   3.242  0.0538  1.0177 -2.7872
  304OCT    H42 7891   1.648   1.629   3.226  2.2244  3.0900  2.7593
  304OCT     C5 7892   1.445   1.586   3.139  0.1205  0.5111 -0.0430
  304OCT    H51 7893   1.453   1.474   3.132  0.4744 -1.5972 -0.3241
  304OCT    H52 7894   1.346   1.613   3.151  2.3838 -0.2713 -1.0788
  304OCT     C6 7895   1.478   1.640   3.002 -0.4544  0.1263  0.4234
  304OCT    H61 7896   1.451   1.745   3.011  3.6858 -1.2108  0.4273
  304OCT    H62 7897   1.583   1.630   2.979 -0.4154  0.8682 -1.0454
  304OCT     C7 7898   1.385   1.583   2.896 -0.2511 -0.0761  0.6531
  304OCT    H71 7899   1.416   1.476   2.877 -1.6048  0.9284  0.0182
  304OCT    H72 7900   1.279   1.579   2.943 -0.6855 -0.1860  3.3616
  304OCT     C8 7901   1.377   1.661   2.772  0.2298  0.4794  0.3411
  304OCT    H81 7902   1.376   1.767   2.783 -1.5269 -2.9261 -2.6212
  304OCT    H82 7903   1.466   1.645   2.723 -3.8866  0.6038 -0.7440
  304OCT    H83 7904   1.292   1.624   2.710  1.5423 -3.3181  0.2898
  305OCT     C1 7905   1.123   0.904   3.547  0.9882  0.4142 -0.4331
  305OCT    H11 7906   1.154   0.930   3.444 -0.5709 -0.2710  0.0205
  305OCT    H12 7907   1.061   0.986   3.587 -1.0285 -2.2739  1.9095
  305OCT    H13 7908   1.213   0.879   3.610 -0.1237 -2.4157  0.2771
  305OCT     C2 7909   1.030   0.780   3.545  0.5807  0.4220  0.2077
  305OCT    H21 7910   1.013   0.742   3.647  2.5401  0.9918 -0.5681
  305OCT    H22 7911   0.927   0.820   3.515 -2.0040 -0.9412 -0.5918
  305OCT     C3 7912   1.067   0.669   3.448  0.2596  0.1517 -0.0580
  305OCT    H31 7913   1.176   0.632   3.461  0.5250 -2.1790 -0.3417
  305OCT    H32 7914   1.001   0.582   3.470  1.1388  0.4480  0.6259
  305OCT     C4 7915   1.070   0.702   3.301  0.1877 -0.0092  0.2557
  305OCT    H41 7916   1.166   0.754   3.289 -0.7412  0.7641  0.7064
  305OCT    H42 7917   1.081   0.609   3.247 -0.1795  2.6141 -2.3756
  305OCT     C5 7918   0.943   0.772   3.243 -0.2416  0.0359 -0.1940
  305OCT    H51 7919   0.927   0.875   3.290 -0.0828  0.7198 -0.1323
  305OCT    H52 7920   0.960   0.800   3.139  0.5181 -0.0248  1.0564
  305OCT     C6 7921   0.805   0.699   3.263  0.0128  0.4430 -0.4285
  305OCT    H61 7922   0.820   0.605   3.200 -1.9002 -0.8006  0.9936
  305OCT    H62 7923   0.797   0.671   3.371  2.6178 -0.4780 -0.7022
  305OCT     C7 7924   0.681   0.769   3.210 -0.2214 -0.5567 -0.4085
  305OCT    H71 7925   0.680   0.865   3.263 -0.1336 -2.5510 -0.3629
  305OCT    H72 7926   0.707   0.786   3.105  0.8165 -1.2281  0.4320
  305OCT     C8 7927   0.544   0.703   3.222 -0.3411  0.4962  0.4534
  305OCT    H81 7928   0.457   0.774   3.218  1.6943 -0.6578  0.8720
  305OCT    H82 7929   0.527   0.639   3.135  0.1443  1.2068 -0.7817
  305OCT    H83 7930   0.536   0.637   3.307  1.5011  0.2168 -1.3484
  306OCT     C1 7931   1.568   0.154   3.996 -0.6927  0.8993  0.3689
  306OCT    H11 7932   1.528   0.057   3.951 -0.2961 -1.1151 -0.5390
  306OCT    H12 7933   1.495   0.227   3.989  0.2508 -3.1223  0.0604
  306OCT    H13 7934   1.645   0.193   3.924 -0.9819 -0.5458  0.1329
  306OCT     C2 7935   1.630   0.119   4.131 -0.2979 -0.3766 -0.4335
  306OCT    H21 7936   1.689   0.203   4.179 -1.0769  1.9971  1.8488
  306OCT    H22 7937   1.544   0.100   4.197 -1.0265 -0.5521  0.6822
  306OCT     C3 7938   1.719  -0.010   4.138  0.3265 -0.2184 -0.8002
  306OCT    H31 7939   1.744  -0.020   4.247 -1.7113  0.4706 -0.9176
  306OCT    H32 7940   1.656  -0.102   4.128 -0.5770  0.4602  2.7445
  306OCT     C4 7941   1.839  -0.016   4.049 -0.0791  0.2910  0.9367
  306OCT    H41 7942   1.803  -0.030   3.938 -0.1403  1.9619 -1.3190
  306OCT    H42 7943   1.905   0.079   4.065  2.0750 -0.6493  0.9314
  306OCT     C5 7944   1.931  -0.132   4.075  0.3727 -0.1205 -0.6726
  306OCT    H51 7945   1.977  -0.120   4.178  1.8888  3.6686 -0.1863
  306OCT    H52 7946   1.860  -0.219   4.067 -0.4700 -0.8070 -0.7834
  306OCT     C6 7947   2.047  -0.137   3.969 -0.3822 -0.4668 -0.4759
  306OCT    H61 7948   2.008  -0.136   3.861 -0.2160 -3.5990  0.9173
  306OCT    H62 7949   2.107  -0.042   3.983  1.4581  2.1487 -0.8009
  306OCT     C7 7950   2.133  -0.262   3.983 -0.6429  0.0711 -0.1116
  306OCT    H71 7951   2.194  -0.253   4.074  0.4702 -1.0109  1.3123
  306OCT    H72 7952   2.063  -0.351   3.996 -2.7263  0.9486  0.0853
  306OCT     C8 7953   2.226  -0.297   3.864  0.0259  0.1790 -0.1915
  306OCT    H81 7954   2.298  -0.376   3.891  0.8222  1.5714 -1.5455
  306OCT    H82 7955   2.171  -0.335   3.778  0.9803 -0.4983 -0.3812
  306OCT    H83 7956   2.285  -0.208   3.829 -0.7072 -1.5026  0.5669
  307OCT     C1 7957   3.235   1.726   0.785 -0.0511  0.0409  0.1631
  307OCT    H11 7958   3.159   1.661   0.824  0.2660  1.4372  0.0271
  307OCT    H12 7959   3.295   1.677   0.701 -0.5580 -3.7146 -0.2647
  307OCT    H13 7960   3.306   1.740   0.868  1.6803 -1.5362 -1.6387
  307OCT     C2 7961   3.163   1.859   0.741 -0.7041  0.8707 -0.4718
  307OCT    H21 7962   3.102   1.837   0.652  0.9409  1.8567  1.3397
  307OCT    H22 7963   3.087   1.882   0.822 -0.1444 -2.0081  0.2772
  307OCT     C3 7964   3.262   1.979   0.726  0.1179  0.2407  0.0978
  307OCT    H31 7965   3.200   2.074   0.717 -0.3337 -1.9149  1.1924
  307OCT    H32 7966   3.328   2.000   0.810  0.0449  0.4758 -0.8662
  307OCT     C4 7967   3.343   1.983   0.599 -0.2409 -0.0136  0.0580
  307OCT    H41 7968   3.425   1.910   0.613  0.8187  2.3349 -1.1235
  307OCT    H42 7969   3.289   1.958   0.508  1.6440 -0.9332  1.8229
  307OCT     C5 7970   3.417   2.116   0.590  0.0620 -0.1146 -0.0545
  307OCT    H51 7971   3.333   2.185   0.615 -0.1871  0.5330  1.3165
  307OCT    H52 7972   3.500   2.132   0.663 -0.9611 -2.0288 -1.0902
  307OCT     C6 7973   3.469   2.138   0.449  0.4948 -0.3124 -0.5120
  307OCT    H61 7974   3.540   2.056   0.441 -0.6715 -1.0790  1.8443
  307OCT    H62 7975   3.387   2.113   0.374 -3.3906  0.9951 -1.6707
  307OCT     C7 7976   3.527   2.282   0.414  0.3972  0.9382  0.0747
  307OCT    H71 7977   3.447   2.355   0.411  0.5858 -2.0180  1.0780
  307OCT    H72 7978   3.605   2.312   0.488  1.1335  0.4685  0.7997
  307OCT     C8 7979   3.583   2.279   0.273  0.1769 -0.2798  0.1275
  307OCT    H81 7980   3.661   2.202   0.250  1.2888 -0.0347 -0.0428
  307OCT    H82 7981   3.491   2.260   0.206 -0.0307 -0.0606  1.1478
  307OCT    H83 7982   3.637   2.376   0.252  2.5521  0.9498 -0.7683
  308OCT     C1 7983   0.815   2.287   1.954  0.0286  0.5242  0.1124
  308OCT    H11 7984   0.736   2.231   1.893 -1.3045  1.3869  1.1422
  308OCT    H12 7985   0.793   2.288   2.064  1.5469  0.8669 -0.8460
  308OCT    H13 7986   0.830   2.390   1.922  2.1116 -0.5591  1.2147
  308OCT     C2 7987   0.935   2.197   1.930 -0.3340 -0.2517  0.5736
  308OCT    H21 7988   0.950   2.183   1.821  1.3170  0.3821 -0.3630
  308OCT    H22 7989   1.019   2.247   1.979  3.8309  0.8652 -0.0147
  308OCT     C3 7990   0.911   2.061   2.005 -0.3136  0.1105 -0.4962
  308OCT    H31 7991   0.823   2.015   1.962 -2.0243  1.1453 -1.0443
  308OCT    H32 7992   1.004   2.003   1.972 -1.5947  0.4175  0.2148
  308OCT     C4 7993   0.916   2.066   2.165  0.1970  0.0733  0.5336
  308OCT    H41 7994   1.010   2.116   2.189  1.0542 -0.9017 -1.2873
  308OCT    H42 7995   0.830   2.124   2.211  1.4892  0.5773 -1.2920
  308OCT     C5 7996   0.922   1.932   2.245  0.3143  0.1387 -0.1398
  308OCT    H51 7997   0.817   1.892   2.253 -1.2156 -1.0845  0.4640
  308OCT    H52 7998   0.985   1.861   2.193 -1.7572  0.0028 -0.6772
  308OCT     C6 7999   0.975   1.943   2.390 -0.0298  0.1153 -0.0511
  308OCT    H61 8000   1.077   1.990   2.387 -0.9286  1.8754  1.4366
  308OCT    H62 8001   0.904   2.011   2.438  0.9731  1.3521 -1.5583
  308OCT     C7 8002   0.991   1.810   2.460  0.2764  0.0289  0.2147
  308OCT    H71 8003   0.886   1.776   2.489 -0.1457 -2.9526  1.8828
  308OCT    H72 8004   1.047   1.732   2.397  0.6969  0.3639  2.8531
  308OCT     C8 8005   1.085   1.806   2.578  0.0419  0.0642 -0.2388
  308OCT    H81 8006   1.092   1.701   2.606 -1.8092  0.1682  1.3080
  308OCT    H82 8007   1.181   1.841   2.550 -2.1993 -2.1430  1.5113
  308OCT    H83 8008   1.052   1.869   2.656 -0.6364 -0.3978 -2.2156
  309OCT     C1 8009   2.094   1.368   3.490  0.2683 -0.1339 -0.0373
  309OCT    H11 8010   1.991   1.336   3.451  0.9113 -0.0986 -1.4256
  309OCT    H12 8011   2.156   1.281   3.517  1.1237  1.8457 -1.7484
  309OCT    H13 8012   2.079   1.436   3.580  1.0369  1.6244  1.4031
  309OCT     C2 8013   2.177   1.436   3.372  0.1512  0.3217 -0.0707
  309OCT    H21 8014   2.205   1.369   3.292 -0.7507  0.8022  0.1971
  309OCT    H22 8015   2.123   1.520   3.338 -0.5994 -2.0407 -0.1868
  309OCT     C3 8016   2.300   1.501   3.438 -1.0459 -0.1809 -0.0482
  309OCT    H31 8017   2.273   1.562   3.525 -0.3085 -0.7838 -2.7684
  309OCT    H32 8018   2.367   1.421   3.476  0.3973 -0.6753 -3.8859
  309OCT     C4 8019   2.396   1.575   3.342 -0.4246 -0.2104 -0.6323
  309OCT    H41 8020   2.499   1.607   3.386  0.1267 -0.2446  1.3795
  309OCT    H42 8021   2.432   1.506   3.262  1.5365  0.9901  0.5314
  309OCT     C5 8022   2.326   1.696   3.282  0.0619  0.1330  0.2184
  309OCT    H51 8023   2.253   1.662   3.205  1.5651  1.6105  0.4350
  309OCT    H52 8024   2.287   1.753   3.365 -0.6164 -1.8913 -2.5960
  309OCT     C6 8025   2.419   1.799   3.210 -0.3391  0.4145 -0.0401
  309OCT    H61 8026   2.477   1.833   3.298 -0.6466  0.3630  0.1194
  309OCT    H62 8027   2.470   1.752   3.121  3.0621  0.7475  0.8988
  309OCT     C7 8028   2.335   1.918   3.156  0.0967  0.3721  0.4379
  309OCT    H71 8029   2.288   1.880   3.066  1.0781  0.3607  1.5343
  309OCT    H72 8030   2.249   1.927   3.221 -0.7105  2.0401 -0.0783
  309OCT     C8 8031   2.398   2.055   3.133 -0.5310  0.1927 -0.3982
  309OCT    H81 8032   2.469   2.078   3.211  0.8527  0.4811 -1.0368
  309OCT    H82 8033   2.466   2.048   3.051  1.0592 -0.1195  4.0445
  309OCT    H83 8034   2.323   2.127   3.112  0.9801 -3.2158  0.4646
  310OCT     C1 8035   3.869   3.546   3.828  0.0767  0.2735 -0.4860
  310OCT    H11 8036   3.951   3.612   3.798 -0.2794 -1.3260 -0.8341
  310OCT    H12 8037   3.781   3.603   3.866  1.3213 -4.0833  2.4769
  310OCT    H13 8038   3.904   3.484   3.913 -0.7752 -2.2565 -0.1013
  310OCT     C2 8039   3.810   3.451   3.720 -0.4512  0.1546 -0.5944
  310OCT    H21 8040   3.888   3.381   3.675  0.4826 -1.1905  0.0280
  310OCT    H22 8041   3.734   3.378   3.765 -0.9799  0.6800 -2.7088
  310OCT     C3 8042   3.720   3.518   3.613  0.0604  0.6285  0.3547
  310OCT    H31 8043   3.637   3.565   3.662  1.6878  0.6189  2.0493
  310OCT    H32 8044   3.783   3.594   3.560  0.5745 -1.1511  2.3447
  310OCT     C4 8045   3.656   3.429   3.508  0.2396 -0.3665  0.5917
  310OCT    H41 8046   3.736   3.394   3.437  0.9581  1.9124  0.2314
  310OCT    H42 8047   3.606   3.334   3.552 -1.6195 -1.7256  1.8481
  310OCT     C5 8048   3.552   3.505   3.424  0.2053 -0.1980  0.4573
  310OCT    H51 8049   3.482   3.563   3.485 -0.6979  1.4242 -1.9351
  310OCT    H52 8050   3.593   3.576   3.348 -0.8459 -0.0636 -1.6835
  310OCT     C6 8051   3.467   3.418   3.333  0.4039  0.4273  0.1942
  310OCT    H61 8052   3.518   3.383   3.243 -1.4350  1.6540 -1.6349
  310OCT    H62 8053   3.442   3.325   3.394  0.3967  0.2674 -0.0584
  310OCT     C7 8054   3.330   3.479   3.294  0.0107 -0.0402 -0.3595
  310OCT    H71 8055   3.263   3.397   3.256 -0.6066  1.1016 -1.4970
  310OCT    H72 8056   3.285   3.528   3.381 -0.0094  1.0867  1.4113
  310OCT     C8 8057   3.343   3.583   3.178 -0.2455  0.2491 -0.3177
  310OCT    H81 8058   3.327   3.526   3.080  1.6440 -0.0550  0.4438
  310OCT    H82 8059   3.275   3.667   3.189 -0.8784  0.6407  2.5663
  310OCT    H83 8060   3.436   3.638   3.170  1.7688 -2.3748 -2.6924
  311OCT     C1 8061   1.772   0.359   1.169 -0.1435 -0.5430  0.0853
  311OCT    H11 8062   1.710   0.278   1.217  1.7019 -2.6821  3.5038
  311OCT    H12 8063   1.757   0.361   1.056 -0.2966 -1.1028 -2.8628
  311OCT    H13 8064   1.874   0.329   1.180  0.1628  1.6134 -0.6844
  311OCT     C2 8065   1.741   0.495   1.237 -0.1060 -0.4368  0.4584
  311OCT    H21 8066   1.632   0.494   1.243  0.4198 -2.4478  0.7561
  311OCT    H22 8067   1.788   0.507   1.341  0.4486  0.9525 -0.8437
  311OCT     C3 8068   1.788   0.617   1.158 -0.7927 -0.1626  0.4744
  311OCT    H31 8069   1.897   0.610   1.152 -0.1196 -0.7015  0.5832
  311OCT    H32 8070   1.742   0.617   1.061 -0.4773 -2.1419 -0.0165
  311OCT     C4 8071   1.761   0.754   1.223  0.0552  0.3215  0.5799
  311OCT    H41 8072   1.649   0.773   1.227  0.9955 -1.2937 -0.0869
  311OCT    H42 8073   1.803   0.761   1.325  0.3661  2.3888 -1.2953
  311OCT     C5 8074   1.828   0.870   1.148 -0.2051 -0.5598  0.3359
  311OCT    H51 8075   1.937   0.857   1.144 -2.7859  0.5502  0.0453
  311OCT    H52 8076   1.786   0.877   1.043  0.4394  0.4651  0.3202
  311OCT     C6 8077   1.806   1.008   1.210  0.1302 -0.0317  1.4001
  311OCT    H61 8078   1.865   1.017   1.291 -2.2327 -0.3067 -1.2595
  311OCT    H62 8079   1.849   1.078   1.140  1.8349 -1.2992  0.6873
  311OCT     C7 8080   1.665   1.060   1.227  0.7553  0.3581 -0.8551
  311OCT    H71 8081   1.616   0.979   1.292  0.7860 -3.9955 -1.0867
  311OCT    H72 8082   1.672   1.156   1.281  0.5073 -1.0034  0.2345
  311OCT     C8 8083   1.578   1.063   1.097  0.5552 -0.2482  0.0772
  311OCT    H81 8084   1.600   1.155   1.041 -0.0045  1.4033  1.2081
  311OCT    H82 8085   1.585   0.969   1.035 -2.9366 -2.3128 -1.2748
  311OCT    H83 8086   1.476   1.077   1.130  2.7465  2.8573 -0.3309
  312OCT     C1 8087   3.454   0.371   1.370 -0.2533 -0.0807 -0.4140
  312OCT    H11 8088   3.440   0.361   1.264 -1.8503  1.3998  1.3456
  312OCT    H12 8089   3.376   0.440   1.417 -0.4536 -1.9004  3.4395
  312OCT    H13 8090   3.553   0.426   1.374 -1.5631  0.9527  0.0496
  312OCT     C2 8091   3.466   0.246   1.450  0.2557 -0.9862 -0.1863
  312OCT    H21 8092   3.563   0.201   1.442 -0.3362  1.4836  1.3605
  312OCT    H22 8093   3.462   0.279   1.553  2.8411 -0.4125  0.0681
  312OCT     C3 8094   3.359   0.147   1.431 -0.4576  1.1424 -0.2538
  312OCT    H31 8095   3.377   0.063   1.502  1.3965  1.5943 -2.5610
  312OCT    H32 8096   3.262   0.189   1.476 -1.1158 -0.1801 -2.1928
  312OCT     C4 8097   3.330   0.101   1.293 -0.0987 -0.1987 -1.1527
  312OCT    H41 8098   3.289   0.175   1.231 -1.5228 -2.6913  0.7858
  312OCT    H42 8099   3.422   0.070   1.242 -2.3454 -2.3565  2.7869
  312OCT     C5 8100   3.233  -0.013   1.303  0.2696 -0.0447 -0.5360
  312OCT    H51 8101   3.289  -0.105   1.340 -0.0802  0.2726  0.9004
  312OCT    H52 8102   3.153   0.018   1.376  0.3703  0.8673 -0.7803
  312OCT     C6 8103   3.171  -0.053   1.170 -0.5087 -0.0273  0.4505
  312OCT    H61 8104   3.134   0.035   1.120  0.4975  0.0943  0.4781
  312OCT    H62 8105   3.252  -0.103   1.107 -0.1557 -4.3347 -0.0316
  312OCT     C7 8106   3.074  -0.170   1.181  0.0961  0.5878 -0.1115
  312OCT    H71 8107   3.122  -0.234   1.261 -0.5745 -1.0014  1.0545
  312OCT    H72 8108   2.976  -0.137   1.215  1.0385 -2.3767 -0.2822
  312OCT     C8 8109   3.055  -0.250   1.050  0.1234  0.0646 -0.3781
  312OCT    H81 8110   3.000  -0.344   1.050  1.1152  0.7808  0.8349
  312OCT    H82 8111   2.999  -0.198   0.969 -1.5564 -0.8818 -1.2481
  312OCT    H83 8112   3.156  -0.280   1.029  2.3972  1.9160  1.0546
  313OCT     C1 8113   4.034   3.222   0.038  0.3891 -0.1465  0.2214
  313OCT    H11 8114   4.143   3.210   0.059 -1.1780 -0.2724  0.6887
  313OCT    H12 8115   4.010   3.317  -0.010 -1.8660 -1.7766 -0.4419
  313OCT    H13 8116   3.980   3.211   0.140 -0.4635 -1.1555  1.8972
  313OCT     C2 8117   3.998   3.103  -0.053 -0.3507 -0.1008 -0.2418
  313OCT    H21 8118   3.892   3.093  -0.077  2.4745 -1.2329  1.5573
  313OCT    H22 8119   4.058   3.097  -0.149 -0.7370 -0.0903  1.6603
  313OCT     C3 8120   4.044   2.971   0.013  0.6536  0.4510 -0.5368
  313OCT    H31 8121   4.149   2.973   0.042  3.8848  1.1794  1.4159
  313OCT    H32 8122   3.980   2.967   0.103 -0.0884 -0.6741 -4.0386
  313OCT     C4 8123   4.007   2.844  -0.071  0.1682 -0.5186 -0.3969
  313OCT    H41 8124   4.066   2.843  -0.163 -1.8703 -1.6885  0.1123
  313OCT    H42 8125   4.058   2.764  -0.018 -1.0584  0.3348 -2.6002
  313OCT     C5 8126   3.862   2.816  -0.091 -0.2108  0.5916  0.1346
  313OCT    H51 8127   3.790   2.842  -0.010  0.4294 -0.0669 -0.0763
  313OCT    H52 8128   3.836   2.881  -0.173  3.2638 -1.0488  1.2074
  313OCT     C6 8129   3.827   2.669  -0.129 -0.1000 -0.2950  0.4343
  313OCT    H61 8130   3.831   2.662  -0.243  0.7973 -2.7516 -1.9889
  313OCT    H62 8131   3.912   2.609  -0.115 -1.9429  0.9796 -0.2741
  313OCT     C7 8132   3.707   2.621  -0.052  0.1242 -0.1288 -0.2707
  313OCT    H71 8133   3.727   2.638   0.053 -0.6628  0.2785 -3.5559
  313OCT    H72 8134   3.621   2.683  -0.076  1.0408 -0.8743  0.4471
  313OCT     C8 8135   3.659   2.477  -0.071  0.3434  0.7663 -0.7604
  313OCT    H81 8136   3.737   2.413  -0.025  0.8000 -2.3752  1.8264
  313OCT    H82 8137   3.559   2.452  -0.021 -1.4599  0.3306 -1.7344
  313OCT    H83 8138   3.637   2.449  -0.178 -3.2437  0.9490 -3.9986
  314OCT     C1 8139   1.814   1.572   4.266 -0.2586  0.1681 -0.0239
  314OCT    H11 8140   1.739   1.514   4.214  1.2240  1.6644  1.4162
  314OCT    H12 8141   1.908   1.578   4.193  3.0625  2.0409  1.1201
  314OCT    H13 8142   1.837   1.503   4.353 -2.9828 -1.5316  0.4798
  314OCT     C2 8143   1.761   1.710   4.310 -0.6287  0.0858 -0.8488
  314OCT    H21 8144   1.690   1.694   4.392 -0.6506 -1.5113  0.2801
  314OCT    H22 8145   1.849   1.768   4.358  1.3918 -1.3032 -0.3581
  314OCT     C3 8146   1.720   1.812   4.197  0.8063  0.3318 -0.0090
  314OCT    H31 8147   1.800   1.812   4.118 -0.0666 -2.0839  0.1355
  314OCT    H32 8148   1.627   1.782   4.148  0.6598 -1.1570 -0.7040
  314OCT     C4 8149   1.703   1.949   4.255  0.4241  0.2462  0.3253
  314OCT    H41 8150   1.626   2.001   4.193  0.3583 -1.1827 -1.9271
  314OCT    H42 8151   1.656   1.939   4.355  0.5246 -0.7872  1.7473
  314OCT     C5 8152   1.831   2.031   4.262 -0.1520  0.4060  0.0172
  314OCT    H51 8153   1.912   1.977   4.311 -1.9605 -0.3373 -0.2902
  314OCT    H52 8154   1.879   2.047   4.161  0.2000  1.9356  1.1723
  314OCT     C6 8155   1.813   2.166   4.336 -0.2125 -0.1770 -0.4777
  314OCT    H61 8156   1.723   2.198   4.296  2.7047 -2.0882 -2.1950
  314OCT    H62 8157   1.802   2.150   4.449  0.2555 -2.2339 -0.4199
  314OCT     C7 8158   1.927   2.272   4.315 -0.0423  0.5579 -0.7025
  314OCT    H71 8159   1.897   2.356   4.375  0.4310 -1.1083 -1.3713
  314OCT    H72 8160   2.020   2.213   4.363  0.8480 -0.3374 -0.0811
  314OCT     C8 8161   1.960   2.320   4.174 -0.2777  0.9272  0.6890
  314OCT    H81 8162   2.019   2.415   4.170  1.1951 -0.6828 -1.6509
  314OCT    H82 8163   2.020   2.238   4.114  1.4305 -2.2813  0.0783
  314OCT    H83 8164   1.860   2.336   4.132  0.6486  0.6760  0.3455
  315OCT     C1 8165   2.922   0.376   1.908 -0.0488 -0.3212  0.6872
  315OCT    H11 8166   2.934   0.327   1.808  2.6032  1.3494 -1.0698
  315OCT    H12 8167   2.847   0.462   1.905 -1.0649  0.2434  3.4343
  315OCT    H13 8168   3.024   0.413   1.937  1.5924 -1.3227  0.0409
  315OCT     C2 8169   2.876   0.277   2.012 -0.0037 -0.1807  0.6037
  315OCT    H21 8170   2.776   0.235   1.986 -1.0898  1.2614  1.6467
  315OCT    H22 8171   2.946   0.191   2.034  1.3503  2.9465 -0.2473
  315OCT     C3 8172   2.868   0.340   2.151  0.0477 -0.0560 -0.4089
  315OCT    H31 8173   2.956   0.388   2.191 -1.0511 -1.1463  1.3065
  315OCT    H32 8174   2.787   0.418   2.158 -2.1189 -1.3345  2.1420
  315OCT     C4 8175   2.813   0.241   2.258 -0.7297 -0.7959  0.8375
  315OCT    H41 8176   2.718   0.207   2.204  0.7120  0.1968 -3.2306
  315OCT    H42 8177   2.882   0.164   2.269 -2.8493 -0.7215 -4.4913
  315OCT     C5 8178   2.779   0.306   2.387 -0.2709  0.2078 -0.2830
  315OCT    H51 8179   2.860   0.362   2.423 -0.5307  0.2301  0.3759
  315OCT    H52 8180   2.687   0.370   2.360 -1.3989  0.4336  0.2940
  315OCT     C6 8181   2.736   0.197   2.492 -0.0767 -0.1271 -0.2412
  315OCT    H61 8182   2.650   0.142   2.456 -0.8772 -0.8737  0.5699
  315OCT    H62 8183   2.812   0.108   2.493 -0.9324 -1.9386  2.7410
  315OCT     C7 8184   2.709   0.257   2.630  0.2981 -0.6097 -0.3379
  315OCT    H71 8185   2.684   0.174   2.699  1.5394 -0.5650  0.4201
  315OCT    H72 8186   2.802   0.308   2.664  0.1656 -1.1033 -0.8354
  315OCT     C8 8187   2.592   0.354   2.634  0.4458  0.0841 -0.1716
  315OCT    H81 8188   2.612   0.456   2.592 -0.4434  0.9540 -0.6374
  315OCT    H82 8189   2.503   0.314   2.581  0.4656 -1.4493 -1.5642
  315OCT    H83 8190   2.567   0.364   2.741  0.4636 -0.6952 -0.1905
  316OCT     C1 8191   3.750   2.736   3.441 -0.5198  0.2822  0.0067
  316OCT    H11 8192   3.650   2.742   3.395  1.7109  0.5399  0.1446
  316OCT    H12 8193   3.818   2.716   3.358  0.7824 -2.8983 -0.2722
  316OCT    H13 8194   3.763   2.641   3.504  0.8021 -2.2654 -0.1070
  316OCT     C2 8195   3.797   2.862   3.514  0.1696  0.0565  0.3155
  316OCT    H21 8196   3.721   2.893   3.586  0.1251 -1.2495 -0.7971
  316OCT    H22 8197   3.886   2.833   3.574 -2.3852  0.5055 -1.7402
  316OCT     C3 8198   3.813   2.989   3.430  0.0518 -0.1447  0.4477
  316OCT    H31 8199   3.716   3.001   3.379 -1.1083  2.8503 -0.1373
  316OCT    H32 8200   3.830   3.073   3.497 -0.2977  0.9045  0.1898
  316OCT     C4 8201   3.935   2.986   3.335  0.4234  0.2417 -0.4297
  316OCT    H41 8202   4.012   3.062   3.369 -1.1260  0.0527  0.7969
  316OCT    H42 8203   3.987   2.888   3.338  2.1413 -0.2019  1.0049
  316OCT     C5 8204   3.901   3.032   3.186  0.2655 -0.1929 -0.2352
  316OCT    H51 8205   3.860   3.130   3.190  1.4434 -2.7300 -1.5517
  316OCT    H52 8206   3.992   3.039   3.131 -1.5168  0.2649  0.9629
  316OCT     C6 8207   3.806   2.945   3.098 -0.5076  0.3168 -0.2860
  316OCT    H61 8208   3.839   2.844   3.129 -1.2404  0.8044  1.4649
  316OCT    H62 8209   3.704   2.951   3.132  0.5607 -0.6655  0.7739
  316OCT     C7 8210   3.820   2.971   2.947  0.6506 -0.1717 -0.1082
  316OCT    H71 8211   3.766   3.063   2.928  0.1007 -1.9258 -1.8030
  316OCT    H72 8212   3.928   2.994   2.915  0.3748 -1.7091 -3.8380
  316OCT     C8 8213   3.770   2.856   2.869 -0.4123  0.1258 -0.4607
  316OCT    H81 8214   3.785   2.874   2.763  1.4372  1.6886  0.8816
  316OCT    H82 8215   3.837   2.771   2.896  1.7932 -0.6263  1.8287
  316OCT    H83 8216   3.664   2.830   2.890 -0.4506 -0.2872  0.3283
  317OCT     C1 8217   3.233   4.330   2.343  0.2552 -0.1502  0.5476
  317OCT    H11 8218   3.249   4.366   2.448  0.7744 -0.3825  1.5257
  317OCT    H12 8219   3.323   4.343   2.283 -2.7534  1.0415 -1.9087
  317OCT    H13 8220   3.159   4.401   2.304 -0.0739  0.3516 -0.4031
  317OCT     C2 8221   3.180   4.184   2.344  0.5990 -0.0803 -0.6538
  317OCT    H21 8222   3.203   4.138   2.249 -1.5267  0.4019  0.2159
  317OCT    H22 8223   3.225   4.129   2.423 -1.2004  1.8109 -1.0001
  317OCT     C3 8224   3.023   4.178   2.366 -0.3227 -0.8554 -0.6032
  317OCT    H31 8225   2.987   4.077   2.388  2.1878 -1.4339 -0.3197
  317OCT    H32 8226   2.998   4.247   2.455 -0.8863 -0.4063 -0.9271
  317OCT     C4 8227   2.955   4.230   2.238  0.6198  0.5838 -0.4079
  317OCT    H41 8228   2.978   4.333   2.211  0.2949  1.1620 -0.0122
  317OCT    H42 8229   2.983   4.166   2.149  1.5722  1.0535 -2.2187
  317OCT     C5 8230   2.805   4.235   2.272  0.2999 -0.5708 -0.3994
  317OCT    H51 8231   2.761   4.161   2.344 -1.0517  0.3117  1.0191
  317OCT    H52 8232   2.779   4.331   2.324 -1.3315  0.1352  0.9026
  317OCT     C6 8233   2.723   4.248   2.143  0.3749  0.4848 -0.4351
  317OCT    H61 8234   2.772   4.317   2.076  1.8160 -0.4207  1.1172
  317OCT    H62 8235   2.732   4.147   2.092 -0.4787  0.1965 -1.6537
  317OCT     C7 8236   2.576   4.282   2.173 -0.4204 -0.7031  0.8460
  317OCT    H71 8237   2.520   4.210   2.230 -0.7904  2.2647  0.0240
  317OCT    H72 8238   2.571   4.362   2.241 -0.1675  0.7542 -2.1994
  317OCT     C8 8239   2.499   4.316   2.049  0.9263 -0.5090  0.4236
  317OCT    H81 8240   2.482   4.229   1.978 -1.5663  0.2389 -1.9564
  317OCT    H82 8241   2.393   4.344   2.064 -1.1753 -3.5397  0.4885
  317OCT    H83 8242   2.548   4.397   1.989 -1.4527  1.3121 -3.1893
  318OCT     C1 8243   1.461   0.428   2.084  0.0078  0.4691  1.0042
  318OCT    H11 8244   1.538   0.419   1.996  3.0992 -1.2302 -0.6619
  318OCT    H12 8245   1.355   0.456   2.041 -0.2192  2.6443  0.4387
  318OCT    H13 8246   1.495   0.509   2.154 -0.1643 -1.3006  0.2218
  318OCT     C2 8247   1.453   0.297   2.158  0.1599 -0.0634 -0.0072
  318OCT    H21 8248   1.368   0.293   2.234  1.2071  0.2839  1.0389
  318OCT    H22 8249   1.437   0.215   2.084  1.6526  0.8704  2.5482
  318OCT     C3 8250   1.583   0.243   2.221 -0.0265 -0.5080  0.3359
  318OCT    H31 8251   1.566   0.137   2.241 -1.0783  2.4893  1.5819
  318OCT    H32 8252   1.653   0.261   2.141 -0.6825 -0.0399 -1.7067
  318OCT     C4 8253   1.606   0.302   2.361  0.4158 -0.0992  0.8493
  318OCT    H41 8254   1.626   0.412   2.349 -1.7280 -0.5842 -3.2982
  318OCT    H42 8255   1.510   0.286   2.416 -0.9051 -1.0752  0.9302
  318OCT     C5 8256   1.717   0.224   2.440 -0.1783  0.5154  0.4221
  318OCT    H51 8257   1.707   0.122   2.396  2.8639  0.0203  0.2908
  318OCT    H52 8258   1.824   0.260   2.414  3.3938 -0.8581 -1.9579
  318OCT     C6 8259   1.696   0.236   2.589 -0.1174 -0.5282 -0.2957
  318OCT    H61 8260   1.609   0.185   2.630 -0.1829  0.8781 -1.3700
  318OCT    H62 8261   1.787   0.185   2.639  3.3245  0.7012 -0.3399
  318OCT     C7 8262   1.691   0.381   2.642  0.4113 -0.5753 -0.6502
  318OCT    H71 8263   1.764   0.445   2.586  0.3124 -1.5158 -1.4335
  318OCT    H72 8264   1.596   0.437   2.613  1.0163  0.7014  0.6238
  318OCT     C8 8265   1.714   0.399   2.786 -0.2311 -0.3262  0.1144
  318OCT    H81 8266   1.807   0.350   2.825  0.0900 -0.6123 -0.7825
  318OCT    H82 8267   1.720   0.507   2.819  0.2905  0.9366 -2.4987
  318OCT    H83 8268   1.636   0.346   2.849 -0.6875  1.3200  2.3921
  319OCT     C1 8269   0.100   1.675   3.501 -0.3915  0.4798 -0.1326
  319OCT    H11 8270   0.001   1.637   3.547 -0.8505 -2.4518 -1.0030
  319OCT    H12 8271   0.152   1.587   3.440  0.1422 -2.6128 -2.8137
  319OCT    H13 8272   0.167   1.707   3.578  0.5338 -1.6386 -2.2616
  319OCT     C2 8273   0.066   1.780   3.400  0.1182 -0.0211 -0.3217
  319OCT    H21 8274   0.030   1.876   3.447 -1.1643  2.0804 -0.1956
  319OCT    H22 8275   0.153   1.818   3.352 -3.7802  1.4655 -0.4183
  319OCT     C3 8276  -0.041   1.744   3.298  0.1707 -0.8639  0.2521
  319OCT    H31 8277  -0.008   1.662   3.235  1.5409 -0.3239 -2.6094
  319OCT    H32 8278  -0.128   1.707   3.353 -0.2614  1.4681 -1.7729
  319OCT     C4 8279  -0.093   1.859   3.200 -0.1144  0.1999 -1.1519
  319OCT    H41 8280  -0.111   1.945   3.268 -0.1492  2.7749  1.6446
  319OCT    H42 8281  -0.006   1.889   3.133  0.1405 -0.8427 -0.9130
  319OCT     C5 8282  -0.213   1.816   3.127 -0.3331 -0.4825  0.5814
  319OCT    H51 8283  -0.277   1.758   3.197  1.6726 -0.5149 -1.8068
  319OCT    H52 8284  -0.264   1.909   3.088  0.1812 -1.4009 -1.3513
  319OCT     C6 8285  -0.182   1.724   3.014  0.0781  0.5031  0.2488
  319OCT    H61 8286  -0.091   1.756   2.966 -1.7994 -0.4990  3.2521
  319OCT    H62 8287  -0.155   1.618   3.063  0.3729 -1.8817  1.2318
  319OCT     C7 8288  -0.297   1.729   2.909  0.6253 -0.2820  0.1595
  319OCT    H71 8289  -0.378   1.666   2.950  1.8429  1.4397 -1.4351
  319OCT    H72 8290  -0.353   1.825   2.903 -1.2818  1.2363  1.2685
  319OCT     C8 8291  -0.264   1.664   2.773  0.1298  0.3576  0.5290
  319OCT    H81 8292  -0.204   1.743   2.718  1.9168 -3.8936  0.9506
  319OCT    H82 8293  -0.187   1.581   2.794  1.0863 -0.3141 -0.0573
  319OCT    H83 8294  -0.351   1.619   2.716 -3.1433 -1.3247 -0.2540
  320OCT     C1 8295   1.876   2.264   2.245 -0.3906  0.2883 -0.5323
  320OCT    H11 8296   1.861   2.199   2.161  2.6693 -0.8354  1.4024
  320OCT    H12 8297   1.915   2.362   2.212 -2.3436  0.1117  0.1432
  320OCT    H13 8298   1.957   2.216   2.310  2.8670  0.1019 -0.5662
  320OCT     C2 8299   1.751   2.276   2.333 -0.0816 -0.6836  0.0161
  320OCT    H21 8300   1.668   2.293   2.266  0.8322 -1.0964  0.7096
  320OCT    H22 8301   1.716   2.178   2.377  2.0701 -0.2149 -0.4758
  320OCT     C3 8302   1.761   2.381   2.444  0.1891 -1.1325 -0.0169
  320OCT    H31 8303   1.787   2.487   2.404  1.6666  0.9614 -0.1305
  320OCT    H32 8304   1.662   2.391   2.499 -1.0062 -2.5514 -0.6996
  320OCT     C4 8305   1.871   2.338   2.548 -0.0005  0.2501 -0.3390
  320OCT    H41 8306   1.866   2.233   2.570 -1.2809  0.5120  0.8515
  320OCT    H42 8307   1.971   2.354   2.497  2.8174  2.3060 -3.2089
  320OCT     C5 8308   1.858   2.416   2.678  0.5080 -0.6421 -0.1254
  320OCT    H51 8309   1.865   2.531   2.644 -0.3731  2.1939  1.2635
  320OCT    H52 8310   1.764   2.400   2.730 -1.8551  2.1265  0.9509
  320OCT     C6 8311   1.977   2.394   2.768 -0.1460 -1.2698  0.7242
  320OCT    H61 8312   2.074   2.421   2.722 -2.3675 -2.3836  0.7791
  320OCT    H62 8313   1.976   2.441   2.868 -3.1523 -1.7600 -0.4246
  320OCT     C7 8314   1.997   2.239   2.808  0.2973 -0.4533  0.2320
  320OCT    H71 8315   1.902   2.217   2.864 -3.8846 -0.3888 -3.0862
  320OCT    H72 8316   2.003   2.188   2.714  2.0359  0.0754  0.5125
  320OCT     C8 8317   2.119   2.219   2.889 -0.1641  0.2218 -0.4104
  320OCT    H81 8318   2.141   2.113   2.931  1.2785 -0.5053 -1.2168
  320OCT    H82 8319   2.206   2.242   2.831  1.6655 -3.3081 -0.3549
  320OCT    H83 8320   2.121   2.285   2.977 -1.2366  1.7492  1.0101
  321OCT     C1 8321   1.493   1.480   4.039  0.1273 -0.6489  0.5244
  321OCT    H11 8322   1.410   1.508   3.974 -0.6604  2.1927  1.2303
  321OCT    H12 8323   1.494   1.569   4.106 -0.8292  0.1096  1.5062
  321OCT    H13 8324   1.590   1.481   3.988 -0.1952  1.2256  0.9308
  321OCT     C2 8325   1.476   1.349   4.117  0.0039 -0.1873 -0.7600
  321OCT    H21 8326   1.448   1.262   4.049 -0.5577  0.9605  0.3818
  321OCT    H22 8327   1.574   1.327   4.169  0.6323 -1.5336  0.9373
  321OCT     C3 8328   1.368   1.361   4.229  0.0991  0.4726  0.0993
  321OCT    H31 8329   1.399   1.291   4.311 -1.0221  2.2108  0.1243
  321OCT    H32 8330   1.374   1.467   4.264 -0.7973  4.0804 -0.0906
  321OCT     C4 8331   1.230   1.310   4.175  0.0201 -0.2844 -0.0920
  321OCT    H41 8332   1.205   1.357   4.085 -2.3588 -1.8623  0.8751
  321OCT    H42 8333   1.242   1.204   4.157  0.8405  1.8834  1.4599
  321OCT     C5 8334   1.114   1.316   4.280 -0.3324  0.2981  0.3000
  321OCT    H51 8335   1.120   1.417   4.324  0.0750 -2.8269  0.8494
  321OCT    H52 8336   1.020   1.307   4.224  1.9919 -2.0785 -1.3360
  321OCT     C6 8337   1.133   1.209   4.393 -0.0767 -0.1595  0.4137
  321OCT    H61 8338   1.144   1.105   4.359  0.5168 -0.0895  0.1778
  321OCT    H62 8339   1.220   1.247   4.451  0.1337  1.1817  0.6629
  321OCT     C7 8340   1.022   1.225   4.493 -0.2884 -0.0165 -0.9672
  321OCT    H71 8341   1.002   1.327   4.520 -2.3266 -2.5473 -1.9902
  321OCT    H72 8342   0.925   1.182   4.442  0.2009  0.1635 -0.0149
  321OCT     C8 8343   1.043   1.138   4.618  0.3482 -0.1882 -0.2807
  321OCT    H81 8344   1.064   1.041   4.587  1.7178  2.0019  0.4426
  321OCT    H82 8345   1.132   1.180   4.678  2.7710  2.2149 -0.1447
  321OCT    H83 8346   0.949   1.140   4.684  0.8153 -1.3354  1.8516
  322OCT     C1 8347   1.207   0.124   2.429  0.0590 -0.4700  0.4120
  322OCT    H11 8348   1.150   0.163   2.339 -2.0379  1.3586 -2.2911
  322OCT    H12 8349   1.128   0.074   2.481  1.9175  0.9400 -1.3306
  322OCT    H13 8350   1.258   0.207   2.484  1.5798 -0.7706 -0.1266
  322OCT     C2 8351   1.311   0.017   2.403 -0.0141  1.0199  0.1747
  322OCT    H21 8352   1.256  -0.055   2.344 -2.0817  1.5695  2.6359
  322OCT    H22 8353   1.395   0.052   2.337 -0.1983 -0.0359  0.4769
  322OCT     C3 8354   1.362  -0.045   2.532 -0.6706  0.0477 -0.0981
  322OCT    H31 8355   1.376   0.032   2.621 -1.7552  0.0039  4.0370
  322OCT    H32 8356   1.293  -0.126   2.570 -0.2584 -0.5044  0.8401
  322OCT     C4 8357   1.498  -0.117   2.509  0.3977 -0.2349  0.3774
  322OCT    H41 8358   1.486  -0.200   2.440  0.0342 -2.1877 -1.5994
  322OCT    H42 8359   1.564  -0.049   2.457 -1.1042 -0.2037  2.5043
  322OCT     C5 8360   1.556  -0.168   2.645 -0.8693 -0.4164 -0.3390
  322OCT    H51 8361   1.604  -0.084   2.688 -0.1090 -2.1592 -0.4914
  322OCT    H52 8362   1.468  -0.199   2.704 -2.8536  2.2000 -0.1616
  322OCT     C6 8363   1.661  -0.271   2.637 -0.0080  0.8012  0.1299
  322OCT    H61 8364   1.702  -0.287   2.735 -0.8062  0.4874 -2.7282
  322OCT    H62 8365   1.603  -0.365   2.596 -0.0419 -2.2114 -0.5865
  322OCT     C7 8366   1.772  -0.235   2.539 -0.8515  0.6688  0.8632
  322OCT    H71 8367   1.738  -0.230   2.434  1.6879 -0.2443 -2.0398
  322OCT    H72 8368   1.798  -0.132   2.579  0.3112 -0.5688 -1.3826
  322OCT     C8 8369   1.893  -0.325   2.551 -0.6312 -0.5961  0.1584
  322OCT    H81 8370   1.924  -0.316   2.659 -2.3283 -1.9171  2.6927
  322OCT    H82 8371   1.866  -0.432   2.525  0.0682  1.5413  1.1517
  322OCT    H83 8372   1.974  -0.293   2.476  0.1809 -2.2978 -3.4783
  323OCT     C1 8373   4.199   3.869   2.575 -0.3203 -0.1013 -0.8247
  323OCT    H11 8374   4.297   3.902   2.525  0.2218 -0.3011 -1.4522
  323OCT    H12 8375   4.135   3.806   2.517  1.5037  0.5147  2.5837
  323OCT    H13 8376   4.141   3.960   2.617 -2.4705 -0.2072  0.3117
  323OCT     C2 8377   4.238   3.790   2.701 -0.9165 -0.7140 -0.2846
  323OCT    H21 8378   4.311   3.705   2.674  3.6825 -0.8471  1.4554
  323OCT    H22 8379   4.301   3.859   2.766 -0.3811 -1.2009  0.5316
  323OCT     C3 8380   4.129   3.745   2.789  0.4291  0.5350  0.0283
  323OCT    H31 8381   4.046   3.821   2.797 -0.6252  1.3456 -2.4091
  323OCT    H32 8382   4.085   3.653   2.746  0.6345 -0.5109 -3.2784
  323OCT     C4 8383   4.173   3.732   2.938 -0.1520 -0.4126  0.0253
  323OCT    H41 8384   4.284   3.709   2.927  1.3164 -2.7487 -0.5373
  323OCT    H42 8385   4.153   3.818   3.001 -0.3699  0.1066  1.3146
  323OCT     C5 8386   4.109   3.610   3.007 -0.5399 -0.0109 -0.1011
  323OCT    H51 8387   4.166   3.607   3.110  2.9820  0.0555  1.2728
  323OCT    H52 8388   4.001   3.633   3.025  0.6710  1.0986  0.6769
  323OCT     C6 8389   4.136   3.474   2.937 -0.6407 -0.5656 -0.0227
  323OCT    H61 8390   4.056   3.458   2.863  4.1011  2.3571  1.0780
  323OCT    H62 8391   4.231   3.478   2.894 -0.4646  1.3218 -0.1773
  323OCT     C7 8392   4.150   3.360   3.036  0.1984  0.0736 -0.9950
  323OCT    H71 8393   4.160   3.265   2.982 -0.9804  0.9259 -0.8961
  323OCT    H72 8394   4.249   3.371   3.083 -0.5538  2.1108 -0.3096
  323OCT     C8 8395   4.038   3.343   3.147 -0.3444 -0.1560  0.1413
  323OCT    H81 8396   4.033   3.421   3.228  1.0443  1.4237 -0.0997
  323OCT    H82 8397   3.942   3.327   3.089 -2.4027 -0.7031  0.2678
  323OCT    H83 8398   4.070   3.248   3.202  2.4903  0.1640  0.7542
  324OCT     C1 8399   3.051   0.563   3.364  0.6427  0.7105 -0.5795
  324OCT    H11 8400   2.996   0.587   3.464 -2.0434  1.2209  1.0630
  324OCT    H12 8401   3.087   0.657   3.334 -1.0410 -1.8867  2.5567
  324OCT    H13 8402   2.993   0.518   3.287  0.9055 -0.1995  3.1626
  324OCT     C2 8403   3.182   0.482   3.378 -0.1727  0.5290  0.5748
  324OCT    H21 8404   3.198   0.457   3.273 -1.3720 -2.3645  1.4063
  324OCT    H22 8405   3.259   0.539   3.429 -1.5339 -0.6574 -1.2218
  324OCT     C3 8406   3.172   0.348   3.445  0.4261 -0.4634  0.0773
  324OCT    H31 8407   3.164   0.363   3.557  0.0039  0.8156 -0.8314
  324OCT    H32 8408   3.066   0.316   3.422 -0.5104 -2.3829  0.4010
  324OCT     C4 8409   3.278   0.246   3.403 -0.5997  0.2729  0.1904
  324OCT    H41 8410   3.283   0.250   3.292  2.4774  0.0919  3.5092
  324OCT    H42 8411   3.376   0.287   3.443  0.4057  2.9325 -0.4613
  324OCT     C5 8412   3.232   0.112   3.446 -0.1304  0.6237  0.7197
  324OCT    H51 8413   3.139   0.088   3.391 -0.1932 -0.6449  0.5770
  324OCT    H52 8414   3.306   0.033   3.403  1.7164 -3.6095  0.7956
  324OCT     C6 8415   3.230   0.073   3.590  0.6309  0.3118  0.1719
  324OCT    H61 8416   3.154   0.134   3.640 -0.5987 -1.5577  0.8158
  324OCT    H62 8417   3.192  -0.037   3.604  1.7815 -0.6933 -2.5738
  324OCT     C7 8418   3.366   0.082   3.657 -0.5375  0.0353  0.1664
  324OCT    H71 8419   3.430   0.012   3.591 -0.7914 -2.0727  1.1722
  324OCT    H72 8420   3.398   0.190   3.650  0.8910  1.3742 -0.0402
  324OCT     C8 8421   3.361   0.047   3.805  0.2468 -0.6504 -0.1841
  324OCT    H81 8422   3.375  -0.066   3.814  1.3756 -2.6309 -1.9783
  324OCT    H82 8423   3.431   0.117   3.853  0.9081  1.0188 -2.5574
  324OCT    H83 8424   3.266   0.072   3.857  1.1070 -1.9429  0.3870
  325OCT     C1 8425   0.998   3.840   1.677 -0.3121 -0.0976  0.8007
  325OCT    H11 8426   1.029   3.942   1.707 -1.7652 -0.7866  0.8383
  325OCT    H12 8427   0.954   3.853   1.579  0.7053  1.1264  1.1393
  325OCT    H13 8428   0.924   3.796   1.749  0.3397  0.2766  1.7545
  325OCT     C2 8429   1.126   3.754   1.656  0.5415 -0.3844 -1.1169
  325OCT    H21 8430   1.186   3.795   1.572 -2.3575 -1.5423 -1.0035
  325OCT    H22 8431   1.188   3.752   1.746  3.3373 -0.2745  0.3901
  325OCT     C3 8432   1.100   3.610   1.604 -0.0244  0.2247  0.2887
  325OCT    H31 8433   1.026   3.577   1.673  1.5729  3.6728 -1.7071
  325OCT    H32 8434   1.052   3.619   1.510 -0.1222  0.1043  2.6510
  325OCT     C4 8435   1.226   3.535   1.582 -0.7464 -0.1143 -0.0663
  325OCT    H41 8436   1.197   3.449   1.517  0.1425  0.7476 -1.6869
  325OCT    H42 8437   1.294   3.598   1.521 -0.7594  0.7245 -0.0368
  325OCT     C5 8438   1.314   3.497   1.704 -0.1073  0.3839  0.2645
  325OCT    H51 8439   1.343   3.588   1.768  0.3375 -0.0126  0.4721
  325OCT    H52 8440   1.258   3.431   1.771  2.5973  0.9353 -0.0161
  325OCT     C6 8441   1.448   3.436   1.658 -0.5851  0.2075  0.1702
  325OCT    H61 8442   1.431   3.346   1.600 -1.6487 -2.0133  3.1646
  325OCT    H62 8443   1.496   3.511   1.590  1.5607 -1.2535  0.5097
  325OCT     C7 8444   1.544   3.403   1.771 -0.0408 -0.1405 -0.0083
  325OCT    H71 8445   1.588   3.496   1.820 -0.4224 -0.1336 -2.4223
  325OCT    H72 8446   1.481   3.342   1.850  0.2873  0.9325  4.2141
  325OCT     C8 8447   1.660   3.315   1.716  0.5207 -0.2432 -0.9292
  325OCT    H81 8448   1.618   3.220   1.677 -0.5942 -1.3550 -0.3377
  325OCT    H82 8449   1.721   3.355   1.632  0.5253 -0.9755 -2.2839
  325OCT    H83 8450   1.733   3.286   1.797  0.5714  0.0451 -2.1293
  326OCT     C1 8451   1.891   3.297   2.289 -0.5675 -0.6469 -0.0981
  326OCT    H11 8452   1.814   3.374   2.337  1.1497  2.7283  1.5022
  326OCT    H12 8453   1.879   3.209   2.365  0.4713 -1.7305  3.2882
  326OCT    H13 8454   1.995   3.341   2.285  0.4583 -0.9045  1.4043
  326OCT     C2 8455   1.842   3.248   2.156  0.2940  0.0389  0.2033
  326OCT    H21 8456   1.734   3.226   2.162 -0.5063  1.7142 -0.8133
  326OCT    H22 8457   1.828   3.329   2.086 -1.0182 -1.0280 -1.8667
  326OCT     C3 8458   1.923   3.134   2.089 -0.4957  0.2361  0.2099
  326OCT    H31 8459   1.896   3.145   1.974 -0.9020 -1.4621 -0.6354
  326OCT    H32 8460   2.033   3.138   2.092  0.3016 -0.3341 -0.5255
  326OCT     C4 8461   1.881   2.992   2.137  0.1051 -0.1742 -0.1098
  326OCT    H41 8462   1.939   2.920   2.070 -0.1110 -1.5957 -2.2845
  326OCT    H42 8463   1.923   2.977   2.239 -0.2212  4.9897 -2.0321
  326OCT     C5 8464   1.732   2.957   2.146 -0.2417  0.1485  0.1525
  326OCT    H51 8465   1.660   3.023   2.196 -0.8278  1.2686  0.2511
  326OCT    H52 8466   1.700   2.966   2.039 -2.8684  0.7370  0.4541
  326OCT     C6 8467   1.707   2.818   2.204  0.4443 -0.1923 -0.6979
  326OCT    H61 8468   1.756   2.737   2.155 -0.2162  0.5792 -0.4307
  326OCT    H62 8469   1.739   2.827   2.315 -0.1817  2.2759 -0.3117
  326OCT     C7 8470   1.558   2.771   2.214 -0.0408 -0.4089 -0.2032
  326OCT    H71 8471   1.515   2.852   2.275  2.6123 -2.3953 -1.2763
  326OCT    H72 8472   1.513   2.770   2.111  2.4530 -1.6925 -3.6293
  326OCT     C8 8473   1.539   2.639   2.290  0.7074  0.2199  0.3747
  326OCT    H81 8474   1.430   2.612   2.305 -0.1779 -1.7155 -0.5427
  326OCT    H82 8475   1.599   2.562   2.239  0.6485  2.3986  1.3272
  326OCT    H83 8476   1.587   2.657   2.390 -1.7804  1.0609 -0.9248
  327OCT     C1 8477   1.300   3.705   4.381 -0.3358 -0.3518 -0.3821
  327OCT    H11 8478   1.362   3.792   4.347 -1.0303  2.0839 -1.2162
  327OCT    H12 8479   1.261   3.663   4.286  0.2374 -0.5050 -3.5338
  327OCT    H13 8480   1.219   3.754   4.435  0.0287 -1.4289 -1.9422
  327OCT     C2 8481   1.375   3.599   4.463  0.2466 -0.2070  0.3792
  327OCT    H21 8482   1.449   3.566   4.393 -0.7233  2.0027 -0.8330
  327OCT    H22 8483   1.422   3.638   4.541 -4.5288 -2.1091 -3.7856
  327OCT     C3 8484   1.300   3.479   4.523  0.2436 -0.6420  0.5619
  327OCT    H31 8485   1.378   3.417   4.571 -0.3886  2.8897 -0.2524
  327OCT    H32 8486   1.224   3.508   4.599  0.2869 -0.7703  0.5189
  327OCT     C4 8487   1.232   3.379   4.425  0.3689 -0.6147  0.1386
  327OCT    H41 8488   1.156   3.437   4.366 -0.6517 -1.1769  0.9275
  327OCT    H42 8489   1.312   3.338   4.361  1.2871 -0.2352  0.7324
  327OCT     C5 8490   1.165   3.259   4.490 -0.4319 -0.5361  0.0548
  327OCT    H51 8491   1.068   3.293   4.523 -0.9666  1.5917  2.6300
  327OCT    H52 8492   1.138   3.189   4.414  0.3538  1.5371  2.3552
  327OCT     C6 8493   1.246   3.192   4.616 -0.4016  0.0908  1.0366
  327OCT    H61 8494   1.346   3.156   4.584  1.3096 -2.6346 -1.6740
  327OCT    H62 8495   1.264   3.273   4.693  2.7718 -1.6606  1.5388
  327OCT     C7 8496   1.173   3.079   4.689  0.2210  0.1486  0.5205
  327OCT    H71 8497   1.218   3.049   4.782 -3.4455 -1.7118 -1.0748
  327OCT    H72 8498   1.079   3.123   4.729 -0.6467  0.6129 -0.5483
  327OCT     C8 8499   1.146   2.955   4.617 -0.2054 -0.3445  0.0682
  327OCT    H81 8500   1.122   2.877   4.688  4.2301  3.1922 -1.8715
  327OCT    H82 8501   1.051   2.956   4.557 -1.5577  1.0910 -0.6448
  327OCT    H83 8502   1.224   2.917   4.555  0.0836 -3.7187  0.7782
   4.40013   4.40013   4.40013
