Split from step5_input.gro (molecule=PLEPC)
130
    1PLEPC    N    1   1.436   2.469   6.728
    1PLEPC  C12    2   1.346   2.376   6.808
    1PLEPC H12A    3   1.281   2.437   6.871
    1PLEPC H12B    4   1.406   2.314   6.872
    1PLEPC  C13    5   1.531   2.543   6.816
    1PLEPC H13A    6   1.590   2.612   6.757
    1PLEPC H13B    7   1.478   2.603   6.890
    1PLEPC H13C    8   1.596   2.474   6.866
    1PLEPC  C14    9   1.350   2.570   6.656
    1PLEPC H14A   10   1.407   2.647   6.607
    1PLEPC H14B   11   1.289   2.517   6.583
    1PLEPC H14C   12   1.275   2.614   6.723
    1PLEPC  C15   13   1.513   2.393   6.625
    1PLEPC H15A   14   1.570   2.312   6.668
    1PLEPC H15B   15   1.581   2.459   6.571
    1PLEPC H15C   16   1.443   2.352   6.552
    1PLEPC  C11   17   1.251   2.281   6.730
    1PLEPC H11A   18   1.310   2.212   6.665
    1PLEPC H11B   19   1.198   2.215   6.803
    1PLEPC    P   20   1.021   2.400   6.707
    1PLEPC  O13   21   1.038   2.535   6.767
    1PLEPC  O14   22   0.958   2.292   6.785
    1PLEPC  O12   23   1.160   2.353   6.648
    1PLEPC  O11   24   0.938   2.416   6.574
    1PLEPC   C1   25   0.969   2.526   6.490
    1PLEPC   HA   26   1.079   2.543   6.482
    1PLEPC   HB   27   0.921   2.620   6.528
    1PLEPC   C2   28   0.920   2.498   6.347
    1PLEPC   HS   29   0.811   2.474   6.350
    1PLEPC  O21   30   1.002   2.393   6.292
    1PLEPC  C21   31   0.946   2.343   6.184
    1PLEPC  O22   32   0.835   2.373   6.144
    1PLEPC  C22   33   1.044   2.249   6.116
    1PLEPC  H2R   34   0.990   2.185   6.043
    1PLEPC  H2S   35   1.090   2.183   6.192
    1PLEPC   C3   36   0.940   2.623   6.263
    1PLEPC   HX   37   0.865   2.697   6.302
    1PLEPC   HY   38   0.918   2.606   6.155
    1PLEPC  O31   39   1.080   2.658   6.284
    1PLEPC  C31   40   1.096   2.780   6.241
    1PLEPC  O32   41   1.001   2.843   6.197
    1PLEPC  C32   42   1.243   2.827   6.263
    1PLEPC  H2X   43   1.240   2.906   6.341
    1PLEPC  H2Y   44   1.299   2.738   6.298
    1PLEPC  C23   45   1.148   2.337   6.046
    1PLEPC  H3R   46   1.232   2.272   6.011
    1PLEPC  H3S   47   1.191   2.409   6.120
    1PLEPC  C24   48   1.090   2.414   5.928
    1PLEPC  H4R   49   1.103   2.524   5.944
    1PLEPC  H4S   50   0.980   2.397   5.921
    1PLEPC  C25   51   1.157   2.374   5.796
    1PLEPC  H5R   52   1.138   2.265   5.779
    1PLEPC  H5S   53   1.266   2.389   5.806
    1PLEPC  C26   54   1.111   2.453   5.674
    1PLEPC  H6R   55   1.161   2.420   5.581
    1PLEPC  H6S   56   1.139   2.557   5.690
    1PLEPC  C27   57   0.961   2.458   5.651
    1PLEPC  H7R   58   0.939   2.506   5.552
    1PLEPC  H7S   59   0.918   2.520   5.732
    1PLEPC  C28   60   0.893   2.324   5.662
    1PLEPC  H8R   61   0.785   2.340   5.639
    1PLEPC  H8S   62   0.892   2.293   5.767
    1PLEPC  C29   63   0.959   2.208   5.593
    1PLEPC  H91   64   1.067   2.208   5.602
    1PLEPC C210   65   0.937   2.177   5.469
    1PLEPC H101   66   0.881   2.081   5.478
    1PLEPC C211   67   0.842   2.264   5.400
    1PLEPC H11R   68   0.764   2.244   5.464
    1PLEPC H11S   69   0.827   2.180   5.329
    1PLEPC C212   70   0.846   2.323   5.264
    1PLEPC H121   71   0.748   2.373   5.314
    1PLEPC C213   72   0.827   2.439   5.195
    1PLEPC H131   73   0.933   2.457   5.250
    1PLEPC C214   74   0.849   2.583   5.203
    1PLEPC H14R   75   0.811   2.660   5.279
    1PLEPC H14S   76   0.736   2.600   5.183
    1PLEPC C215   77   0.860   2.588   5.049
    1PLEPC H151   78   0.938   2.648   5.102
    1PLEPC C216   79   0.932   2.622   4.936
    1PLEPC H161   80   0.847   2.626   4.859
    1PLEPC C217   81   1.030   2.736   4.903
    1PLEPC H17R   82   1.064   2.691   4.807
    1PLEPC H17S   83   1.120   2.737   4.972
    1PLEPC C218   84   1.026   2.879   4.840
    1PLEPC H18R   85   1.129   2.904   4.809
    1PLEPC H18S   86   1.001   2.966   4.898
    1PLEPC H18T   87   0.960   2.884   4.751
    1PLEPC  C33   88   1.334   2.881   6.148
    1PLEPC  H3X   89   1.427   2.932   6.180
    1PLEPC  H3Y   90   1.284   2.969   6.110
    1PLEPC  C34   91   1.372   2.767   6.048
    1PLEPC  H4X   92   1.275   2.718   6.017
    1PLEPC  H4Y   93   1.438   2.693   6.090
    1PLEPC  C35   94   1.445   2.806   5.922
    1PLEPC  H5X   95   1.472   2.742   5.837
    1PLEPC  H5Y   96   1.520   2.893   5.935
    1PLEPC  C36   97   1.322   2.853   5.867
    1PLEPC  H6X   98   1.314   2.949   5.925
    1PLEPC  H6Y   99   1.374   2.952   5.852
    1PLEPC  C37  100   1.193   2.780   5.756
    1PLEPC  H7X  101   1.240   2.717   5.682
    1PLEPC  H7Y  102   1.117   2.724   5.814
    1PLEPC  C38  103   1.071   2.837   5.643
    1PLEPC  H8X  104   0.991   2.904   5.681
    1PLEPC  H8Y  105   0.985   2.775   5.622
    1PLEPC  C39  106   1.088   2.912   5.507
    1PLEPC  H9X  107   1.125   3.010   5.471
    1PLEPC  H9Y  108   1.132   2.996   5.556
    1PLEPC C310  109   1.122   2.852   5.374
    1PLEPC H10X  110   1.106   2.902   5.282
    1PLEPC H10Y  111   1.219   2.887   5.342
    1PLEPC C311  112   1.104   2.706   5.374
    1PLEPC H11X  113   1.025   2.688   5.302
    1PLEPC H11Y  114   1.072   2.671   5.474
    1PLEPC C312  115   1.236   2.646   5.340
    1PLEPC H12X  116   1.256   2.555   5.397
    1PLEPC H12Y  117   1.307   2.717   5.380
    1PLEPC C313  118   1.288   2.658   5.198
    1PLEPC H13X  119   1.216   2.613   5.128
    1PLEPC H13Y  120   1.302   2.764   5.167
    1PLEPC C314  121   1.423   2.588   5.200
    1PLEPC H14X  122   1.479   2.613   5.294
    1PLEPC H14Y  123   1.406   2.479   5.208
    1PLEPC C315  124   1.510   2.619   5.080
    1PLEPC H15X  125   1.594   2.548   5.086
    1PLEPC H15Y  126   1.557   2.717   5.091
    1PLEPC C316  127   1.444   2.617   4.943
    1PLEPC H16X  128   1.351   2.557   4.948
    1PLEPC H16Y  129   1.417   2.719   4.908
    1PLEPC H16Z  130   1.514   2.574   4.869
  10.00000  10.00000  10.00000
