;;
;; Generated by CHARMM-GUI (http://www.charmm-gui.org) v1.7
;;
;; psf2itp_mol.py
;;
;; Correspondance:
;; jul316@lehigh.edu or wonpil@lehigh.edu
;;
;; GROMACS topology file for OCTO
;;


[ moleculetype ]
; name	nrexcl
OCTO	     3

[ atoms ]
; nr	type	resnr	residu	atom	cgnr	charge	mass
     1      CG331      1     OCTO     C1      1     -0.270    12.0110   ; qtot -0.270
     2       HGA3      1     OCTO    H11      2      0.090     1.0080   ; qtot -0.180
     3       HGA3      1     OCTO    H12      3      0.090     1.0080   ; qtot -0.090
     4       HGA3      1     OCTO    H13      4      0.090     1.0080   ; qtot -0.000
     5      CG321      1     OCTO     C2      5     -0.180    12.0110   ; qtot -0.180
     6       HGA2      1     OCTO    H21      6      0.090     1.0080   ; qtot -0.090
     7       HGA2      1     OCTO    H22      7      0.090     1.0080   ; qtot -0.000
     8      CG321      1     OCTO     C3      8     -0.180    12.0110   ; qtot -0.180
     9       HGA2      1     OCTO    H31      9      0.090     1.0080   ; qtot -0.090
    10       HGA2      1     OCTO    H32     10      0.090     1.0080   ; qtot -0.000
    11      CG321      1     OCTO     C4     11     -0.180    12.0110   ; qtot -0.180
    12       HGA2      1     OCTO    H41     12      0.090     1.0080   ; qtot -0.090
    13       HGA2      1     OCTO    H42     13      0.090     1.0080   ; qtot -0.000
    14      CG321      1     OCTO     C5     14     -0.180    12.0110   ; qtot -0.180
    15       HGA2      1     OCTO    H51     15      0.090     1.0080   ; qtot -0.090
    16       HGA2      1     OCTO    H52     16      0.090     1.0080   ; qtot -0.000
    17      CG321      1     OCTO     C6     17     -0.180    12.0110   ; qtot -0.180
    18       HGA2      1     OCTO    H61     18      0.090     1.0080   ; qtot -0.090
    19       HGA2      1     OCTO    H62     19      0.090     1.0080   ; qtot -0.000
    20      CG321      1     OCTO     C7     20     -0.180    12.0110   ; qtot -0.180
    21       HGA2      1     OCTO    H71     21      0.090     1.0080   ; qtot -0.090
    22       HGA2      1     OCTO    H72     22      0.090     1.0080   ; qtot -0.000
    23      CG321      1     OCTO     C8     23      0.050    12.0110   ; qtot  0.050
    24       HGA2      1     OCTO    H81     24      0.090     1.0080   ; qtot  0.140
    25       HGA2      1     OCTO    H82     25      0.090     1.0080   ; qtot  0.230
    26      OG311      1     OCTO     O1     26     -0.650    15.9994   ; qtot -0.420
    27       HGP1      1     OCTO    HO1     27      0.420     1.0080   ; qtot -0.000

[ bonds ]
; ai	aj	funct	b0	Kb
    1     2     1
    1     3     1
    1     4     1
    1     5     1
    5     6     1
    5     7     1
    5     8     1
    8     9     1
    8    10     1
    8    11     1
   11    12     1
   11    13     1
   11    14     1
   14    15     1
   14    16     1
   14    17     1
   17    18     1
   17    19     1
   17    20     1
   20    21     1
   20    22     1
   20    23     1
   23    24     1
   23    25     1
   23    26     1
   26    27     1

[ pairs ]
; ai	aj	funct	c6	c12
    1     9     1 
    1    10     1 
    1    11     1 
    2     6     1 
    2     7     1 
    2     8     1 
    3     6     1 
    3     7     1 
    3     8     1 
    4     6     1 
    4     7     1 
    4     8     1 
    5    12     1 
    5    13     1 
    5    14     1 
    6     9     1 
    6    10     1 
    6    11     1 
    7     9     1 
    7    10     1 
    7    11     1 
    8    15     1 
    8    16     1 
    8    17     1 
    9    12     1 
    9    13     1 
    9    14     1 
   10    12     1 
   10    13     1 
   10    14     1 
   11    18     1 
   11    19     1 
   11    20     1 
   12    15     1 
   12    16     1 
   12    17     1 
   13    15     1 
   13    16     1 
   13    17     1 
   14    21     1 
   14    22     1 
   14    23     1 
   15    18     1 
   15    19     1 
   15    20     1 
   16    18     1 
   16    19     1 
   16    20     1 
   17    24     1 
   17    25     1 
   17    26     1 
   18    21     1 
   18    22     1 
   18    23     1 
   19    21     1 
   19    22     1 
   19    23     1 
   20    27     1 
   21    24     1 
   21    25     1 
   21    26     1 
   22    24     1 
   22    25     1 
   22    26     1 
   24    27     1 
   25    27     1 

[ angles ] 
; ai	aj	ak	funct	th0	cth	S0	Kub
    2     1     3     5
    2     1     4     5
    2     1     5     5
    3     1     4     5
    3     1     5     5
    4     1     5     5
    1     5     6     5
    1     5     7     5
    1     5     8     5
    6     5     7     5
    6     5     8     5
    7     5     8     5
    5     8     9     5
    5     8    10     5
    5     8    11     5
    9     8    10     5
    9     8    11     5
   10     8    11     5
    8    11    12     5
    8    11    13     5
    8    11    14     5
   12    11    13     5
   12    11    14     5
   13    11    14     5
   11    14    15     5
   11    14    16     5
   11    14    17     5
   15    14    16     5
   15    14    17     5
   16    14    17     5
   14    17    18     5
   14    17    19     5
   14    17    20     5
   18    17    19     5
   18    17    20     5
   19    17    20     5
   17    20    21     5
   17    20    22     5
   17    20    23     5
   21    20    22     5
   21    20    23     5
   22    20    23     5
   20    23    24     5
   20    23    25     5
   20    23    26     5
   24    23    25     5
   24    23    26     5
   25    23    26     5
   23    26    27     5

[ dihedrals ]
; ai	aj	ak	al	funct	phi0	cp	mult
    2     1     5     6     9
    2     1     5     7     9
    2     1     5     8     9
    3     1     5     6     9
    3     1     5     7     9
    3     1     5     8     9
    4     1     5     6     9
    4     1     5     7     9
    4     1     5     8     9
    1     5     8     9     9
    1     5     8    10     9
    1     5     8    11     9
    6     5     8     9     9
    6     5     8    10     9
    6     5     8    11     9
    7     5     8     9     9
    7     5     8    10     9
    7     5     8    11     9
    5     8    11    12     9
    5     8    11    13     9
    5     8    11    14     9
    9     8    11    12     9
    9     8    11    13     9
    9     8    11    14     9
   10     8    11    12     9
   10     8    11    13     9
   10     8    11    14     9
    8    11    14    15     9
    8    11    14    16     9
    8    11    14    17     9
   12    11    14    15     9
   12    11    14    16     9
   12    11    14    17     9
   13    11    14    15     9
   13    11    14    16     9
   13    11    14    17     9
   11    14    17    18     9
   11    14    17    19     9
   11    14    17    20     9
   15    14    17    18     9
   15    14    17    19     9
   15    14    17    20     9
   16    14    17    18     9
   16    14    17    19     9
   16    14    17    20     9
   14    17    20    21     9
   14    17    20    22     9
   14    17    20    23     9
   18    17    20    21     9
   18    17    20    22     9
   18    17    20    23     9
   19    17    20    21     9
   19    17    20    22     9
   19    17    20    23     9
   17    20    23    24     9
   17    20    23    25     9
   17    20    23    26     9
   21    20    23    24     9
   21    20    23    25     9
   21    20    23    26     9
   22    20    23    24     9
   22    20    23    25     9
   22    20    23    26     9
   20    23    26    27     9
   24    23    26    27     9
   25    23    26    27     9
