300 octanol + 100 water
 8400
    1OCTO    C1    1   3.163   3.457   2.308  0.2997  0.3556 -0.3932
    1OCTO   H11    2   3.215   3.387   2.240  1.7816  1.3512 -0.3382
    1OCTO   H12    3   3.083   3.404   2.363 -0.7692  2.6944  0.4397
    1OCTO   H13    4   3.121   3.538   2.245 -2.1339  0.8524  1.6921
    1OCTO    C2    5   3.260   3.525   2.408 -0.7779  0.2104  0.5475
    1OCTO   H21    6   3.345   3.571   2.353 -2.0168  0.4720 -1.2159
    1OCTO   H22    7   3.208   3.607   2.463  1.1619  1.4160  0.6843
    1OCTO    C3    8   3.336   3.427   2.510  0.2566 -0.1760  0.9367
    1OCTO   H31    9   3.398   3.482   2.583  0.4047  1.3865 -0.3003
    1OCTO   H32   10   3.253   3.380   2.566  0.3844 -1.8559 -0.2085
    1OCTO    C4   11   3.411   3.317   2.441  0.7453  0.5402 -0.2146
    1OCTO   H41   12   3.343   3.250   2.383 -1.6506 -1.5688  4.3981
    1OCTO   H42   13   3.483   3.363   2.370 -0.1250  0.5767 -1.0943
    1OCTO    C5   14   3.501   3.226   2.532 -0.3668 -0.7077  0.4669
    1OCTO   H51   15   3.571   3.292   2.589 -0.8255  1.1922 -1.0706
    1OCTO   H52   16   3.446   3.178   2.616  1.9873 -0.9484  1.9805
    1OCTO    C6   17   3.595   3.136   2.453 -0.1310  0.8042  0.1895
    1OCTO   H61   18   3.638   3.069   2.531  0.3332 -0.7229 -1.3281
    1OCTO   H62   19   3.547   3.069   2.379 -1.5026 -1.4123  2.9046
    1OCTO    C7   20   3.718   3.211   2.391  0.6027 -0.0232 -0.0091
    1OCTO   H71   21   3.678   3.275   2.309 -1.0687 -1.9035 -0.7534
    1OCTO   H72   22   3.760   3.280   2.467 -0.7665  0.9790 -0.1174
    1OCTO    C8   23   3.835   3.116   2.357 -0.3764 -0.6542 -0.5258
    1OCTO   H81   24   3.903   3.176   2.292 -1.9057  0.2798 -1.3219
    1OCTO   H82   25   3.785   3.031   2.307 -1.6543 -0.0053 -0.3915
    1OCTO    O1   26   3.903   3.073   2.474 -0.5617  0.0572 -0.4447
    1OCTO   HO1   27   3.960   3.001   2.446 -0.8868 -0.4157  0.0899
    2OCTO    C1   28   0.482   1.596   3.648 -0.6138  0.6710 -0.0060
    2OCTO   H11   29   0.482   1.487   3.671  0.3114  0.5777 -0.4133
    2OCTO   H12   30   0.394   1.636   3.703 -1.1313  0.2748 -0.5404
    2OCTO   H13   31   0.488   1.618   3.539  0.5476 -0.3794 -0.1782
    2OCTO    C2   32   0.608   1.648   3.719 -0.0703  0.3256  0.1895
    2OCTO   H21   33   0.706   1.608   3.685 -0.3104  0.5870 -0.8357
    2OCTO   H22   34   0.612   1.759   3.707  0.0363  0.3212  0.1789
    2OCTO    C3   35   0.613   1.640   3.873  0.7557  0.2674  0.2073
    2OCTO   H31   36   0.517   1.674   3.917  2.5833  3.5586  2.0592
    2OCTO   H32   37   0.637   1.535   3.897  0.6155  0.6572  2.2420
    2OCTO    C4   38   0.710   1.727   3.949 -0.5351  0.0065  0.1547
    2OCTO   H41   39   0.676   1.833   3.954 -0.2593  0.1016  0.0274
    2OCTO   H42   40   0.706   1.703   4.058 -2.3064  1.0138  0.3429
    2OCTO    C5   41   0.859   1.721   3.911  0.6145 -0.8582 -0.4424
    2OCTO   H51   42   0.900   1.621   3.937 -0.6231 -1.2375  0.0955
    2OCTO   H52   43   0.866   1.749   3.804 -0.7439  0.4917 -0.2016
    2OCTO    C6   44   0.951   1.823   3.983 -0.5089 -0.0718 -0.4750
    2OCTO   H61   45   0.960   1.793   4.090 -2.1360  2.0208  0.3298
    2OCTO   H62   46   1.048   1.825   3.930 -0.5122  0.1859 -0.4735
    2OCTO    C7   47   0.915   1.971   3.972  0.0839 -0.1933 -0.0959
    2OCTO   H71   48   0.828   1.988   4.040 -0.0189  0.8307 -0.4688
    2OCTO   H72   49   0.986   2.035   4.028 -1.4154  0.7691  0.7942
    2OCTO    C8   50   0.888   2.026   3.830 -0.5879 -0.6372  0.1733
    2OCTO   H81   51   0.886   2.137   3.833 -0.6665 -0.5514 -1.8380
    2OCTO   H82   52   0.794   1.984   3.789  0.2363 -2.4397  0.0587
    2OCTO    O1   53   0.999   1.997   3.750  0.1936  0.4203  0.5068
    2OCTO   HO1   54   0.968   2.016   3.662 -1.2424 -2.0645  0.3755
    3OCTO    C1   55   3.624   0.778   3.003  0.0327 -0.6115  0.5022
    3OCTO   H11   56   3.632   0.738   3.107  2.6312 -2.1973 -0.2113
    3OCTO   H12   57   3.645   0.687   2.944 -0.9320 -1.6552  1.7049
    3OCTO   H13   58   3.693   0.861   2.977 -0.5890 -0.9622 -2.5606
    3OCTO    C2   59   3.479   0.824   2.973  0.1515 -0.5365 -0.5657
    3OCTO   H21   60   3.442   0.907   3.038  1.3931 -0.0848 -0.4129
    3OCTO   H22   61   3.487   0.866   2.870 -0.7909  0.7776 -0.1335
    3OCTO    C3   62   3.380   0.708   2.973  0.7067 -0.4283  0.3359
    3OCTO   H31   63   3.395   0.622   2.905 -2.2789 -2.5465  2.1398
    3OCTO   H32   64   3.360   0.660   3.071 -1.5697 -1.4237 -0.5668
    3OCTO    C4   65   3.244   0.767   2.932 -0.2306 -0.2538 -0.6474
    3OCTO   H41   66   3.256   0.806   2.829 -0.0890  0.1210 -0.4936
    3OCTO   H42   67   3.172   0.683   2.926  0.4468 -0.7369 -3.4769
    3OCTO    C5   68   3.186   0.885   3.017 -0.5457 -0.0165 -0.3912
    3OCTO   H51   69   3.247   0.977   3.004 -1.9542  0.5940 -4.0968
    3OCTO   H52   70   3.089   0.905   2.966 -0.1158 -0.2893 -1.3346
    3OCTO    C6   71   3.159   0.861   3.168  0.2370  0.4178 -0.5594
    3OCTO   H61   72   3.212   0.766   3.194  1.6383  0.9363 -1.3943
    3OCTO   H62   73   3.194   0.944   3.233 -2.3093  0.7995  0.4204
    3OCTO    C7   74   3.009   0.844   3.199  0.3025 -0.3803  0.0651
    3OCTO   H71   75   2.965   0.942   3.172 -0.7742 -0.3915  1.6660
    3OCTO   H72   76   2.963   0.768   3.132 -0.9874  0.3300  0.1118
    3OCTO    C8   77   2.971   0.819   3.341  0.5343  0.3717 -0.2387
    3OCTO   H81   78   3.017   0.896   3.407 -1.4660  1.7580 -0.3525
    3OCTO   H82   79   2.997   0.715   3.369 -0.4569  0.3641  0.7358
    3OCTO    O1   80   2.828   0.824   3.350 -0.5249 -0.6598 -0.4191
    3OCTO   HO1   81   2.794   0.751   3.297  1.4837 -1.6809 -0.4005
    4OCTO    C1   82   1.300   3.102   1.100  0.4367  0.9481 -0.7114
    4OCTO   H11   83   1.241   3.121   1.008  2.0886  0.1170 -1.9904
    4OCTO   H12   84   1.404   3.116   1.065  0.4649  0.7046 -0.7271
    4OCTO   H13   85   1.297   2.993   1.120  1.3383  1.2393  1.3500
    4OCTO    C2   86   1.249   3.185   1.219  0.1512  0.8948 -0.4253
    4OCTO   H21   87   1.230   3.293   1.206  0.7515  1.6806  3.7206
    4OCTO   H22   88   1.149   3.149   1.252 -0.3253  2.5546 -0.0077
    4OCTO    C3   89   1.336   3.162   1.342  0.2933 -0.0735  0.8535
    4OCTO   H31   90   1.439   3.195   1.316 -0.7744  3.4898  0.4858
    4OCTO   H32   91   1.306   3.233   1.422 -0.3566  2.2845 -1.3247
    4OCTO    C4   92   1.349   3.015   1.395  0.4827  0.0337  0.4073
    4OCTO   H41   93   1.247   2.971   1.409  0.3899  0.7030  2.1020
    4OCTO   H42   94   1.385   2.947   1.315 -3.8781 -2.7175  0.3990
    4OCTO    C5   95   1.433   2.992   1.532  0.5745  0.2591  0.7121
    4OCTO   H51   96   1.386   3.043   1.619  0.3210 -0.7176  1.1572
    4OCTO   H52   97   1.439   2.883   1.552  2.5366 -0.4524 -2.9506
    4OCTO    C6   98   1.577   3.049   1.510 -0.1371 -0.4112 -0.5736
    4OCTO   H61   99   1.617   2.988   1.427 -0.7649 -3.3621  1.1528
    4OCTO   H62  100   1.581   3.155   1.478  1.2807  0.9292  3.4031
    4OCTO    C7  101   1.659   3.042   1.640 -0.0715 -0.3597 -0.5714
    4OCTO   H71  102   1.759   3.082   1.610 -0.5810  1.7154  0.2837
    4OCTO   H72  103   1.616   3.119   1.708 -0.2582  0.5703 -1.7047
    4OCTO    C8  104   1.672   2.912   1.718 -0.3585  0.6333  0.5539
    4OCTO   H81  105   1.572   2.878   1.751 -0.4385  1.7557  1.5500
    4OCTO   H82  106   1.738   2.936   1.805  0.5146  1.8853 -0.4268
    4OCTO    O1  107   1.726   2.820   1.628 -0.4311  0.2203  0.1152
    4OCTO   HO1  108   1.661   2.759   1.592  1.1905 -0.1828 -2.3616
    5OCTO    C1  109   1.037   0.454   0.327  0.2506  0.1035  1.0400
    5OCTO   H11  110   1.001   0.412   0.230 -0.0868 -1.0343  1.6447
    5OCTO   H12  111   0.949   0.466   0.393 -0.4561  1.4573 -0.0856
    5OCTO   H13  112   1.089   0.552   0.313  1.0745 -0.4885 -0.2799
    5OCTO    C2  113   1.127   0.362   0.408  0.8042  0.0584  0.1597
    5OCTO   H21  114   1.229   0.401   0.428  0.0865  0.8758  2.5047
    5OCTO   H22  115   1.087   0.359   0.511  0.8618  1.8847  0.2583
    5OCTO    C3  116   1.130   0.215   0.360  0.6137  0.5016 -0.1654
    5OCTO   H31  117   1.177   0.200   0.261 -1.1005 -1.6511 -0.7143
    5OCTO   H32  118   1.195   0.162   0.434  0.4961  0.5252 -0.0449
    5OCTO    C4  119   0.995   0.146   0.354 -0.6580  0.3397 -0.1691
    5OCTO   H41  120   0.935   0.160   0.447 -0.7009 -2.1575  0.2400
    5OCTO   H42  121   0.940   0.178   0.263  1.0115 -1.9843 -2.1230
    5OCTO    C5  122   1.013  -0.006   0.331 -0.9624  0.5176 -0.1366
    5OCTO   H51  123   1.069  -0.029   0.238  1.4857  1.0846  1.1224
    5OCTO   H52  124   1.085  -0.052   0.403  3.0013  1.6550 -3.0111
    5OCTO    C6  125   0.889  -0.094   0.339 -0.1906 -0.3844  0.3790
    5OCTO   H61  126   0.913  -0.190   0.389  2.8545 -0.7461 -1.4748
    5OCTO   H62  127   0.818  -0.037   0.402  1.0554 -0.3569  1.7967
    5OCTO    C7  128   0.838  -0.125   0.195 -0.1546  0.7412  0.1205
    5OCTO   H71  129   0.831  -0.042   0.122 -1.0493 -0.5803 -1.3513
    5OCTO   H72  130   0.909  -0.201   0.156  0.3161  0.5283  1.3376
    5OCTO    C8  131   0.700  -0.196   0.199 -0.1462 -0.1404 -0.0757
    5OCTO   H81  132   0.623  -0.129   0.241 -1.0714 -1.3600  0.2087
    5OCTO   H82  133   0.703  -0.284   0.267  0.7584  1.5112  2.1547
    5OCTO    O1  134   0.659  -0.241   0.070  0.0563 -0.7560 -0.2353
    5OCTO   HO1  135   0.563  -0.242   0.074  0.0544 -2.6239  0.1580
    6OCTO    C1  136   0.965   4.172   0.711 -0.6021  0.4349 -1.1046
    6OCTO   H11  137   1.036   4.125   0.783  0.0313  1.3499 -1.1147
    6OCTO   H12  138   0.994   4.132   0.611  1.3625 -1.7042  0.2028
    6OCTO   H13  139   0.988   4.279   0.725  0.0025  0.3775 -1.6116
    6OCTO    C2  140   0.813   4.160   0.736  0.1853 -0.3061  0.2242
    6OCTO   H21  141   0.796   4.183   0.843  0.2579 -0.0081  0.1738
    6OCTO   H22  142   0.759   4.237   0.676  0.4930 -0.2650 -0.0033
    6OCTO    C3  143   0.751   4.016   0.711 -0.4734 -1.3781  0.1495
    6OCTO   H31  144   0.747   4.009   0.600  0.0265 -0.3942  0.0511
    6OCTO   H32  145   0.828   3.950   0.756  0.3870  0.0176  0.7936
    6OCTO    C4  146   0.610   4.018   0.772  0.8466 -0.1138  0.2999
    6OCTO   H41  147   0.615   4.090   0.856  0.7987 -0.9082  0.9905
    6OCTO   H42  148   0.544   4.066   0.697  1.2188  0.1870  0.1598
    6OCTO    C5  149   0.554   3.879   0.807 -0.0810  0.0779  0.0318
    6OCTO   H51  150   0.587   3.813   0.724  0.1503  0.9485 -0.5864
    6OCTO   H52  151   0.601   3.841   0.900 -0.4246 -0.2736  0.0636
    6OCTO    C6  152   0.399   3.872   0.819 -0.6628  0.4522 -0.2114
    6OCTO   H61  153   0.360   3.778   0.863 -1.9775  0.5199 -1.1655
    6OCTO   H62  154   0.375   3.956   0.888  0.2861  1.0584 -0.5996
    6OCTO    C7  155   0.317   3.902   0.688 -0.1768  0.2737 -0.6180
    6OCTO   H71  156   0.207   3.886   0.696  0.1107 -1.8565 -0.2614
    6OCTO   H72  157   0.325   4.011   0.667 -1.2004  0.2440 -1.2466
    6OCTO    C8  158   0.362   3.827   0.567 -0.1282  0.7265  0.4131
    6OCTO   H81  159   0.352   3.719   0.593  0.4097  0.1175 -1.6900
    6OCTO   H82  160   0.466   3.848   0.535 -0.0369  1.6982  1.2886
    6OCTO    O1  161   0.262   3.835   0.465  0.0391 -0.1767  0.1899
    6OCTO   HO1  162   0.282   3.912   0.412  0.9163  0.1980  1.0342
    7OCTO    C1  163   1.660   3.025   2.651  0.2915  0.0635 -0.1262
    7OCTO   H11  164   1.573   3.033   2.582 -1.4837  2.1241  2.1693
    7OCTO   H12  165   1.727   2.958   2.592  0.2143  1.7223 -2.2159
    7OCTO   H13  166   1.623   2.980   2.746  0.3365  1.5370  0.6241
    7OCTO    C2  167   1.732   3.158   2.670  0.8766  0.0397  0.2167
    7OCTO   H21  168   1.724   3.203   2.569  0.6469  0.5939  0.4790
    7OCTO   H22  169   1.666   3.225   2.730 -0.4931 -0.7190 -0.3805
    7OCTO    C3  170   1.871   3.155   2.738  0.2102  0.0812 -1.1888
    7OCTO   H31  171   1.877   3.085   2.824  1.0382  0.2794 -1.0835
    7OCTO   H32  172   1.931   3.096   2.666 -1.1134 -0.8971 -1.5343
    7OCTO    C4  173   1.925   3.299   2.757  0.0554 -0.7874 -0.6792
    7OCTO   H41  174   1.933   3.360   2.665  1.2909 -0.2252 -0.2137
    7OCTO   H42  175   1.843   3.350   2.812  0.7113 -2.0882  1.6253
    7OCTO    C5  176   2.052   3.311   2.838  0.6616 -0.3390  0.5764
    7OCTO   H51  177   2.057   3.418   2.866  1.8231 -1.0740  3.5238
    7OCTO   H52  178   2.050   3.254   2.933 -0.0113 -1.3081  0.0027
    7OCTO    C6  179   2.174   3.273   2.759 -0.6054 -0.7590  0.4469
    7OCTO   H61  180   2.170   3.163   2.741 -0.3164 -0.5423 -1.1264
    7OCTO   H62  181   2.180   3.324   2.660  0.3337  1.7829  1.7235
    7OCTO    C7  182   2.307   3.310   2.832  0.2054  0.6112 -0.0003
    7OCTO   H71  183   2.276   3.410   2.869  0.2209  0.3405  0.7564
    7OCTO   H72  184   2.303   3.251   2.926  2.8247 -2.2933 -1.5220
    7OCTO    C8  185   2.441   3.281   2.761 -0.5997  0.0407  0.4369
    7OCTO   H81  186   2.430   3.320   2.658 -1.5580 -3.7944 -1.0791
    7OCTO   H82  187   2.465   3.173   2.766  0.1370  0.2422  2.3097
    7OCTO    O1  188   2.530   3.361   2.838 -0.2167 -0.4133  0.1324
    7OCTO   HO1  189   2.600   3.385   2.777 -1.3483 -1.0828 -1.5134
    8OCTO    C1  190   3.975   3.881   2.951 -0.0222  0.0549  0.4685
    8OCTO   H11  191   4.000   3.908   2.846 -3.5411 -0.4711 -0.6358
    8OCTO   H12  192   3.963   3.771   2.961 -0.4891  0.2166  1.8989
    8OCTO   H13  193   3.873   3.924   2.964 -0.7204 -1.4596  0.1005
    8OCTO    C2  194   4.081   3.934   3.050  0.2417 -0.2222  0.5232
    8OCTO   H21  195   4.097   4.039   3.018 -2.1986  0.0025 -0.1683
    8OCTO   H22  196   4.041   3.930   3.154  0.3709 -1.1605  0.5465
    8OCTO    C3  197   4.217   3.861   3.041 -0.5626  0.0692  0.0925
    8OCTO   H31  198   4.293   3.915   3.100  2.5560 -3.2962 -0.4644
    8OCTO   H32  199   4.206   3.762   3.090  3.8973 -0.5949  0.1651
    8OCTO    C4  200   4.288   3.835   2.903  0.5813  0.2446 -0.2378
    8OCTO   H41  201   4.382   3.781   2.926  0.4852 -0.2280 -0.9246
    8OCTO   H42  202   4.226   3.753   2.859  2.1309 -1.9924  1.5414
    8OCTO    C5  203   4.299   3.959   2.816 -0.3638 -0.8906 -0.1054
    8OCTO   H51  204   4.201   3.994   2.778 -0.9616 -2.3697  0.0029
    8OCTO   H52  205   4.333   4.047   2.874  0.0850 -0.8235 -0.4598
    8OCTO    C6  206   4.379   3.933   2.691 -0.2530  0.5596 -0.3690
    8OCTO   H61  207   4.339   3.843   2.638 -1.9709  2.1031 -1.8665
    8OCTO   H62  208   4.361   4.018   2.622  0.5966 -0.3781 -1.7950
    8OCTO    C7  209   4.532   3.937   2.707 -0.2104 -0.1341  0.0306
    8OCTO   H71  210   4.553   4.037   2.751  0.7374 -0.0942 -0.4940
    8OCTO   H72  211   4.564   3.859   2.779  0.7371  0.0318 -0.2015
    8OCTO    C8  212   4.607   3.930   2.577  0.0899 -0.4283 -0.3129
    8OCTO   H81  213   4.574   4.001   2.498  0.0917  1.6937  1.5200
    8OCTO   H82  214   4.604   3.827   2.534 -1.8585 -0.1368 -0.9887
    8OCTO    O1  215   4.744   3.961   2.601 -0.1880  0.1735 -0.5793
    8OCTO   HO1  216   4.777   3.985   2.514  1.1823  0.8589  0.1025
    9OCTO    C1  217   2.227   0.377   1.765 -0.3633  0.8657  0.1146
    9OCTO   H11  218   2.237   0.267   1.776 -1.0010  0.6300 -1.3478
    9OCTO   H12  219   2.183   0.427   1.854 -0.0643  1.2495  0.0488
    9OCTO   H13  220   2.143   0.385   1.691  0.7898  2.8049 -1.0551
    9OCTO    C2  221   2.359   0.437   1.719 -0.2644  0.4224  0.3810
    9OCTO   H21  222   2.348   0.543   1.686  0.3689  0.0488 -1.1008
    9OCTO   H22  223   2.435   0.433   1.800  0.2638 -0.5912 -0.1462
    9OCTO    C3  224   2.419   0.370   1.587  0.5150 -0.4310 -0.5322
    9OCTO   H31  225   2.430   0.262   1.611 -0.3428 -0.1062  1.6207
    9OCTO   H32  226   2.336   0.375   1.513 -2.0787  1.6992  2.2617
    9OCTO    C4  227   2.550   0.438   1.534  0.3174  0.7007 -0.2383
    9OCTO   H41  228   2.526   0.539   1.496  1.2984  0.9082 -0.3358
    9OCTO   H42  229   2.625   0.445   1.616  0.3370 -1.3624 -0.0168
    9OCTO    C5  230   2.620   0.353   1.420  0.2351  0.0215 -0.0259
    9OCTO   H51  231   2.720   0.396   1.397  0.2140  0.1443  0.1136
    9OCTO   H52  232   2.632   0.247   1.451 -2.3454  0.2473  2.0756
    9OCTO    C6  233   2.542   0.367   1.292 -0.1757 -0.2683  0.3165
    9OCTO   H61  234   2.463   0.290   1.299 -0.7553  0.2683 -0.2337
    9OCTO   H62  235   2.508   0.473   1.283  2.0779  0.7394  2.3298
    9OCTO    C7  236   2.621   0.356   1.157  0.3555  0.9199 -0.1636
    9OCTO   H71  237   2.668   0.452   1.128 -0.0556  1.2661  0.2889
    9OCTO   H72  238   2.708   0.291   1.181 -0.5376 -0.9168 -1.6184
    9OCTO    C8  239   2.535   0.297   1.045 -0.0780  0.1892 -0.2769
    9OCTO   H81  240   2.440   0.356   1.040 -0.2332  0.0208  0.5174
    9OCTO   H82  241   2.512   0.191   1.070  3.9071 -0.3452  1.8748
    9OCTO    O1  242   2.614   0.304   0.926 -0.0249  0.3621  0.2019
    9OCTO   HO1  243   2.603   0.389   0.883  0.2605 -0.6975 -2.1240
   10OCTO    C1  244   0.750   1.916   2.874 -0.1557 -0.5201  0.2343
   10OCTO   H11  245   0.833   1.910   2.801  0.0334 -1.4070  0.5078
   10OCTO   H12  246   0.744   1.815   2.920 -1.7077  0.2201  1.8182
   10OCTO   H13  247   0.649   1.943   2.835 -0.2639 -2.4349 -0.9424
   10OCTO    C2  248   0.803   2.020   2.986  0.2193 -0.1195  0.5219
   10OCTO   H21  249   0.819   2.118   2.936  0.2654 -0.3367  0.1023
   10OCTO   H22  250   0.714   2.038   3.050 -1.3158  1.1140 -1.7705
   10OCTO    C3  251   0.928   1.970   3.068  0.3135 -0.4251 -0.4277
   10OCTO   H31  252   0.951   2.065   3.121  0.8413 -0.9124  0.2335
   10OCTO   H32  253   0.882   1.907   3.147  2.2165 -0.1962  0.9139
   10OCTO    C4  254   1.046   1.918   2.986  1.0399  0.1655 -0.3347
   10OCTO   H41  255   1.006   1.851   2.907 -0.2568 -1.2284  1.4196
   10OCTO   H42  256   1.084   1.996   2.916 -0.0404  1.1622  0.1542
   10OCTO    C5  257   1.164   1.845   3.058 -0.1205 -0.2825 -0.4774
   10OCTO   H51  258   1.111   1.766   3.116  1.2899 -0.2196  0.9726
   10OCTO   H52  259   1.235   1.806   2.982  2.3005 -0.7376  1.8448
   10OCTO    C6  260   1.231   1.941   3.156  0.0589 -0.7798 -0.3154
   10OCTO   H61  261   1.159   1.967   3.236  0.5029  0.4953 -0.3070
   10OCTO   H62  262   1.315   1.878   3.193  1.8238  0.9598 -1.1930
   10OCTO    C7  263   1.283   2.079   3.103 -0.1748  0.6900  0.5383
   10OCTO   H71  264   1.351   2.050   3.020  0.1423 -0.2072  1.0980
   10OCTO   H72  265   1.200   2.144   3.066 -1.2136 -0.0220  1.5475
   10OCTO    C8  266   1.375   2.150   3.195 -0.5058  0.3127 -0.5843
   10OCTO   H81  267   1.467   2.094   3.219 -1.2066 -0.1526  1.2021
   10OCTO   H82  268   1.326   2.177   3.291  0.4469  0.6263 -0.1778
   10OCTO    O1  269   1.413   2.266   3.135 -0.1175  0.5021  0.3195
   10OCTO   HO1  270   1.505   2.252   3.109 -0.9109 -1.5315 -1.7888
   11OCTO    C1  271   1.283   1.781   2.476 -0.2455 -0.3274 -0.2987
   11OCTO   H11  272   1.255   1.858   2.402 -0.0118 -0.7034 -0.7821
   11OCTO   H12  273   1.313   1.828   2.572  0.4323 -1.4366  0.0586
   11OCTO   H13  274   1.374   1.730   2.438  0.3626  1.9274 -2.0813
   11OCTO    C2  275   1.170   1.688   2.486  0.5424  0.5733 -0.1552
   11OCTO   H21  276   1.196   1.604   2.553 -1.5360 -1.3786 -1.6552
   11OCTO   H22  277   1.092   1.741   2.545  0.2786  0.3136 -0.2677
   11OCTO    C3  278   1.116   1.637   2.354 -0.2845  0.4409 -0.5653
   11OCTO   H31  279   1.060   1.725   2.315  0.6597  0.7210 -1.3333
   11OCTO   H32  280   1.179   1.604   2.269  1.1925  0.8230  0.3444
   11OCTO    C4  281   1.015   1.526   2.388  0.1436 -0.0682 -0.0378
   11OCTO   H41  282   0.961   1.557   2.480  1.2268 -1.5360  1.1335
   11OCTO   H42  283   0.939   1.511   2.308  1.1569  1.3030 -1.3358
   11OCTO    C5  284   1.081   1.385   2.421  0.3116 -0.5903 -0.5008
   11OCTO   H51  285   1.148   1.412   2.505  2.2934  0.9947 -2.4559
   11OCTO   H52  286   0.997   1.316   2.444 -0.3612  0.2831 -0.2641
   11OCTO    C6  287   1.173   1.327   2.312 -0.0618  0.4053  0.4424
   11OCTO   H61  288   1.136   1.344   2.209  3.4544  2.0799 -0.7417
   11OCTO   H62  289   1.261   1.395   2.324 -1.8386  2.3818  4.7981
   11OCTO    C7  290   1.209   1.188   2.336 -0.2783 -0.4940 -0.0589
   11OCTO   H71  291   1.119   1.129   2.365  0.6339 -2.0401 -0.2451
   11OCTO   H72  292   1.238   1.139   2.241 -0.8635  1.7391 -1.4676
   11OCTO    C8  293   1.327   1.172   2.428  0.2639  0.2286 -0.0562
   11OCTO   H81  294   1.308   1.219   2.527  0.0081  0.1562 -0.0705
   11OCTO   H82  295   1.422   1.220   2.394  0.0027  0.4482 -0.4803
   11OCTO    O1  296   1.362   1.037   2.447  0.0693 -0.0981 -0.3503
   11OCTO   HO1  297   1.441   1.032   2.502 -0.1135  0.2948 -0.0494
   12OCTO    C1  298   0.488   1.095   3.328  1.0689  0.2295 -0.1008
   12OCTO   H11  299   0.422   1.097   3.239  0.1051 -0.4402  0.5790
   12OCTO   H12  300   0.511   0.989   3.353  0.5989  0.0881 -0.2561
   12OCTO   H13  301   0.427   1.128   3.415  1.8773  0.0684  0.5456
   12OCTO    C2  302   0.607   1.191   3.311 -0.2728  0.0543  0.3426
   12OCTO   H21  303   0.682   1.172   3.391 -0.0074  3.2676  0.9883
   12OCTO   H22  304   0.658   1.190   3.212 -0.4894  0.3329  0.2292
   12OCTO    C3  305   0.556   1.334   3.323  0.0531  0.7081 -0.1095
   12OCTO   H31  306   0.495   1.360   3.233  0.0466 -1.9795 -0.9882
   12OCTO   H32  307   0.487   1.343   3.409 -1.3971  0.9434 -1.2456
   12OCTO    C4  308   0.666   1.448   3.340  0.2479 -0.1210  0.4557
   12OCTO   H41  309   0.619   1.542   3.374 -0.0571  0.0072 -0.3094
   12OCTO   H42  310   0.738   1.409   3.415  0.4447 -1.3153 -0.3285
   12OCTO    C5  311   0.732   1.480   3.212 -0.2437 -0.6605 -0.8614
   12OCTO   H51  312   0.777   1.382   3.183  1.1432 -0.5349  0.7218
   12OCTO   H52  313   0.665   1.512   3.129 -0.1821  1.1808 -0.2378
   12OCTO    C6  314   0.851   1.584   3.230 -0.6029  0.3231 -0.1015
   12OCTO   H61  315   0.921   1.574   3.144  2.1386  0.2459  2.0158
   12OCTO   H62  316   0.799   1.682   3.241 -1.1360 -0.1425  1.9344
   12OCTO    C7  317   0.944   1.562   3.351  0.1979 -0.5713 -0.5418
   12OCTO   H71  318   0.881   1.575   3.441  0.1592  0.3030 -0.6865
   12OCTO   H72  319   0.984   1.459   3.365  0.1229 -0.4208  0.9105
   12OCTO    C8  320   1.071   1.645   3.354 -0.1344  0.6372  0.8448
   12OCTO   H81  321   1.043   1.750   3.332 -0.1561  0.2933 -0.9124
   12OCTO   H82  322   1.149   1.610   3.283  1.3034  0.5903  2.3858
   12OCTO    O1  323   1.127   1.636   3.487 -0.0499 -0.1992  0.5992
   12OCTO   HO1  324   1.152   1.722   3.520 -3.2191  0.8408  0.6591
   13OCTO    C1  325   2.825   3.822   2.491 -0.7010 -0.4080 -0.2646
   13OCTO   H11  326   2.909   3.843   2.560  0.4133  1.8818 -2.1465
   13OCTO   H12  327   2.876   3.823   2.392 -1.3026 -1.0206 -0.5837
   13OCTO   H13  328   2.754   3.908   2.490  0.1473  0.3131  0.1605
   13OCTO    C2  329   2.764   3.684   2.509  0.9031 -0.0324 -0.0861
   13OCTO   H21  330   2.844   3.615   2.477  2.3901  1.5393  0.0667
   13OCTO   H22  331   2.736   3.677   2.617 -3.0689  0.4862 -0.9350
   13OCTO    C3  332   2.630   3.662   2.443  0.7711  0.0221 -0.4625
   13OCTO   H31  333   2.561   3.738   2.487  1.6452  0.3788  0.3340
   13OCTO   H32  334   2.638   3.691   2.336  0.3118 -0.1708 -0.5521
   13OCTO    C4  335   2.575   3.521   2.458 -0.4206  0.4043 -0.4533
   13OCTO   H41  336   2.644   3.453   2.403  0.2384  0.9547 -0.3212
   13OCTO   H42  337   2.584   3.487   2.564  1.8216  0.7686 -0.4750
   13OCTO    C5  338   2.425   3.522   2.418 -0.7383 -0.1917 -0.0218
   13OCTO   H51  339   2.371   3.428   2.442 -0.4742 -0.2929  0.1863
   13OCTO   H52  340   2.377   3.607   2.471  1.4341  0.2814  1.3408
   13OCTO    C6  341   2.412   3.534   2.262 -0.1129 -0.0865  0.3383
   13OCTO   H61  342   2.460   3.631   2.237 -0.2307  0.5817  2.5054
   13OCTO   H62  343   2.457   3.445   2.213  1.3207  0.6887  0.1745
   13OCTO    C7  344   2.257   3.538   2.220 -0.5008  0.0297  0.1515
   13OCTO   H71  345   2.211   3.438   2.238 -0.2749  0.0941  1.1907
   13OCTO   H72  346   2.211   3.610   2.291 -0.2976 -1.5993  2.0235
   13OCTO    C8  347   2.237   3.566   2.076 -0.0438 -0.0805 -0.0875
   13OCTO   H81  348   2.137   3.542   2.034 -0.6198 -0.9379  1.6723
   13OCTO   H82  349   2.296   3.486   2.028 -1.0652 -0.7168 -0.3256
   13OCTO    O1  350   2.278   3.700   2.051  0.4653  0.1693  0.4098
   13OCTO   HO1  351   2.275   3.719   1.957 -0.4534  1.1785  0.6113
   14OCTO    C1  352   3.617   4.123   4.252 -0.7699  0.2224  0.3144
   14OCTO   H11  353   3.637   4.231   4.238 -0.6040  0.3772  1.6440
   14OCTO   H12  354   3.587   4.083   4.152  1.2570  1.1000 -0.6989
   14OCTO   H13  355   3.532   4.108   4.322 -0.1199 -0.8631  0.9125
   14OCTO    C2  356   3.742   4.064   4.304 -0.1310  0.1595  0.5677
   14OCTO   H21  357   3.786   4.121   4.388  3.0209 -0.7895 -0.3049
   14OCTO   H22  358   3.733   3.958   4.337 -2.4420 -0.2037 -0.9439
   14OCTO    C3  359   3.849   4.067   4.190  0.4837  0.1653 -0.5491
   14OCTO   H31  360   3.812   4.008   4.103  1.2964  0.6397 -1.2268
   14OCTO   H32  361   3.863   4.173   4.159  0.4645  1.0713  2.2374
   14OCTO    C4  362   3.987   4.006   4.230 -0.2853  0.1726  0.3676
   14OCTO   H41  363   3.976   3.905   4.272  2.3663  0.0163  0.8349
   14OCTO   H42  364   4.050   3.999   4.139  0.1919  2.1191  0.5048
   14OCTO    C5  365   4.072   4.107   4.319  0.4471  0.7702 -0.1614
   14OCTO   H51  366   4.062   4.209   4.279  1.0310  0.8772 -0.0558
   14OCTO   H52  367   4.029   4.113   4.422  0.2064 -1.4700 -0.0698
   14OCTO    C6  368   4.222   4.073   4.326  0.2482  0.6223 -0.2059
   14OCTO   H61  369   4.280   4.118   4.242  0.1218 -0.4643 -0.8961
   14OCTO   H62  370   4.266   4.095   4.425  0.0594 -1.5721  0.4084
   14OCTO    C7  371   4.255   3.920   4.305 -0.2684  0.4987  0.1713
   14OCTO   H71  372   4.188   3.849   4.358 -1.8154  0.2918 -1.9449
   14OCTO   H72  373   4.237   3.877   4.204  1.3362 -0.4774  0.2684
   14OCTO    C8  374   4.397   3.892   4.341 -0.0925 -0.0236 -0.4102
   14OCTO   H81  375   4.405   3.924   4.447 -2.7405 -1.4790  0.3194
   14OCTO   H82  376   4.464   3.957   4.282  0.6730 -0.1761  0.2781
   14OCTO    O1  377   4.434   3.751   4.332 -0.4788  0.1754 -0.3034
   14OCTO   HO1  378   4.456   3.735   4.424 -1.8634  2.3042  0.4891
   15OCTO    C1  379   0.860   1.552   2.773 -0.3868 -0.1750  0.0617
   15OCTO   H11  380   0.861   1.639   2.704 -0.3730 -1.3113 -1.4304
   15OCTO   H12  381   0.832   1.464   2.712  1.2318 -0.6906  0.0012
   15OCTO   H13  382   0.791   1.558   2.860 -0.3470 -1.6507  0.2253
   15OCTO    C2  383   1.004   1.519   2.822 -0.2107 -0.2891  0.0582
   15OCTO   H21  384   1.070   1.534   2.734 -0.8639 -1.6760 -0.6864
   15OCTO   H22  385   1.033   1.595   2.898  3.6143 -0.1804 -1.2725
   15OCTO    C3  386   1.022   1.379   2.873  0.8243  0.6111  0.7398
   15OCTO   H31  387   0.940   1.339   2.938 -0.1131 -1.7295 -1.6702
   15OCTO   H32  388   1.020   1.311   2.785 -0.6930  0.4306  0.8725
   15OCTO    C4  389   1.156   1.347   2.942  0.6077 -0.2269 -0.3285
   15OCTO   H41  390   1.174   1.393   3.041  1.6591  1.1227 -1.1174
   15OCTO   H42  391   1.146   1.238   2.964 -0.3569  0.0471  0.6688
   15OCTO    C5  392   1.277   1.378   2.859 -0.0265  0.4536  0.7084
   15OCTO   H51  393   1.265   1.339   2.756  0.8949  0.8327  0.4515
   15OCTO   H52  394   1.294   1.487   2.845 -0.6331  0.6747  1.6146
   15OCTO    C6  395   1.400   1.322   2.935 -0.4720  0.3774  0.4655
   15OCTO   H61  396   1.489   1.386   2.917  0.1466 -0.6317 -0.1146
   15OCTO   H62  397   1.379   1.319   3.044 -1.5480 -2.6905  0.2584
   15OCTO    C7  398   1.427   1.180   2.887  0.0116 -0.6099  0.8573
   15OCTO   H71  399   1.340   1.113   2.904  0.6437 -1.3158  1.3501
   15OCTO   H72  400   1.448   1.178   2.778 -3.2864 -1.2027  0.1220
   15OCTO    C8  401   1.531   1.105   2.970 -0.0875  0.7208  0.9037
   15OCTO   H81  402   1.481   1.031   3.036  1.5342 -1.0582  0.2215
   15OCTO   H82  403   1.577   1.170   3.047  0.0761  1.7619 -0.0506
   15OCTO    O1  404   1.641   1.045   2.908 -0.2894  0.3817  0.3224
   15OCTO   HO1  405   1.673   0.985   2.976 -0.7245 -1.7365 -1.2418
   16OCTO    C1  406   0.707   3.719   0.474 -1.1686  0.0500 -0.0392
   16OCTO   H11  407   0.682   3.816   0.425  0.4272  0.0900 -0.8354
   16OCTO   H12  408   0.696   3.712   0.584  2.2440  2.0342  0.5826
   16OCTO   H13  409   0.817   3.704   0.473 -0.5283  3.6948  0.8184
   16OCTO    C2  410   0.637   3.599   0.405  0.2457  0.0318 -0.2705
   16OCTO   H21  411   0.528   3.621   0.400  0.2559  0.4542  0.9978
   16OCTO   H22  412   0.687   3.582   0.307 -0.8883 -0.7877 -0.7288
   16OCTO    C3  413   0.643   3.474   0.489 -0.1225  0.7852 -0.3026
   16OCTO   H31  414   0.748   3.462   0.523 -1.1816  0.3007  3.2560
   16OCTO   H32  415   0.582   3.489   0.581 -2.6819 -1.0453 -1.5868
   16OCTO    C4  416   0.591   3.336   0.431  0.3266 -0.1430  0.3090
   16OCTO   H41  417   0.516   3.357   0.352  0.6488 -2.8270 -0.7993
   16OCTO   H42  418   0.677   3.286   0.380  0.8127  2.3709 -1.5386
   16OCTO    C5  419   0.545   3.242   0.539  0.5881 -0.4445  0.0970
   16OCTO   H51  420   0.474   3.288   0.611 -1.4602 -0.7887 -1.6046
   16OCTO   H52  421   0.498   3.158   0.484 -0.2019 -0.7476  1.2106
   16OCTO    C6  422   0.665   3.186   0.621  0.0932  0.4700 -0.0931
   16OCTO   H61  423   0.722   3.119   0.554  0.7666  0.1233  0.8154
   16OCTO   H62  424   0.723   3.276   0.649  0.0916  1.0747 -1.9478
   16OCTO    C7  425   0.620   3.121   0.755 -0.5579 -0.4758 -0.5479
   16OCTO   H71  426   0.718   3.092   0.799  0.2693  2.6397 -0.0723
   16OCTO   H72  427   0.575   3.200   0.820  2.3244  0.5669  0.3638
   16OCTO    C8  428   0.528   3.007   0.748  0.1377  0.3995  0.3968
   16OCTO   H81  429   0.551   2.937   0.664 -1.3114 -0.8282  0.9697
   16OCTO   H82  430   0.425   3.047   0.735  0.4767  0.6957 -1.8823
   16OCTO    O1  431   0.535   2.916   0.864 -0.1226  0.0157  0.8114
   16OCTO   HO1  432   0.443   2.910   0.891 -1.2183  1.8402 -2.0526
   17OCTO    C1  433   1.717   4.038   2.506 -0.1684 -0.4110 -0.7067
   17OCTO   H11  434   1.816   4.030   2.556 -0.5770  1.3332  0.4745
   17OCTO   H12  435   1.650   3.958   2.545 -3.3387  2.0147 -0.7879
   17OCTO   H13  436   1.723   4.036   2.395  0.5359 -1.9569 -0.6639
   17OCTO    C2  437   1.659   4.170   2.554 -0.1425  0.0918  1.1925
   17OCTO   H21  438   1.656   4.181   2.664  1.3782 -1.0712  1.3675
   17OCTO   H22  439   1.732   4.243   2.512 -0.5131  0.8899  1.8894
   17OCTO    C3  440   1.520   4.196   2.496 -0.5894  0.1837  0.3136
   17OCTO   H31  441   1.523   4.162   2.391  0.8830  2.5422 -0.4657
   17OCTO   H32  442   1.445   4.133   2.549 -2.7707  2.2952 -0.0844
   17OCTO    C4  443   1.475   4.343   2.499  0.1393 -0.2299 -0.1524
   17OCTO   H41  444   1.368   4.333   2.474  0.2189  0.9045 -0.9909
   17OCTO   H42  445   1.498   4.363   2.606  1.6158 -0.6686 -0.3568
   17OCTO    C5  446   1.557   4.438   2.409  0.2019 -0.2397  0.3131
   17OCTO   H51  447   1.662   4.440   2.446  1.0990 -2.0351 -1.8828
   17OCTO   H52  448   1.557   4.403   2.304 -0.3925  0.0882  0.2011
   17OCTO    C6  449   1.489   4.575   2.407 -1.0756 -0.1251 -0.2972
   17OCTO   H61  450   1.388   4.563   2.362 -0.7225  1.3260 -1.5756
   17OCTO   H62  451   1.463   4.605   2.511 -1.7014 -1.1806 -0.1341
   17OCTO    C7  452   1.558   4.689   2.324 -0.4814 -0.5408  0.1454
   17OCTO   H71  453   1.651   4.719   2.376 -0.0255  4.2453 -2.8374
   17OCTO   H72  454   1.585   4.632   2.232  0.8952 -0.7615  0.6650
   17OCTO    C8  455   1.478   4.816   2.293  0.2509  0.5282  0.1117
   17OCTO   H81  456   1.442   4.855   2.391 -1.2287 -3.2264  1.2620
   17OCTO   H82  457   1.384   4.795   2.238 -0.0314  2.2217 -0.1113
   17OCTO    O1  458   1.556   4.902   2.209 -0.6740 -0.2481  0.1052
   17OCTO   HO1  459   1.513   4.987   2.203 -0.0045  0.0389 -0.7890
   18OCTO    C1  460   3.886   3.152   3.261 -0.5984  0.5170 -0.7043
   18OCTO   H11  461   3.818   3.101   3.189 -1.2875  1.4246 -0.7237
   18OCTO   H12  462   3.898   3.259   3.235  2.7596  0.5142  0.3387
   18OCTO   H13  463   3.993   3.123   3.257 -1.1405 -1.7175 -0.4348
   18OCTO    C2  464   3.832   3.135   3.400 -0.7211 -0.4320  0.1666
   18OCTO   H21  465   3.870   3.035   3.427 -1.0739 -0.4874  0.4600
   18OCTO   H22  466   3.883   3.202   3.473 -0.7273 -0.8098  0.5197
   18OCTO    C3  467   3.683   3.148   3.423 -0.2771  0.6095  0.6493
   18OCTO   H31  468   3.630   3.069   3.366  3.0439 -0.9855 -0.5102
   18OCTO   H32  469   3.651   3.135   3.529 -0.5136  2.3583  0.8238
   18OCTO    C4  470   3.624   3.270   3.361  0.7601 -0.6886  0.4006
   18OCTO   H41  471   3.672   3.363   3.397  0.0891  1.0323 -2.7445
   18OCTO   H42  472   3.641   3.271   3.251 -1.6346 -0.9942 -0.0145
   18OCTO    C5  473   3.465   3.279   3.367 -0.8479 -0.1423  0.2367
   18OCTO   H51  474   3.434   3.374   3.318 -2.2479  0.4775  2.1779
   18OCTO   H52  475   3.430   3.199   3.297  1.6453  0.4124 -1.7926
   18OCTO    C6  476   3.417   3.287   3.515  0.3094 -0.5182 -0.2873
   18OCTO   H61  477   3.437   3.185   3.554 -0.5205 -0.6307 -0.1429
   18OCTO   H62  478   3.473   3.358   3.579  0.1708 -0.7847  0.1331
   18OCTO    C7  479   3.266   3.326   3.510  0.1495  0.1489  0.1783
   18OCTO   H71  480   3.263   3.421   3.453  0.1393  0.8295  1.3061
   18OCTO   H72  481   3.197   3.256   3.458 -0.8924  1.0247  0.3574
   18OCTO    C8  482   3.203   3.353   3.648  0.4650 -0.3159  0.7123
   18OCTO   H81  483   3.273   3.421   3.701  1.9392 -1.0555 -0.2270
   18OCTO   H82  484   3.198   3.253   3.696 -1.2943 -1.2128 -1.1558
   18OCTO    O1  485   3.076   3.409   3.629 -0.1411 -0.1203 -0.5473
   18OCTO   HO1  486   3.021   3.398   3.707 -0.6371  0.9858 -0.7243
   19OCTO    C1  487   1.489   3.114   3.078 -0.3350  0.5198 -0.4857
   19OCTO   H11  488   1.452   3.218   3.087 -0.4982  0.3870  0.5232
   19OCTO   H12  489   1.437   3.073   2.989 -0.6222  1.3399 -0.7026
   19OCTO   H13  490   1.443   3.056   3.161  0.0122  0.7791 -0.1036
   19OCTO    C2  491   1.642   3.107   3.074 -0.3419  0.2179  0.0331
   19OCTO   H21  492   1.671   3.009   3.033  1.2502  0.2580  0.9746
   19OCTO   H22  493   1.683   3.180   3.001 -2.3475  0.6437 -0.7265
   19OCTO    C3  494   1.720   3.114   3.205 -0.1919 -0.4515  0.0059
   19OCTO   H31  495   1.728   3.216   3.248  2.1930 -1.2214  1.5760
   19OCTO   H32  496   1.667   3.035   3.263 -0.8363  0.2040  0.3255
   19OCTO    C4  497   1.866   3.066   3.191 -0.8023  0.1949  0.0512
   19OCTO   H41  498   1.859   2.960   3.157  0.7762 -0.2520  1.0367
   19OCTO   H42  499   1.916   3.116   3.105 -0.1355 -3.0777 -1.6362
   19OCTO    C5  500   1.940   3.091   3.322  0.2351  0.2366  0.1461
   19OCTO   H51  501   1.935   3.198   3.352 -1.4623  0.4175 -0.6405
   19OCTO   H52  502   1.884   3.032   3.398  1.4589  0.2826  1.1040
   19OCTO    C6  503   2.078   3.031   3.323 -0.7819 -0.0542  0.3237
   19OCTO   H61  504   2.089   2.923   3.299  1.8260  0.4487 -1.0624
   19OCTO   H62  505   2.132   3.088   3.244 -0.5753  1.2801  1.4082
   19OCTO    C7  506   2.152   3.065   3.456 -0.2092 -0.4267 -0.0642
   19OCTO   H71  507   2.154   3.175   3.466 -3.8917 -0.2962  0.7901
   19OCTO   H72  508   2.085   3.024   3.535 -4.0945  2.0802 -1.7386
   19OCTO    C8  509   2.286   3.002   3.483 -0.2639 -0.5885  0.2616
   19OCTO   H81  510   2.354   3.023   3.397 -2.2581  1.3441 -0.9306
   19OCTO   H82  511   2.281   2.893   3.502 -1.6513 -1.0590 -2.3166
   19OCTO    O1  512   2.342   3.068   3.600  0.4575  0.1185  0.1435
   19OCTO   HO1  513   2.435   3.085   3.585 -0.0596  3.1115 -0.3050
   20OCTO    C1  514   0.150   2.561   3.211  0.2039  0.4611  0.7148
   20OCTO   H11  515   0.204   2.504   3.289  1.8837  1.3770  0.2741
   20OCTO   H12  516   0.219   2.648   3.199  3.9851 -2.4521 -0.4358
   20OCTO   H13  517   0.049   2.574   3.255  0.0857 -2.5427  1.5084
   20OCTO    C2  518   0.125   2.483   3.075 -0.3205 -0.5344 -0.1285
   20OCTO   H21  519   0.222   2.492   3.020  0.4636  2.6550  1.5702
   20OCTO   H22  520   0.092   2.379   3.100 -0.1659 -0.0795  2.1381
   20OCTO    C3  521   0.022   2.562   2.992  0.5161  0.6494 -0.0004
   20OCTO   H31  522  -0.065   2.585   3.057  0.8573  1.0054  0.3352
   20OCTO   H32  523   0.062   2.653   2.942  1.7420 -0.3986 -1.0005
   20OCTO    C4  524  -0.049   2.476   2.882  0.0850  0.1831  0.0040
   20OCTO   H41  525   0.034   2.440   2.817 -0.6818 -1.7997  0.0212
   20OCTO   H42  526  -0.096   2.390   2.935 -0.4253  1.1797  1.2053
   20OCTO    C5  527  -0.156   2.548   2.800  0.1676 -0.1400  0.1976
   20OCTO   H51  528  -0.236   2.578   2.871  0.0980 -0.5184  0.2808
   20OCTO   H52  529  -0.114   2.644   2.764  2.2092 -0.6321  1.1305
   20OCTO    C6  530  -0.211   2.469   2.677 -0.0174  0.4178 -0.0832
   20OCTO   H61  531  -0.140   2.464   2.591 -0.8145  0.3423 -0.7518
   20OCTO   H62  532  -0.244   2.367   2.703  0.6423  0.2708  0.1979
   20OCTO    C7  533  -0.337   2.545   2.638 -0.3874  0.2198  0.6046
   20OCTO   H71  534  -0.407   2.489   2.572 -1.0683  0.6255  0.9751
   20OCTO   H72  535  -0.392   2.579   2.728  0.1443 -1.3276  1.5631
   20OCTO    C8  536  -0.301   2.656   2.536  0.1091 -0.2153 -0.2011
   20OCTO   H81  537  -0.206   2.708   2.562 -1.4846  2.0600  1.5778
   20OCTO   H82  538  -0.383   2.731   2.529  1.4034  1.2256 -0.4766
   20OCTO    O1  539  -0.291   2.611   2.401 -0.2637  0.2804 -0.2889
   20OCTO   HO1  540  -0.315   2.686   2.346 -1.9235 -1.4307 -2.0603
   21OCTO    C1  541   0.584   0.508   0.853 -0.4067 -0.1447 -0.3352
   21OCTO   H11  542   0.576   0.598   0.918  1.3651  1.2660 -1.9683
   21OCTO   H12  543   0.493   0.506   0.789 -0.4534  1.0095 -0.3235
   21OCTO   H13  544   0.584   0.420   0.922 -0.3795 -0.7836 -1.1311
   21OCTO    C2  545   0.705   0.514   0.766 -0.2018  0.1532  0.3322
   21OCTO   H21  546   0.797   0.513   0.829  1.1459  2.3985 -1.4253
   21OCTO   H22  547   0.707   0.426   0.698 -0.1500 -0.1639  0.7408
   21OCTO    C3  548   0.709   0.648   0.694 -0.1731 -0.8147  0.0783
   21OCTO   H31  549   0.612   0.669   0.644 -0.2212 -1.7433 -0.2523
   21OCTO   H32  550   0.717   0.728   0.770 -1.0023 -0.8121  0.1771
   21OCTO    C4  551   0.825   0.665   0.587 -0.0898 -0.2401  0.3339
   21OCTO   H41  552   0.912   0.627   0.643  1.5071 -0.4847 -2.1504
   21OCTO   H42  553   0.806   0.593   0.504 -1.1382  1.5099 -1.0380
   21OCTO    C5  554   0.833   0.809   0.529  0.2980 -0.2459  0.6750
   21OCTO   H51  555   0.902   0.810   0.442  0.5740 -1.9783  0.8251
   21OCTO   H52  556   0.734   0.830   0.483  0.8816  0.4543 -0.3080
   21OCTO    C6  557   0.890   0.910   0.628 -0.0300 -0.1970  0.0090
   21OCTO   H61  558   0.822   0.934   0.712 -0.0767  2.5414 -0.7081
   21OCTO   H62  559   0.977   0.864   0.679  0.0598  0.7568  0.7527
   21OCTO    C7  560   0.943   1.035   0.557 -0.0707 -0.3677  0.3412
   21OCTO   H71  561   1.037   1.019   0.500  1.0113  2.3055  1.2181
   21OCTO   H72  562   0.869   1.077   0.486 -0.0194 -0.3756  0.2832
   21OCTO    C8  563   0.974   1.162   0.643 -0.6490  0.3293 -1.0077
   21OCTO   H81  564   1.028   1.122   0.731  0.7410 -0.3343 -2.1316
   21OCTO   H82  565   0.879   1.213   0.671 -1.1156 -1.7153  1.4843
   21OCTO    O1  566   1.060   1.246   0.570 -0.6494 -0.4624 -0.0269
   21OCTO   HO1  567   1.139   1.191   0.559 -0.9443 -1.0300  0.6111
   22OCTO    C1  568   2.133   2.353   0.394 -0.4990  0.2821  0.1692
   22OCTO   H11  569   2.104   2.413   0.305 -0.0772  1.3329  0.7271
   22OCTO   H12  570   2.072   2.383   0.482 -0.9771  0.2389 -0.1428
   22OCTO   H13  571   2.238   2.384   0.412 -0.2937  1.9491 -3.0421
   22OCTO    C2  572   2.134   2.197   0.363  0.0709 -0.1200  0.2232
   22OCTO   H21  573   2.031   2.158   0.344 -0.3620  0.5346  1.1447
   22OCTO   H22  574   2.205   2.173   0.281 -1.1142 -2.2124 -0.2693
   22OCTO    C3  575   2.175   2.096   0.468  0.5819  0.4622 -0.5133
   22OCTO   H31  576   2.236   2.014   0.424 -1.5112  0.0017 -2.7682
   22OCTO   H32  577   2.233   2.163   0.536  1.3234 -0.6126 -0.0608
   22OCTO    C4  578   2.066   2.037   0.552 -0.0650 -0.1736 -0.9885
   22OCTO   H41  579   2.105   2.000   0.649 -1.9889 -0.1269 -0.1578
   22OCTO   H42  580   1.999   2.120   0.584 -0.8575 -1.6416  1.4654
   22OCTO    C5  581   2.001   1.920   0.489 -0.5063  1.1058  0.2024
   22OCTO   H51  582   1.945   1.945   0.396 -0.7204 -0.0674 -0.0021
   22OCTO   H52  583   2.075   1.841   0.465 -0.0258  1.5112  0.3478
   22OCTO    C6  584   1.889   1.860   0.580  0.5068 -0.4545 -0.3052
   22OCTO   H61  585   1.939   1.840   0.677  0.0563 -0.6128 -0.1018
   22OCTO   H62  586   1.814   1.941   0.598 -0.0815 -1.3896  1.7807
   22OCTO    C7  587   1.811   1.741   0.529 -0.1621 -0.3202  0.5163
   22OCTO   H71  588   1.761   1.773   0.435 -0.4420 -1.1900  0.3599
   22OCTO   H72  589   1.882   1.661   0.500  0.9940  0.9222 -0.2344
   22OCTO    C8  590   1.705   1.682   0.628  0.3392 -0.1431  0.2870
   22OCTO   H81  591   1.622   1.755   0.633  0.4688  0.0723 -0.4838
   22OCTO   H82  592   1.737   1.657   0.731 -0.5438  0.7630  0.7875
   22OCTO    O1  593   1.661   1.556   0.582  0.0000 -0.0143 -0.2760
   22OCTO   HO1  594   1.731   1.493   0.601 -1.4400 -2.1079 -1.4910
   23OCTO    C1  595   3.534   0.572   0.385 -0.1188 -0.5306  0.3096
   23OCTO   H11  596   3.478   0.667   0.372  0.0167 -0.6936 -1.7943
   23OCTO   H12  597   3.641   0.588   0.362  0.3145  1.6192  3.3123
   23OCTO   H13  598   3.474   0.500   0.324  1.3719 -1.3349 -0.2690
   23OCTO    C2  599   3.516   0.524   0.529 -0.3567  0.0680  0.1267
   23OCTO   H21  600   3.579   0.596   0.585  0.5632 -0.4012 -0.2770
   23OCTO   H22  601   3.409   0.537   0.554  0.1109 -0.4836  2.6762
   23OCTO    C3  602   3.548   0.374   0.545 -0.1970 -0.5306  0.1808
   23OCTO   H31  603   3.489   0.310   0.475  1.3354 -1.2570 -0.5070
   23OCTO   H32  604   3.654   0.358   0.515  0.0812  2.1383 -0.4344
   23OCTO    C4  605   3.539   0.309   0.686  0.2780 -0.4967  0.3594
   23OCTO   H41  606   3.611   0.353   0.758  1.6265  0.8849 -1.7378
   23OCTO   H42  607   3.436   0.324   0.725  0.7299  0.8040  1.1133
   23OCTO    C5  608   3.566   0.157   0.693  0.4881  0.7409 -0.0897
   23OCTO   H51  609   3.504   0.103   0.619  0.0153 -0.3136  1.0341
   23OCTO   H52  610   3.672   0.133   0.672  0.5711 -0.2182  1.3076
   23OCTO    C6  611   3.517   0.102   0.823  0.0241  0.2956 -0.2022
   23OCTO   H61  612   3.556   0.168   0.903  0.0040  0.0559  0.0077
   23OCTO   H62  613   3.407   0.090   0.827  0.0260  0.4841  0.6865
   23OCTO    C7  614   3.567  -0.052   0.855 -0.6345  0.1835  0.6090
   23OCTO   H71  615   3.520  -0.075   0.953  1.3590  0.0668  1.5953
   23OCTO   H72  616   3.510  -0.115   0.783  0.4952  0.2260 -0.3630
   23OCTO    C8  617   3.716  -0.079   0.848  0.8256 -0.5107  0.4849
   23OCTO   H81  618   3.773  -0.005   0.908  1.0942  0.4266 -0.8803
   23OCTO   H82  619   3.742  -0.075   0.740 -1.3013 -0.6678 -0.0839
   23OCTO    O1  620   3.745  -0.208   0.896 -0.1359 -0.3873  0.0096
   23OCTO   HO1  621   3.787  -0.260   0.827  0.4781 -1.4609  1.1473
   24OCTO    C1  622   0.977   3.376   1.479 -0.6744 -0.6143  0.8711
   24OCTO   H11  623   0.971   3.440   1.389 -2.3113 -0.9248  0.7452
   24OCTO   H12  624   1.078   3.333   1.501 -1.0007 -1.5224  0.6221
   24OCTO   H13  625   0.902   3.298   1.457 -0.6311 -0.7108  1.0652
   24OCTO    C2  626   0.928   3.467   1.587  0.0922  0.3958 -0.3969
   24OCTO   H21  627   0.903   3.396   1.669 -1.4327  0.4045 -0.8288
   24OCTO   H22  628   1.008   3.538   1.618  0.5976  0.1413 -1.1121
   24OCTO    C3  629   0.800   3.548   1.547  0.2417 -0.1562  0.1882
   24OCTO   H31  630   0.814   3.623   1.466  2.2095 -1.8992 -1.1774
   24OCTO   H32  631   0.723   3.476   1.512 -1.2882  1.3248  0.3559
   24OCTO    C4  632   0.743   3.619   1.674  0.8239 -0.1207  0.3228
   24OCTO   H41  633   0.715   3.545   1.752  2.0885  0.9000  1.7898
   24OCTO   H42  634   0.820   3.686   1.717 -1.5274  1.7311  1.8681
   24OCTO    C5  635   0.616   3.697   1.635  0.2507 -0.0332  0.1007
   24OCTO   H51  636   0.622   3.741   1.533  0.6934  1.6586  0.8148
   24OCTO   H52  637   0.535   3.622   1.626  0.6828 -0.3826 -1.1103
   24OCTO    C6  638   0.592   3.804   1.739  0.4919 -0.8124 -0.0550
   24OCTO   H61  639   0.592   3.783   1.848 -1.3210  0.8846  0.3215
   24OCTO   H62  640   0.661   3.891   1.730 -0.1647 -0.4039 -1.5861
   24OCTO    C7  641   0.447   3.855   1.720 -0.6471 -0.7486  0.5970
   24OCTO   H71  642   0.429   3.893   1.617 -1.4466  1.7718  1.5890
   24OCTO   H72  643   0.386   3.762   1.720 -0.0067 -1.3968 -3.7365
   24OCTO    C8  644   0.395   3.948   1.824  0.2071 -0.2787 -0.0574
   24OCTO   H81  645   0.406   3.915   1.930  1.9748  0.1480 -0.0747
   24OCTO   H82  646   0.292   3.985   1.801  1.1475  2.0628 -0.7651
   24OCTO    O1  647   0.471   4.063   1.805 -0.2337  0.4461  0.4100
   24OCTO   HO1  648   0.561   4.037   1.826  0.6474  3.2356  0.5022
   25OCTO    C1  649   0.826   0.945   0.207 -0.3206  0.1576 -0.0786
   25OCTO   H11  650   0.829   0.835   0.220  0.2872  0.0083 -1.2727
   25OCTO   H12  651   0.787   0.988   0.302  0.0486  1.4016 -0.4695
   25OCTO   H13  652   0.757   0.962   0.121 -0.4251  1.0394  0.1677
   25OCTO    C2  653   0.970   1.001   0.186  0.6409  0.0418 -0.5077
   25OCTO   H21  654   1.032   0.967   0.271 -0.7886 -1.2999  0.0572
   25OCTO   H22  655   1.017   0.968   0.091 -0.3803  0.9961 -1.3814
   25OCTO    C3  656   0.961   1.149   0.174 -0.0075 -0.7837 -1.0089
   25OCTO   H31  657   0.877   1.176   0.106  1.5262  1.9813 -1.9476
   25OCTO   H32  658   0.952   1.195   0.275  1.6393 -0.8329 -0.8196
   25OCTO    C4  659   1.083   1.219   0.127  0.5001  0.4114  0.4374
   25OCTO   H41  660   1.168   1.187   0.191  1.3322  1.8591  0.0986
   25OCTO   H42  661   1.109   1.177   0.027 -1.1997 -0.6842  0.4130
   25OCTO    C5  662   1.077   1.372   0.125  0.4669  0.3871 -0.0754
   25OCTO   H51  663   0.986   1.402   0.069 -0.2391 -0.0893  0.8013
   25OCTO   H52  664   1.073   1.405   0.231 -3.4615 -3.3898  1.2009
   25OCTO    C6  665   1.210   1.435   0.064  0.7390  0.1533 -0.4782
   25OCTO   H61  666   1.300   1.422   0.128  1.5053 -0.6051 -1.6660
   25OCTO   H62  667   1.239   1.361  -0.014 -2.1829 -0.9469 -0.6716
   25OCTO    C7  668   1.191   1.571   0.001  0.0686 -0.3192  0.5189
   25OCTO   H71  669   1.122   1.570  -0.086  0.8953  2.8046 -0.2950
   25OCTO   H72  670   1.140   1.630   0.080 -0.8456  0.3457 -0.5290
   25OCTO    C8  671   1.321   1.641  -0.034  0.3478 -0.3812 -0.6155
   25OCTO   H81  672   1.377   1.589  -0.114 -0.5781 -0.8269 -0.9868
   25OCTO   H82  673   1.381   1.660   0.058 -0.6601  1.2306 -0.2449
   25OCTO    O1  674   1.294   1.769  -0.098  0.5048 -0.4010 -0.6342
   25OCTO   HO1  675   1.261   1.837  -0.040 -1.1786  0.1975 -2.2117
   26OCTO    C1  676   0.621   3.185   1.510  0.1321 -1.1890  0.2076
   26OCTO   H11  677   0.657   3.089   1.465  0.1173 -1.1014  0.0057
   26OCTO   H12  678   0.516   3.188   1.472 -0.7353  0.7176  2.5507
   26OCTO   H13  679   0.669   3.275   1.468  1.4907 -0.0518  3.8621
   26OCTO    C2  680   0.618   3.189   1.658 -1.1515 -0.0670 -0.5397
   26OCTO   H21  681   0.600   3.089   1.703  0.0299  0.1751  0.5158
   26OCTO   H22  682   0.721   3.209   1.693 -1.5131  0.7754  0.0612
   26OCTO    C3  683   0.545   3.300   1.725  0.3840  0.0544  0.0448
   26OCTO   H31  684   0.574   3.306   1.832  1.2987 -0.1270 -0.1833
   26OCTO   H32  685   0.583   3.395   1.681 -0.4118 -0.2953 -1.4697
   26OCTO    C4  686   0.389   3.287   1.713 -0.3637  0.1085  0.2930
   26OCTO   H41  687   0.365   3.273   1.605  1.3752 -1.2736  0.0286
   26OCTO   H42  688   0.358   3.202   1.777  3.2648  0.6731  3.1559
   26OCTO    C5  689   0.327   3.418   1.760  0.2879 -0.9340 -0.0321
   26OCTO   H51  690   0.365   3.448   1.860  1.2224 -0.7326 -0.4360
   26OCTO   H52  691   0.367   3.497   1.693 -1.2827 -0.2154 -0.1624
   26OCTO    C6  692   0.176   3.428   1.738  0.2947  0.1639 -0.0897
   26OCTO   H61  693   0.144   3.429   1.632  0.1205  1.3224 -0.0325
   26OCTO   H62  694   0.130   3.334   1.776 -0.3382  0.4762 -0.0774
   26OCTO    C7  695   0.110   3.548   1.798 -0.0369 -0.0937 -0.5595
   26OCTO   H71  696   0.130   3.563   1.907  0.1850  2.6171 -0.8913
   26OCTO   H72  697   0.148   3.646   1.762  1.2821  0.5244  2.2393
   26OCTO    C8  698  -0.045   3.540   1.792 -0.1393  0.0962  0.1065
   26OCTO   H81  699  -0.086   3.472   1.869 -2.8359  1.1691 -0.2633
   26OCTO   H82  700  -0.076   3.505   1.691 -1.7061  0.0126  0.5916
   26OCTO    O1  701  -0.109   3.664   1.813  0.1198 -0.1996  0.0171
   26OCTO   HO1  702  -0.198   3.647   1.844  0.8125 -0.4344  2.0373
   27OCTO    C1  703   3.111   0.759   4.209  0.0218 -0.1119 -0.4357
   27OCTO   H11  704   3.131   0.822   4.298  1.5454  0.6040 -1.2477
   27OCTO   H12  705   3.063   0.829   4.138  0.3581 -0.7114 -1.2671
   27OCTO   H13  706   3.032   0.689   4.243  1.0125 -1.9376 -1.7066
   27OCTO    C2  707   3.235   0.701   4.143  0.6404  0.0725 -0.2831
   27OCTO   H21  708   3.292   0.651   4.225  0.8013  2.6365  1.2956
   27OCTO   H22  709   3.199   0.634   4.063  2.2959 -1.7475  0.4319
   27OCTO    C3  710   3.337   0.799   4.080  0.1493  0.1727  0.3625
   27OCTO   H31  711   3.268   0.859   4.016 -1.2913  0.2254  1.8798
   27OCTO   H32  712   3.384   0.871   4.150 -1.2260  0.7938  0.6821
   27OCTO    C4  713   3.451   0.722   4.005  0.2870  1.3542 -0.0026
   27OCTO   H41  714   3.494   0.643   4.071 -1.2586  1.1488  0.8110
   27OCTO   H42  715   3.407   0.655   3.928  1.2795 -0.9006  1.2801
   27OCTO    C5  716   3.560   0.822   3.963  0.2368 -0.2015  0.0239
   27OCTO   H51  717   3.597   0.872   4.055  1.2671 -0.6819 -0.1125
   27OCTO   H52  718   3.640   0.755   3.924 -0.3739 -0.4733 -0.7862
   27OCTO    C6  719   3.524   0.929   3.867  0.5838  0.3766  0.0633
   27OCTO   H61  720   3.523   0.886   3.765 -2.9101  1.0186 -0.3087
   27OCTO   H62  721   3.432   0.984   3.898  1.3645  2.5994 -1.3275
   27OCTO    C7  722   3.633   1.034   3.875  0.1661  0.3159  0.4961
   27OCTO   H71  723   3.660   1.048   3.982  0.1364  2.0205  0.3060
   27OCTO   H72  724   3.718   0.980   3.828  0.0504  0.8651 -0.3566
   27OCTO    C8  725   3.589   1.151   3.797  0.0871  0.0498 -0.2842
   27OCTO   H81  726   3.499   1.199   3.843  0.1732 -0.4866  0.4644
   27OCTO   H82  727   3.557   1.119   3.695 -0.5878 -0.3289  0.0353
   27OCTO    O1  728   3.689   1.249   3.781 -0.2478  0.2949 -0.3048
   27OCTO   HO1  729   3.653   1.336   3.765 -0.4458  0.0076 -1.5510
   28OCTO    C1  730   2.940   4.275   1.949 -0.1747  0.5574  0.2106
   28OCTO   H11  731   2.862   4.347   1.984 -1.9233 -1.4192  0.5879
   28OCTO   H12  732   3.014   4.329   1.886  0.3225 -1.9743 -1.5367
   28OCTO   H13  733   2.887   4.202   1.883 -0.6719 -0.8486  2.0745
   28OCTO    C2  734   3.003   4.204   2.070 -0.1435 -0.1033  0.0209
   28OCTO   H21  735   3.032   4.273   2.152 -0.3484  0.4338 -0.3465
   28OCTO   H22  736   2.921   4.140   2.110  0.1526 -0.5777 -0.1289
   28OCTO    C3  737   3.133   4.127   2.031 -0.0526  0.1090 -0.1080
   28OCTO   H31  738   3.127   4.058   1.943  1.1243 -0.3495  0.1543
   28OCTO   H32  739   3.195   4.209   1.990 -0.6058  0.3196 -0.5406
   28OCTO    C4  740   3.203   4.058   2.149  0.4498 -0.2873 -0.0421
   28OCTO   H41  741   3.226   4.128   2.233 -0.8733 -1.1282  1.0609
   28OCTO   H42  742   3.133   3.985   2.194 -0.3002  1.4828  1.8410
   28OCTO    C5  743   3.334   3.991   2.105  0.5943 -0.1703 -0.8246
   28OCTO   H51  744   3.303   3.923   2.023 -1.7242 -1.8173  1.2575
   28OCTO   H52  745   3.407   4.064   2.064  0.5920 -0.0564 -0.6308
   28OCTO    C6  746   3.396   3.898   2.213  0.1078 -0.3921 -0.1381
   28OCTO   H61  747   3.392   3.945   2.313 -0.9953 -0.0074 -0.3434
   28OCTO   H62  748   3.336   3.806   2.231  1.6762 -1.9284 -2.2354
   28OCTO    C7  749   3.540   3.853   2.169 -1.2669  0.1517 -0.3039
   28OCTO   H71  750   3.540   3.802   2.070  3.1616 -0.2567 -0.2962
   28OCTO   H72  751   3.601   3.943   2.147 -1.4853  0.5585  0.6787
   28OCTO    C8  752   3.619   3.778   2.278  0.2795  0.3349 -0.7199
   28OCTO   H81  753   3.553   3.693   2.303  0.3296 -0.2924 -2.5641
   28OCTO   H82  754   3.638   3.837   2.371  0.2711 -1.5925  0.5657
   28OCTO    O1  755   3.744   3.738   2.227 -0.6871  0.0162  0.3333
   28OCTO   HO1  756   3.709   3.665   2.173  0.1266 -0.5795  0.5965
   29OCTO    C1  757   1.865   1.704   1.469 -0.5773 -0.0893 -0.6735
   29OCTO   H11  758   1.789   1.701   1.388 -0.3626  2.0077 -1.0160
   29OCTO   H12  759   1.940   1.622   1.471  0.3090  0.7159  0.2908
   29OCTO   H13  760   1.826   1.704   1.573  0.2465  0.2152 -0.3539
   29OCTO    C2  761   1.954   1.829   1.441  0.3839  0.5411  0.4317
   29OCTO   H21  762   2.020   1.856   1.527  1.9115  2.2777 -1.1789
   29OCTO   H22  763   2.019   1.804   1.355  1.4941 -1.1611  1.6906
   29OCTO    C3  764   1.864   1.949   1.405  0.5465 -0.7228  0.3469
   29OCTO   H31  765   1.835   1.938   1.298  1.9797 -0.3620 -0.1017
   29OCTO   H32  766   1.770   1.951   1.465  1.4040  1.1322  1.7363
   29OCTO    C4  767   1.932   2.083   1.443  0.8448 -0.1330  0.4651
   29OCTO   H41  768   1.932   2.094   1.554  1.2844 -0.2889  0.4817
   29OCTO   H42  769   2.033   2.068   1.401  0.4632 -0.9096 -0.1956
   29OCTO    C5  770   1.866   2.211   1.383 -0.1586  0.0551  0.2699
   29OCTO   H51  771   1.942   2.286   1.354  0.2198 -0.6658 -0.6575
   29OCTO   H52  772   1.811   2.182   1.291 -0.7130 -2.3933  1.2996
   29OCTO    C6  773   1.766   2.277   1.489 -0.4786 -0.4189 -0.1247
   29OCTO   H61  774   1.677   2.210   1.495  0.1122 -1.4979 -2.2483
   29OCTO   H62  775   1.821   2.279   1.585 -0.6543 -0.4837 -0.0222
   29OCTO    C7  776   1.719   2.423   1.453 -0.1933  0.2975  0.1773
   29OCTO   H71  777   1.811   2.480   1.432  0.7541 -1.3256 -0.2643
   29OCTO   H72  778   1.652   2.410   1.365  0.0830 -1.5101  0.1914
   29OCTO    C8  779   1.638   2.485   1.562 -0.3093 -0.3644  0.0326
   29OCTO   H81  780   1.681   2.492   1.664 -0.9271  1.5063  0.2235
   29OCTO   H82  781   1.552   2.416   1.571  0.3594 -1.2056  0.0135
   29OCTO    O1  782   1.584   2.612   1.524  0.0333 -0.1931  0.5089
   29OCTO   HO1  783   1.511   2.586   1.468  0.0019  2.8123 -1.0333
   30OCTO    C1  784   0.307   1.536   2.784  0.4712 -0.0883  0.8734
   30OCTO   H11  785   0.309   1.535   2.895  1.9078  0.4370  0.8792
   30OCTO   H12  786   0.379   1.616   2.754 -0.1155 -0.3442 -1.3851
   30OCTO   H13  787   0.202   1.542   2.750  1.6494 -0.5804 -3.5107
   30OCTO    C2  788   0.366   1.406   2.730 -0.1709  0.1111  0.5185
   30OCTO   H21  789   0.293   1.326   2.754  0.9109 -1.0208  0.1236
   30OCTO   H22  790   0.371   1.409   2.619  2.4109  0.8428  0.5758
   30OCTO    C3  791   0.495   1.360   2.786  0.9982 -0.5168  0.3943
   30OCTO   H31  792   0.579   1.427   2.760 -0.5187  1.4517  0.3331
   30OCTO   H32  793   0.489   1.356   2.897 -2.2505 -0.7366  0.3051
   30OCTO    C4  794   0.531   1.218   2.744  0.6973  0.1692  0.3340
   30OCTO   H41  795   0.443   1.151   2.743  2.5181 -2.4196  1.3201
   30OCTO   H42  796   0.574   1.221   2.642  0.2250 -0.4121  0.1125
   30OCTO    C5  797   0.631   1.150   2.833  0.1190 -0.8404  0.1772
   30OCTO   H51  798   0.721   1.215   2.833 -0.7438  0.4269 -1.6050
   30OCTO   H52  799   0.622   1.140   2.943  0.7371 -1.9531  0.1364
   30OCTO    C6  800   0.668   1.007   2.784  0.4492  0.3302  0.6856
   30OCTO   H61  801   0.576   0.945   2.778  0.0357  0.8002  1.7396
   30OCTO   H62  802   0.707   1.001   2.680 -2.0593 -0.6767 -0.2768
   30OCTO    C7  803   0.761   0.927   2.874  0.0810 -0.3463 -0.6074
   30OCTO   H71  804   0.769   0.965   2.978 -1.1162 -1.0783 -0.2302
   30OCTO   H72  805   0.717   0.826   2.882 -0.7601 -0.0191 -0.9383
   30OCTO    C8  806   0.903   0.909   2.812  0.6068 -0.4738 -0.1581
   30OCTO   H81  807   0.941   1.013   2.801 -0.0878 -0.0824  0.8956
   30OCTO   H82  808   0.894   0.850   2.719 -1.6717 -2.2496  1.1002
   30OCTO    O1  809   0.984   0.829   2.896  1.0046  0.1110 -0.4351
   30OCTO   HO1  810   0.952   0.742   2.871 -2.1463  0.9648  0.3049
   31OCTO    C1  811   1.716   2.358   3.733  0.2260 -0.1618 -0.1689
   31OCTO   H11  812   1.751   2.253   3.721 -2.6281 -1.0123 -2.0649
   31OCTO   H12  813   1.606   2.352   3.749  0.6820 -3.0547  3.2466
   31OCTO   H13  814   1.737   2.415   3.640 -1.8068  1.6721  0.4188
   31OCTO    C2  815   1.782   2.438   3.843 -0.3296 -0.5301  0.9084
   31OCTO   H21  816   1.727   2.533   3.860 -0.6948 -0.4858 -0.3822
   31OCTO   H22  817   1.770   2.386   3.940 -0.6770  0.1998  1.2679
   31OCTO    C3  818   1.928   2.473   3.816  0.0737 -0.1381  0.9091
   31OCTO   H31  819   1.977   2.374   3.829 -1.1345 -0.7242  1.1020
   31OCTO   H32  820   1.931   2.529   3.720 -0.6926  1.9036  2.0122
   31OCTO    C4  821   1.989   2.569   3.929  0.4055 -0.3250  0.5434
   31OCTO   H41  822   2.032   2.662   3.886 -0.0115 -1.6786 -3.1552
   31OCTO   H42  823   1.897   2.591   3.988 -0.3711 -1.0619 -0.3539
   31OCTO    C5  824   2.094   2.508   4.019  0.7829 -0.2204  0.0539
   31OCTO   H51  825   2.055   2.435   4.093  1.0397  0.2330  0.6377
   31OCTO   H52  826   2.169   2.450   3.960  0.5917 -0.8879  0.4559
   31OCTO    C6  827   2.173   2.618   4.085  0.6233  0.2007 -0.2117
   31OCTO   H61  828   2.218   2.681   4.006 -1.3312 -0.4307 -1.9079
   31OCTO   H62  829   2.104   2.671   4.154 -0.0260  0.9217 -1.3994
   31OCTO    C7  830   2.294   2.560   4.153  0.3503 -0.4565  0.4639
   31OCTO   H71  831   2.341   2.468   4.110  1.2883 -0.7124  1.9468
   31OCTO   H72  832   2.373   2.637   4.159 -0.4824  0.4054  0.5078
   31OCTO    C8  833   2.256   2.533   4.304  0.7017 -0.5377 -0.1542
   31OCTO   H81  834   2.178   2.454   4.310 -0.4755  0.5126 -0.9850
   31OCTO   H82  835   2.224   2.627   4.354  0.0782 -0.1334 -1.2619
   31OCTO    O1  836   2.369   2.482   4.367  0.1199 -0.6118 -0.1201
   31OCTO   HO1  837   2.397   2.396   4.337  2.0779  0.1480 -0.6737
   32OCTO    C1  838   0.362   0.714   1.433  1.0983  0.2394 -0.6469
   32OCTO   H11  839   0.438   0.650   1.482 -0.3165 -1.5829 -0.7306
   32OCTO   H12  840   0.384   0.823   1.438  0.4152  0.3660 -0.2924
   32OCTO   H13  841   0.268   0.707   1.492  0.7338  0.3598 -1.2026
   32OCTO    C2  842   0.335   0.669   1.291  0.3885  0.1379 -0.3572
   32OCTO   H21  843   0.426   0.671   1.227  0.5059 -0.9542 -0.2463
   32OCTO   H22  844   0.273   0.578   1.276 -1.5263  1.6467 -2.0735
   32OCTO    C3  845   0.243   0.774   1.228 -0.4715  0.1374 -0.2165
   32OCTO   H31  846   0.139   0.780   1.268 -0.5580  0.6041 -0.5109
   32OCTO   H32  847   0.291   0.873   1.243  1.0759 -0.1647 -2.5905
   32OCTO    C4  848   0.221   0.762   1.078 -0.2652  0.4534  0.3164
   32OCTO   H41  849   0.315   0.778   1.022 -1.3892 -1.0518 -2.1803
   32OCTO   H42  850   0.197   0.653   1.069  2.1839 -0.1115 -0.0339
   32OCTO    C5  851   0.102   0.844   1.018 -0.3155  0.5491 -0.4686
   32OCTO   H51  852   0.077   0.812   0.915  2.4884 -0.1939 -1.0071
   32OCTO   H52  853   0.012   0.835   1.083 -0.7351  0.6218 -1.0322
   32OCTO    C6  854   0.129   0.996   1.001 -0.6384  0.7075  0.9390
   32OCTO   H61  855   0.150   1.042   1.100  0.4160 -1.3846  1.7673
   32OCTO   H62  856   0.216   1.003   0.933 -1.0208  1.5116  0.5238
   32OCTO    C7  857   0.007   1.067   0.934  0.3065 -0.1495 -0.1943
   32OCTO   H71  858   0.057   1.156   0.889  1.4812  0.7527  2.6882
   32OCTO   H72  859  -0.042   1.014   0.850 -2.1354  2.0323 -0.2615
   32OCTO    C8  860  -0.103   1.111   1.035 -0.1574 -0.2705 -0.1642
   32OCTO   H81  861  -0.068   1.183   1.112 -0.9143  0.0241 -0.0904
   32OCTO   H82  862  -0.130   1.017   1.087  2.9575  0.0285  2.2788
   32OCTO    O1  863  -0.213   1.163   0.973  0.1387 -0.2717 -0.1358
   32OCTO   HO1  864  -0.274   1.172   1.047  0.3406 -2.6985  0.4327
   33OCTO    C1  865   1.721   3.725   1.363 -0.2194 -0.1785 -0.3053
   33OCTO   H11  866   1.645   3.645   1.355  0.9839 -1.4777  0.8202
   33OCTO   H12  867   1.821   3.685   1.389  0.7576  1.4750 -1.3391
   33OCTO   H13  868   1.694   3.787   1.452  0.6873 -0.1833 -0.0182
   33OCTO    C2  869   1.719   3.801   1.233  0.2346  0.0265 -0.1718
   33OCTO   H21  870   1.743   3.726   1.155 -1.0241 -1.0427  0.4264
   33OCTO   H22  871   1.621   3.844   1.204  1.5767  1.7912 -2.3691
   33OCTO    C3  872   1.809   3.922   1.232  0.0173 -0.1909  0.7736
   33OCTO   H31  873   1.795   3.966   1.130 -2.0330 -1.9130  0.2251
   33OCTO   H32  874   1.767   3.983   1.314  1.6095  0.1700  1.3561
   33OCTO    C4  875   1.958   3.891   1.265 -0.2782 -0.6728 -0.3721
   33OCTO   H41  876   1.977   3.858   1.369 -1.6494  0.9019  0.4200
   33OCTO   H42  877   1.991   3.816   1.190  0.9223 -0.9069  0.3555
   33OCTO    C5  878   2.036   4.023   1.236  0.3489 -0.0565 -0.5993
   33OCTO   H51  879   2.010   4.058   1.134 -3.5047  0.3058  0.3256
   33OCTO   H52  880   1.994   4.098   1.306 -0.0692 -0.3871 -0.4896
   33OCTO    C6  881   2.191   4.014   1.263 -0.3333  0.6237 -0.0255
   33OCTO   H61  882   2.219   3.908   1.251  1.4723  1.0298  0.3657
   33OCTO   H62  883   2.243   4.067   1.179  0.6971  0.0159  0.2221
   33OCTO    C7  884   2.228   4.065   1.404 -0.1826  0.2083 -0.1358
   33OCTO   H71  885   2.216   4.175   1.403 -0.9932  0.2648  3.2387
   33OCTO   H72  886   2.161   4.024   1.483 -0.7687  1.3730 -0.0035
   33OCTO    C8  887   2.373   4.034   1.438  0.0727  0.1591 -0.1652
   33OCTO   H81  888   2.414   4.102   1.516  3.0685  0.7126 -2.0588
   33OCTO   H82  889   2.438   4.060   1.352 -1.4879  0.9453 -1.1321
   33OCTO    O1  890   2.385   3.897   1.480 -0.4709 -0.1062 -0.0631
   33OCTO   HO1  891   2.469   3.882   1.526 -0.9262 -1.5186  0.3716
   34OCTO    C1  892   3.536   4.255   3.204 -1.0224  0.7176  1.1658
   34OCTO   H11  893   3.462   4.333   3.232 -1.7464  0.1420  0.8900
   34OCTO   H12  894   3.571   4.279   3.102 -2.4929 -2.2354 -0.1683
   34OCTO   H13  895   3.491   4.154   3.195 -2.5532  1.5277 -1.0241
   34OCTO    C2  896   3.648   4.245   3.310 -0.1305 -0.0089  0.7091
   34OCTO   H21  897   3.684   4.346   3.341 -3.3696  0.9424  1.8919
   34OCTO   H22  898   3.597   4.204   3.400 -1.5973  0.0246 -0.0833
   34OCTO    C3  899   3.767   4.151   3.265  0.6979 -0.3662  0.3252
   34OCTO   H31  900   3.717   4.056   3.237 -1.3233  1.0516 -1.1409
   34OCTO   H32  901   3.815   4.201   3.178 -0.0341 -0.7581 -0.3160
   34OCTO    C4  902   3.869   4.125   3.371 -0.4795  0.1635 -0.1968
   34OCTO   H41  903   3.810   4.100   3.462 -0.0989 -1.7111 -0.4286
   34OCTO   H42  904   3.931   4.043   3.331 -1.0559  0.2398 -1.2675
   34OCTO    C5  905   3.970   4.238   3.405 -0.0246  0.2280  0.3569
   34OCTO   H51  906   4.024   4.258   3.310 -0.5664 -0.6019 -0.1432
   34OCTO   H52  907   3.920   4.334   3.431 -0.3980 -0.4446  2.2964
   34OCTO    C6  908   4.066   4.202   3.529  0.9086 -0.1901  0.4396
   34OCTO   H61  909   4.135   4.288   3.536 -0.5643  1.1869 -0.9781
   34OCTO   H62  910   4.007   4.196   3.623 -3.1101 -0.2922 -1.8518
   34OCTO    C7  911   4.147   4.068   3.513 -0.6507 -1.3578 -0.7154
   34OCTO   H71  912   4.211   4.062   3.604 -0.1507  1.2912 -0.8349
   34OCTO   H72  913   4.078   3.980   3.518  0.7793 -2.5515 -1.2566
   34OCTO    C8  914   4.231   4.044   3.385  0.1444 -0.2860 -0.0245
   34OCTO   H81  915   4.313   4.118   3.375  2.6692 -3.1417 -2.7135
   34OCTO   H82  916   4.164   4.055   3.297  0.3580  1.6585  0.0213
   34OCTO    O1  917   4.295   3.918   3.391 -1.0019 -0.0580  0.0192
   34OCTO   HO1  918   4.373   3.927   3.336 -1.3756  0.7603 -0.3900
   35OCTO    C1  919   0.777   1.562   0.869 -0.4205  0.2618  0.2826
   35OCTO   H11  920   0.706   1.646   0.884 -0.1668  0.2460  1.7677
   35OCTO   H12  921   0.762   1.534   0.762  1.0144 -0.8527  0.3487
   35OCTO   H13  922   0.747   1.476   0.934 -2.0408  0.8992  0.4277
   35OCTO    C2  923   0.911   1.632   0.903 -0.1256 -0.1423 -0.8366
   35OCTO   H21  924   0.933   1.704   0.822  2.7791 -0.2961 -0.2839
   35OCTO   H22  925   0.892   1.685   0.999 -3.3042 -1.8049 -0.3854
   35OCTO    C3  926   1.034   1.549   0.933  0.3965  0.4425 -0.1728
   35OCTO   H31  927   1.080   1.496   0.847  2.5229  1.2422  0.4237
   35OCTO   H32  928   1.109   1.617   0.978  0.1094  1.0923 -0.6629
   35OCTO    C4  929   1.012   1.439   1.045 -0.2898  0.3727  0.1606
   35OCTO   H41  930   0.930   1.379   1.000  0.9331 -1.0904 -0.1859
   35OCTO   H42  931   1.097   1.368   1.052 -0.7020 -0.1358  0.0599
   35OCTO    C5  932   0.970   1.497   1.178 -0.0744  0.0942 -0.3845
   35OCTO   H51  933   1.032   1.585   1.207  0.9140  0.0768 -2.2602
   35OCTO   H52  934   0.863   1.526   1.184 -0.7687 -1.7807 -2.3894
   35OCTO    C6  935   0.995   1.391   1.292  0.2903  0.1614  0.3772
   35OCTO   H61  936   0.923   1.307   1.288  0.0615  0.4055 -0.8296
   35OCTO   H62  937   1.088   1.337   1.267  0.6830  0.4231  1.2249
   35OCTO    C7  938   0.983   1.439   1.443  0.1730 -0.0700  0.2302
   35OCTO   H71  939   1.057   1.520   1.459  0.0397  0.3842 -1.3053
   35OCTO   H72  940   0.883   1.488   1.452  0.3265  0.3389 -0.2467
   35OCTO    C8  941   0.985   1.323   1.542 -0.2713  0.2693 -0.4883
   35OCTO   H81  942   0.907   1.247   1.520 -0.3891  0.3756 -0.4398
   35OCTO   H82  943   0.981   1.364   1.645  2.1358 -1.2338  0.2780
   35OCTO    O1  944   1.112   1.259   1.525  0.5448  0.0614 -0.0609
   35OCTO   HO1  945   1.167   1.327   1.486  1.5731 -1.5097 -1.4720
   36OCTO    C1  946   1.708   1.907   2.767  0.3470  0.2929 -0.1147
   36OCTO   H11  947   1.613   1.910   2.709 -0.1600 -0.5072  0.6501
   36OCTO   H12  948   1.775   1.989   2.735  1.8541 -1.7550 -2.5625
   36OCTO   H13  949   1.757   1.809   2.750 -3.6963 -1.6687 -1.7528
   36OCTO    C2  950   1.671   1.899   2.919  0.1613 -0.5858  0.1337
   36OCTO   H21  951   1.763   1.920   2.977  0.3297  1.2256 -0.7087
   36OCTO   H22  952   1.603   1.982   2.948  0.5180 -1.1233  2.7739
   36OCTO    C3  953   1.603   1.765   2.961  0.9349 -0.4294 -0.3007
   36OCTO   H31  954   1.514   1.756   2.895  0.9283 -3.1837 -0.0157
   36OCTO   H32  955   1.672   1.688   2.921  0.3472 -0.6410 -0.9240
   36OCTO    C4  956   1.588   1.746   3.108 -0.0796  0.0663 -0.3597
   36OCTO   H41  957   1.685   1.760   3.161  0.5578 -3.5035 -0.3305
   36OCTO   H42  958   1.516   1.820   3.150 -0.2176  0.1650 -0.7637
   36OCTO    C5  959   1.534   1.602   3.147 -0.2700  0.0131 -0.1192
   36OCTO   H51  960   1.442   1.591   3.085  0.6088 -0.3881 -1.3879
   36OCTO   H52  961   1.604   1.520   3.122 -0.4433  0.0510 -0.7281
   36OCTO    C6  962   1.492   1.589   3.294 -0.5660  0.0706 -0.6119
   36OCTO   H61  963   1.413   1.659   3.330 -1.6815 -0.9960 -0.9281
   36OCTO   H62  964   1.439   1.492   3.300 -0.2706 -0.0715 -0.2111
   36OCTO    C7  965   1.607   1.602   3.403  0.2883  0.2076 -0.1106
   36OCTO   H71  966   1.694   1.539   3.371 -0.3389 -2.4161  2.7990
   36OCTO   H72  967   1.637   1.708   3.419  0.7059 -0.1257  1.5284
   36OCTO    C8  968   1.558   1.540   3.538  0.0441  0.4471  0.7895
   36OCTO   H81  969   1.511   1.442   3.515 -2.6912  2.1475 -1.6153
   36OCTO   H82  970   1.486   1.603   3.593 -0.6140 -2.0625  3.0219
   36OCTO    O1  971   1.670   1.540   3.628 -0.0807 -0.2092  0.3025
   36OCTO   HO1  972   1.642   1.490   3.705  0.9051 -0.7639  0.3250
   37OCTO    C1  973   3.501   1.681   2.632  0.1029 -0.0038  0.0527
   37OCTO   H11  974   3.611   1.692   2.621 -0.1127  1.5820 -0.8329
   37OCTO   H12  975   3.455   1.757   2.565 -2.3118 -0.6122  0.9283
   37OCTO   H13  976   3.478   1.708   2.737 -1.7263  1.1214 -0.5994
   37OCTO    C2  977   3.445   1.542   2.591 -0.1802  0.2475 -0.1614
   37OCTO   H21  978   3.500   1.474   2.659  0.4038 -0.2647 -1.1200
   37OCTO   H22  979   3.335   1.539   2.608  0.0495  1.9577  2.2426
   37OCTO    C3  980   3.496   1.494   2.453  0.0300  1.1388  0.1876
   37OCTO   H31  981   3.459   1.572   2.382  2.1683  0.5772 -1.6694
   37OCTO   H32  982   3.606   1.478   2.451 -0.1859 -0.7731  1.0286
   37OCTO    C4  983   3.428   1.364   2.411 -0.8489  0.4254 -0.1928
   37OCTO   H41  984   3.475   1.284   2.471 -0.7312  1.1011  0.6234
   37OCTO   H42  985   3.322   1.353   2.443 -0.5021 -2.5079  0.2544
   37OCTO    C5  986   3.454   1.333   2.261  0.8707  0.2183 -0.4408
   37OCTO   H51  987   3.565   1.331   2.249  1.2003 -0.0978  2.0910
   37OCTO   H52  988   3.418   1.230   2.240 -1.1404  1.4117 -3.4585
   37OCTO    C6  989   3.385   1.427   2.169  0.4502 -0.2279  0.5911
   37OCTO   H61  990   3.429   1.529   2.175 -0.8767  0.3968  0.0423
   37OCTO   H62  991   3.420   1.385   2.072  0.4478 -0.0012  0.4920
   37OCTO    C7  992   3.235   1.431   2.185 -0.0438  0.9233 -0.1672
   37OCTO   H71  993   3.198   1.327   2.177 -0.1078  0.7631  1.7025
   37OCTO   H72  994   3.213   1.471   2.287  0.9378  0.0561  0.4056
   37OCTO    C8  995   3.161   1.519   2.085  0.1293  0.0284 -0.2016
   37OCTO   H81  996   3.161   1.484   1.979 -0.5036 -0.7744  0.0476
   37OCTO   H82  997   3.200   1.622   2.096 -1.4727  0.5744  0.7295
   37OCTO    O1  998   3.023   1.529   2.114 -0.0749 -0.0804 -0.1794
   37OCTO   HO1  999   2.983   1.586   2.049 -0.3208 -0.4640 -0.3655
   38OCTO    C1 1000   0.633   2.325   2.692 -0.0269 -0.1953 -0.2317
   38OCTO   H11 1001   0.629   2.409   2.764  0.6650 -0.9508  0.7066
   38OCTO   H12 1002   0.676   2.242   2.751  1.4213  1.5385  1.2942
   38OCTO   H13 1003   0.714   2.351   2.621 -1.0170  4.8166  0.0882
   38OCTO    C2 1004   0.496   2.286   2.623  0.2779 -0.4098  0.9009
   38OCTO   H21 1005   0.447   2.379   2.587 -1.2914 -1.8264 -0.7952
   38OCTO   H22 1006   0.521   2.222   2.537  4.5028  2.4067 -0.2896
   38OCTO    C3 1007   0.392   2.216   2.713 -0.2210 -0.0054  0.3044
   38OCTO   H31 1008   0.440   2.124   2.753  1.0052  1.0884  1.4813
   38OCTO   H32 1009   0.380   2.287   2.798 -1.7791 -1.2795  1.2055
   38OCTO    C4 1010   0.255   2.181   2.657 -0.3594 -0.3703 -0.4485
   38OCTO   H41 1011   0.217   2.270   2.602 -0.8850 -1.1725 -1.4192
   38OCTO   H42 1012   0.257   2.101   2.580 -2.1147  0.0957 -1.0284
   38OCTO    C5 1013   0.150   2.151   2.762 -0.5582  0.1926 -0.3634
   38OCTO   H51 1014   0.154   2.048   2.803 -3.5654  0.3125  0.4728
   38OCTO   H52 1015   0.161   2.214   2.853 -0.1996  0.1760 -0.3936
   38OCTO    C6 1016   0.005   2.162   2.715 -0.1886  0.2425 -0.3937
   38OCTO   H61 1017  -0.050   2.157   2.811 -1.9470 -2.6117 -1.3908
   38OCTO   H62 1018  -0.009   2.268   2.685  0.3450  0.3820 -0.1484
   38OCTO    C7 1019  -0.049   2.060   2.627 -0.6885  0.0123 -0.1406
   38OCTO   H71 1020   0.014   2.053   2.535  1.0561 -1.4312  1.0864
   38OCTO   H72 1021  -0.046   1.960   2.675  1.8915  0.9917  1.9704
   38OCTO    C8 1022  -0.201   2.097   2.590  0.4776  0.0617 -0.6996
   38OCTO   H81 1023  -0.189   2.190   2.530  0.4036  0.5317  0.0076
   38OCTO   H82 1024  -0.267   2.111   2.678  1.0570  1.2281 -0.4267
   38OCTO    O1 1025  -0.264   1.988   2.525  0.2533  0.2245 -0.1373
   38OCTO   HO1 1026  -0.300   2.022   2.442  0.3235 -1.8455 -1.0786
   39OCTO    C1 1027   1.149   4.143   1.093  0.5775 -0.6042 -0.4077
   39OCTO   H11 1028   1.059   4.141   1.027  0.8908  0.7586 -0.8964
   39OCTO   H12 1029   1.125   4.102   1.193  3.8671  1.7594  1.5221
   39OCTO   H13 1030   1.181   4.247   1.112  0.1298 -0.4404 -0.5286
   39OCTO    C2 1031   1.243   4.057   1.014 -0.8754  0.0323  0.4159
   39OCTO   H21 1032   1.205   3.952   1.014  1.0731 -0.7179 -0.0455
   39OCTO   H22 1033   1.250   4.083   0.906 -0.8018  0.2199  0.4663
   39OCTO    C3 1034   1.389   4.054   1.063  0.9285 -0.3609  0.4162
   39OCTO   H31 1035   1.432   4.155   1.082  0.2529 -0.1580  0.8671
   39OCTO   H32 1036   1.389   4.012   1.166 -0.7846 -0.5404  0.3646
   39OCTO    C4 1037   1.492   3.975   0.975 -0.1393 -0.6209  0.4794
   39OCTO   H41 1038   1.484   4.028   0.877 -1.6303 -2.7528 -0.6487
   39OCTO   H42 1039   1.592   3.991   1.020 -0.6229  2.0403  0.7184
   39OCTO    C5 1040   1.475   3.823   0.958 -0.0851  0.3802  0.2893
   39OCTO   H51 1041   1.452   3.762   1.048 -4.0054 -1.4494 -1.7049
   39OCTO   H52 1042   1.389   3.804   0.890  1.0329 -1.5171 -0.6437
   39OCTO    C6 1043   1.597   3.763   0.899  0.4706 -0.2330 -0.2286
   39OCTO   H61 1044   1.687   3.807   0.946  0.7772 -0.0520 -0.9625
   39OCTO   H62 1045   1.598   3.657   0.931 -0.1714 -0.0719  0.3484
   39OCTO    C7 1046   1.601   3.771   0.742 -0.7369  0.0160  0.0290
   39OCTO   H71 1047   1.526   3.702   0.698 -0.4314 -0.9606  1.0064
   39OCTO   H72 1048   1.575   3.875   0.711 -0.8445 -0.3988 -1.3344
   39OCTO    C8 1049   1.733   3.743   0.667 -0.5488 -0.3398 -0.1808
   39OCTO   H81 1050   1.777   3.647   0.700  1.9619  1.1766  1.2622
   39OCTO   H82 1051   1.806   3.823   0.692 -2.0439  1.0096  0.0085
   39OCTO    O1 1052   1.691   3.732   0.534 -0.0683 -0.4216  0.5007
   39OCTO   HO1 1053   1.771   3.722   0.482 -0.2678  1.0576 -0.1201
   40OCTO    C1 1054   2.227   0.013   2.924  0.0875  0.0891  0.8424
   40OCTO   H11 1055   2.243  -0.007   3.032 -2.9226  0.1295  1.3726
   40OCTO   H12 1056   2.269   0.113   2.898 -1.0879  0.8586  1.7814
   40OCTO   H13 1057   2.120   0.003   2.895  0.4054  0.1423 -0.4226
   40OCTO    C2 1058   2.316  -0.078   2.835  0.0181  0.2668  0.4430
   40OCTO   H21 1059   2.290  -0.184   2.856  0.1889  0.1244 -0.0453
   40OCTO   H22 1060   2.292  -0.070   2.726  2.9705 -0.3954 -0.3498
   40OCTO    C3 1061   2.472  -0.072   2.848  0.1800 -0.0057 -0.0777
   40OCTO   H31 1062   2.509  -0.162   2.795 -0.4390 -1.3531  1.6437
   40OCTO   H32 1063   2.496   0.025   2.799 -2.4877  0.5807 -0.4203
   40OCTO    C4 1064   2.515  -0.090   2.993  0.0454 -0.1316 -0.0395
   40OCTO   H41 1065   2.460  -0.007   3.043 -3.0242 -1.4981 -0.9333
   40OCTO   H42 1066   2.492  -0.192   3.030  0.4006 -0.4982 -0.8101
   40OCTO    C5 1067   2.671  -0.067   3.004 -0.0940  0.2111  0.1280
   40OCTO   H51 1068   2.722  -0.151   2.952 -0.2183  0.5959 -0.6278
   40OCTO   H52 1069   2.706   0.026   2.954 -1.0844  1.3700  1.5205
   40OCTO    C6 1070   2.718  -0.048   3.146 -0.1188  0.3782  0.1904
   40OCTO   H61 1071   2.815   0.005   3.138  1.6443 -2.8401 -1.7584
   40OCTO   H62 1072   2.646   0.021   3.196  0.1189  1.6205 -1.1311
   40OCTO    C7 1073   2.747  -0.176   3.228  0.5853  0.0965 -0.7053
   40OCTO   H71 1074   2.720  -0.158   3.335 -0.5473 -0.1028 -0.9498
   40OCTO   H72 1075   2.672  -0.253   3.201  0.1360  0.7721 -1.4517
   40OCTO    C8 1076   2.891  -0.227   3.214  0.2234 -0.2325 -0.1055
   40OCTO   H81 1077   2.949  -0.187   3.301  0.0005 -1.4997  0.6527
   40OCTO   H82 1078   2.923  -0.189   3.115 -1.8947  0.5556 -0.5340
   40OCTO    O1 1079   2.887  -0.370   3.223 -0.3121  0.3785  0.9295
   40OCTO   HO1 1080   2.917  -0.403   3.308 -0.4149  1.3685  1.3568
   41OCTO    C1 1081   2.060   3.114   1.665 -0.1601 -0.4531 -0.2236
   41OCTO   H11 1082   1.989   3.164   1.595  0.0366 -1.2750 -1.0257
   41OCTO   H12 1083   2.166   3.139   1.645 -1.0719  1.3187 -3.8334
   41OCTO   H13 1084   2.035   3.006   1.670 -0.6295 -0.4081 -1.2959
   41OCTO    C2 1085   2.023   3.169   1.801  0.2195  0.1124 -0.8722
   41OCTO   H21 1086   2.046   3.278   1.798  0.6533  0.0173 -1.2042
   41OCTO   H22 1087   1.914   3.151   1.811 -0.1152  1.1653 -2.3108
   41OCTO    C3 1088   2.099   3.104   1.920 -0.6188 -0.1660  0.7230
   41OCTO   H31 1089   2.076   2.996   1.927 -1.1934  0.0289  2.4146
   41OCTO   H32 1090   2.207   3.127   1.910 -0.7206 -0.4159 -1.4080
   41OCTO    C4 1091   2.063   3.165   2.054  0.9593 -0.3273 -0.2709
   41OCTO   H41 1092   2.062   3.276   2.058  1.5769 -0.3554  1.2518
   41OCTO   H42 1093   1.958   3.134   2.074  1.4855 -1.3478  1.0355
   41OCTO    C5 1094   2.153   3.122   2.170  0.2726  0.5026 -0.1243
   41OCTO   H51 1095   2.180   3.016   2.152 -0.9664  0.7910 -4.8857
   41OCTO   H52 1096   2.246   3.181   2.155  0.4303 -0.1810 -2.0659
   41OCTO    C6 1097   2.085   3.135   2.310  0.2520  0.2909  0.4845
   41OCTO   H61 1098   2.067   3.243   2.329  1.6640  0.5636  0.3950
   41OCTO   H62 1099   1.985   3.087   2.317 -0.4696  1.7155  0.2508
   41OCTO    C7 1100   2.166   3.063   2.419 -0.3893 -0.1577 -0.3339
   41OCTO   H71 1101   2.110   3.046   2.513 -2.4110 -0.0388 -1.4781
   41OCTO   H72 1102   2.174   2.960   2.377 -3.0978 -0.4426 -0.2925
   41OCTO    C8 1103   2.309   3.124   2.443  0.0942 -0.0877  0.0298
   41OCTO   H81 1104   2.291   3.224   2.489  2.5933  0.8236 -0.8358
   41OCTO   H82 1105   2.368   3.138   2.350  0.1802  1.2439  0.2586
   41OCTO    O1 1106   2.380   3.056   2.547 -0.0976 -0.2028  0.3075
   41OCTO   HO1 1107   2.472   3.081   2.534  0.1686 -0.1248  2.1288
   42OCTO    C1 1108   0.634   0.258   0.370 -0.2341  0.2091 -0.0986
   42OCTO   H11 1109   0.544   0.193   0.365 -0.9566  1.1347  0.3775
   42OCTO   H12 1110   0.722   0.216   0.317 -1.9914 -1.5510 -1.7775
   42OCTO   H13 1111   0.674   0.260   0.474  0.0176  0.9310 -0.2002
   42OCTO    C2 1112   0.587   0.399   0.331 -0.3530 -0.3494  0.6405
   42OCTO   H21 1113   0.497   0.438   0.382 -0.3138  1.1911 -0.4102
   42OCTO   H22 1114   0.666   0.474   0.351  0.2981 -0.8828  0.1434
   42OCTO    C3 1115   0.546   0.408   0.181 -0.0363 -0.0376 -0.4085
   42OCTO   H31 1116   0.518   0.307   0.146  2.1181 -0.9251  0.2561
   42OCTO   H32 1117   0.470   0.487   0.160  1.2166  1.7740  1.4787
   42OCTO    C4 1118   0.662   0.443   0.086  0.2646  0.0125  0.0521
   42OCTO   H41 1119   0.686   0.551   0.078 -0.4207  0.2302  0.7395
   42OCTO   H42 1120   0.752   0.402   0.137  0.8358  1.7333  0.5053
   42OCTO    C5 1121   0.654   0.395  -0.059 -0.5126 -0.3870  0.2655
   42OCTO   H51 1122   0.567   0.432  -0.117  0.2322 -0.4740 -0.9585
   42OCTO   H52 1123   0.742   0.436  -0.114 -0.3931  0.6139  1.1821
   42OCTO    C6 1124   0.679   0.245  -0.070 -0.0027  0.4163  0.2091
   42OCTO   H61 1125   0.730   0.227  -0.167 -0.7408  0.9690 -0.2915
   42OCTO   H62 1126   0.749   0.214   0.010  0.5810  1.6818  0.2209
   42OCTO    C7 1127   0.549   0.155  -0.070 -0.8056 -0.2603 -0.2870
   42OCTO   H71 1128   0.534   0.138   0.038  0.3234 -0.1915 -0.1008
   42OCTO   H72 1129   0.461   0.212  -0.107  0.5904  0.9478 -1.9794
   42OCTO    C8 1130   0.554   0.023  -0.146 -0.2691  0.0229 -0.3861
   42OCTO   H81 1131   0.618  -0.046  -0.087  0.3538  1.5555  0.7864
   42OCTO   H82 1132   0.587   0.033  -0.252 -2.6855 -1.1913 -1.3209
   42OCTO    O1 1133   0.424  -0.037  -0.151  0.1277  0.3315 -0.1223
   42OCTO   HO1 1134   0.445  -0.114  -0.205 -1.0840  0.5380 -0.9246
   43OCTO    C1 1135   1.608   2.796   0.592 -0.3765  0.2326 -0.5457
   43OCTO   H11 1136   1.659   2.721   0.655  1.6456  1.8244 -0.1649
   43OCTO   H12 1137   1.505   2.813   0.630 -0.6244 -0.7057 -0.7633
   43OCTO   H13 1138   1.596   2.757   0.488 -1.1071 -3.8202  0.8979
   43OCTO    C2 1139   1.700   2.918   0.607 -0.0739 -0.8058 -0.5456
   43OCTO   H21 1140   1.731   2.921   0.713 -1.3911  0.2288 -0.1613
   43OCTO   H22 1141   1.795   2.912   0.550  1.2873 -1.2072  1.6609
   43OCTO    C3 1142   1.627   3.050   0.559  0.6398  0.1051 -0.4050
   43OCTO   H31 1143   1.614   3.045   0.449 -0.5051 -0.0953 -0.2786
   43OCTO   H32 1144   1.521   3.033   0.588  0.9321 -2.3329 -0.4888
   43OCTO    C4 1145   1.680   3.183   0.615  0.5973 -0.0151  0.1217
   43OCTO   H41 1146   1.654   3.208   0.720 -0.1401 -3.0111  0.7454
   43OCTO   H42 1147   1.791   3.178   0.608  0.5349 -0.6639 -0.5756
   43OCTO    C5 1148   1.638   3.309   0.535  0.4232  0.1761 -0.1565
   43OCTO   H51 1149   1.693   3.395   0.580  0.2426  0.8904 -1.2551
   43OCTO   H52 1150   1.673   3.294   0.430  2.0188  0.3730  0.3154
   43OCTO    C6 1151   1.485   3.326   0.546 -0.1250 -0.6055 -0.4613
   43OCTO   H61 1152   1.419   3.260   0.486 -1.3075 -0.4011  0.5846
   43OCTO   H62 1153   1.443   3.318   0.648  1.6046  0.4830  0.3745
   43OCTO    C7 1154   1.450   3.472   0.510  0.7824  0.6221 -0.3501
   43OCTO   H71 1155   1.345   3.494   0.539  0.3601 -1.6346  0.0475
   43OCTO   H72 1156   1.515   3.537   0.573  1.7575 -0.9174  0.2947
   43OCTO    C8 1157   1.475   3.510   0.362 -0.4936 -0.0717  0.3129
   43OCTO   H81 1158   1.398   3.469   0.293 -1.3179  2.4232 -0.3788
   43OCTO   H82 1159   1.576   3.480   0.328 -0.8534  1.5644 -2.4795
   43OCTO    O1 1160   1.465   3.651   0.358 -0.1869  0.6071  0.3959
   43OCTO   HO1 1161   1.537   3.701   0.397 -0.2269  0.9846 -0.0091
   44OCTO    C1 1162   2.678   2.265   1.067 -0.5895 -0.0714 -0.0161
   44OCTO   H11 1163   2.660   2.267   1.177 -2.2536  1.1152 -0.2796
   44OCTO   H12 1164   2.665   2.158   1.039  1.8426 -0.6871  0.9154
   44OCTO   H13 1165   2.781   2.297   1.040  0.2788 -1.3425  1.5566
   44OCTO    C2 1166   2.576   2.358   1.001  0.1528  0.0669 -0.6399
   44OCTO   H21 1167   2.474   2.320   1.020  0.7685 -0.9029  0.9024
   44OCTO   H22 1168   2.593   2.459   1.044  2.9325  0.0866 -1.5643
   44OCTO    C3 1169   2.596   2.371   0.849 -0.0327  0.2689 -0.2240
   44OCTO   H31 1170   2.705   2.371   0.828 -0.0094 -1.3075 -0.2318
   44OCTO   H32 1171   2.553   2.280   0.801  0.4814 -0.8371  1.3424
   44OCTO    C4 1172   2.532   2.491   0.785 -0.3035  0.4547  0.5336
   44OCTO   H41 1173   2.421   2.487   0.795 -0.5122  0.8732 -1.3311
   44OCTO   H42 1174   2.555   2.580   0.848 -0.8018 -0.4628  2.0747
   44OCTO    C5 1175   2.561   2.505   0.634 -0.2888  0.0998  0.5976
   44OCTO   H51 1176   2.671   2.515   0.619  0.2383 -1.8051  2.6351
   44OCTO   H52 1177   2.519   2.418   0.580 -0.6513  0.6900 -0.0860
   44OCTO    C6 1178   2.488   2.622   0.582  0.1094  0.1712  0.5075
   44OCTO   H61 1179   2.378   2.606   0.574 -0.0350  1.2943  0.0518
   44OCTO   H62 1180   2.506   2.701   0.657  2.9705 -1.6458  1.9116
   44OCTO    C7 1181   2.532   2.676   0.444  0.6157  0.4079  0.0636
   44OCTO   H71 1182   2.495   2.780   0.439  3.0055  1.2782 -1.0112
   44OCTO   H72 1183   2.643   2.674   0.439  0.6025 -0.8864 -0.1308
   44OCTO    C8 1184   2.478   2.598   0.321 -0.0218  0.0784 -0.2151
   44OCTO   H81 1185   2.367   2.602   0.329 -0.1909 -1.9395 -0.7883
   44OCTO   H82 1186   2.512   2.493   0.307  0.4457  0.2086 -0.0541
   44OCTO    O1 1187   2.507   2.663   0.200 -0.0801 -0.0174  0.0075
   44OCTO   HO1 1188   2.464   2.611   0.131 -0.8269  1.5147 -0.7309
   45OCTO    C1 1189   2.966   1.316   0.415  0.1317 -0.0352  0.4831
   45OCTO   H11 1190   2.999   1.274   0.512  2.0297  0.4158  0.0770
   45OCTO   H12 1191   2.880   1.380   0.444  0.2821 -0.5408  2.1689
   45OCTO   H13 1192   2.921   1.232   0.357  0.6104  0.5165 -0.7178
   45OCTO    C2 1193   3.089   1.374   0.343  0.1374 -0.7751  0.9341
   45OCTO   H21 1194   3.051   1.441   0.263  0.6401  2.5052  3.2179
   45OCTO   H22 1195   3.137   1.443   0.416  1.4679 -0.2337 -0.4037
   45OCTO    C3 1196   3.199   1.272   0.309 -1.5240  0.1787  0.3900
   45OCTO   H31 1197   3.227   1.214   0.399  0.1942 -0.2896 -0.4074
   45OCTO   H32 1198   3.161   1.198   0.234 -1.8031 -0.0443  0.7452
   45OCTO    C4 1199   3.326   1.343   0.261  0.0107 -0.0579  0.3990
   45OCTO   H41 1200   3.301   1.413   0.178  2.9602  3.1788  1.9869
   45OCTO   H42 1201   3.354   1.421   0.335  0.2492  1.8957 -1.6209
   45OCTO    C5 1202   3.438   1.248   0.238  0.0524 -0.2837  1.5800
   45OCTO   H51 1203   3.529   1.307   0.214 -0.1177 -1.4368 -2.8302
   45OCTO   H52 1204   3.464   1.170   0.313 -1.1144 -1.8344  0.4594
   45OCTO    C6 1205   3.419   1.178   0.092 -0.8063 -0.6865 -0.5840
   45OCTO   H61 1206   3.324   1.121   0.102 -0.9178 -0.9579 -2.7358
   45OCTO   H62 1207   3.414   1.254   0.010  0.7121  1.1549  0.9272
   45OCTO    C7 1208   3.531   1.077   0.049  0.0650 -1.0519 -0.2021
   45OCTO   H71 1209   3.512   1.046  -0.056  0.8191 -0.9178 -0.3783
   45OCTO   H72 1210   3.627   1.132   0.045 -0.6026  0.2241  0.8626
   45OCTO    C8 1211   3.551   0.954   0.134 -0.1704 -0.2115 -0.5121
   45OCTO   H81 1212   3.466   0.883   0.137  0.6037 -1.1310  0.1322
   45OCTO   H82 1213   3.571   0.981   0.240 -0.9112 -2.1096  0.1518
   45OCTO    O1 1214   3.671   0.890   0.089  0.5908 -0.3651  0.4869
   45OCTO   HO1 1215   3.734   0.962   0.094  0.7278 -0.4603  0.1147
   46OCTO    C1 1216   3.030   4.135   4.292  0.2566  0.6345  0.0836
   46OCTO   H11 1217   2.973   4.204   4.358  1.5656  1.9301 -0.0930
   46OCTO   H12 1218   3.120   4.115   4.353  1.7511  2.3876 -1.4222
   46OCTO   H13 1219   3.063   4.180   4.196  0.7589  0.3796  0.1342
   46OCTO    C2 1220   2.951   4.002   4.271 -1.0710 -0.7772 -0.0906
   46OCTO   H21 1221   3.019   3.918   4.245  0.0195 -0.0656  0.3857
   46OCTO   H22 1222   2.902   3.976   4.367  0.1631 -0.4543  0.6547
   46OCTO    C3 1223   2.855   4.022   4.150 -0.0336  0.3599  0.1113
   46OCTO   H31 1224   2.768   4.086   4.176 -0.3549  0.2657 -0.7240
   46OCTO   H32 1225   2.909   4.060   4.061 -1.4132  0.1756 -0.8367
   46OCTO    C4 1226   2.792   3.897   4.098  0.4074  0.5837 -0.1634
   46OCTO   H41 1227   2.868   3.829   4.054 -1.7976 -2.4705  0.3847
   46OCTO   H42 1228   2.747   3.843   4.184  2.5105 -0.2465  0.4703
   46OCTO    C5 1229   2.681   3.926   3.991 -0.1950  0.1268 -0.3615
   46OCTO   H51 1230   2.614   3.998   4.043 -0.1536 -1.0518  1.4232
   46OCTO   H52 1231   2.719   3.989   3.909 -1.5338  1.2212 -0.1783
   46OCTO    C6 1232   2.610   3.798   3.950 -0.1302 -0.0151  0.6355
   46OCTO   H61 1233   2.691   3.728   3.921  0.5862  0.9476  0.2540
   46OCTO   H62 1234   2.583   3.745   4.044  0.9989  2.1877  2.2859
   46OCTO    C7 1235   2.517   3.811   3.829 -0.3105  0.1361 -0.1412
   46OCTO   H71 1236   2.443   3.729   3.832 -0.0785 -0.1617 -1.6361
   46OCTO   H72 1237   2.460   3.906   3.834  0.6025  0.6621  0.6076
   46OCTO    C8 1238   2.602   3.802   3.700  0.5425 -0.0854 -0.2346
   46OCTO   H81 1239   2.690   3.735   3.699  0.9391  0.3137  2.4142
   46OCTO   H82 1240   2.645   3.903   3.683 -1.2708  0.7471 -0.1191
   46OCTO    O1 1241   2.506   3.770   3.601  0.3678 -0.5077  0.4620
   46OCTO   HO1 1242   2.555   3.743   3.522 -1.5425  1.5782 -1.6082
   47OCTO    C1 1243   0.793   2.498   0.163 -0.4113 -0.0702 -0.6133
   47OCTO   H11 1244   0.818   2.503   0.054 -0.1694  0.5796 -0.5320
   47OCTO   H12 1245   0.708   2.426   0.167 -0.6936  0.1416 -2.0306
   47OCTO   H13 1246   0.763   2.591   0.215  0.7930  1.1820 -2.0589
   47OCTO    C2 1247   0.909   2.426   0.236  0.1588 -0.1277  0.5690
   47OCTO   H21 1248   0.989   2.497   0.266  0.1361 -0.1167  0.6052
   47OCTO   H22 1249   0.878   2.392   0.337  0.0755  0.3951  0.7263
   47OCTO    C3 1250   0.979   2.308   0.166  0.1478 -0.3836  0.2270
   47OCTO   H31 1251   1.066   2.286   0.231 -0.6294  0.9432  1.7680
   47OCTO   H32 1252   0.922   2.212   0.167  0.2687 -0.4725 -0.5086
   47OCTO    C4 1253   1.009   2.350   0.020 -0.1897  0.0410  0.0388
   47OCTO   H41 1254   0.912   2.362  -0.034  0.1953 -1.3487 -1.0149
   47OCTO   H42 1255   1.067   2.444   0.022 -0.2455  0.1652 -2.1918
   47OCTO    C5 1256   1.103   2.250  -0.047  0.2133  0.2399 -0.5702
   47OCTO   H51 1257   1.186   2.218   0.019  0.3124 -2.6966 -1.9511
   47OCTO   H52 1258   1.041   2.159  -0.066 -0.8898  0.1220  2.9402
   47OCTO    C6 1259   1.162   2.290  -0.182  0.2575 -0.4084  0.2032
   47OCTO   H61 1260   1.076   2.290  -0.251 -0.0276 -3.2367  0.4400
   47OCTO   H62 1261   1.215   2.387  -0.170 -1.7099  0.6926  0.4350
   47OCTO    C7 1262   1.252   2.178  -0.226 -0.0796  0.0224  0.5305
   47OCTO   H71 1263   1.337   2.173  -0.155 -1.6609  0.0591  2.5318
   47OCTO   H72 1264   1.200   2.080  -0.228 -1.0194  0.5155 -0.6054
   47OCTO    C8 1265   1.290   2.191  -0.372 -0.3976  0.2913  0.0432
   47OCTO   H81 1266   1.371   2.121  -0.401  1.9273  1.8184  2.3576
   47OCTO   H82 1267   1.341   2.289  -0.384 -0.4011  0.4356  1.1768
   47OCTO    O1 1268   1.186   2.178  -0.466  0.4299 -0.4977 -0.0588
   47OCTO   HO1 1269   1.146   2.091  -0.459  2.4361 -1.4728 -0.2450
   48OCTO    C1 1270   0.595   3.313   2.169  0.3118  0.6578  0.5725
   48OCTO   H11 1271   0.653   3.346   2.258  0.6047  0.9594  0.2720
   48OCTO   H12 1272   0.606   3.203   2.158 -3.7515  0.1901 -0.4010
   48OCTO   H13 1273   0.635   3.375   2.087 -1.3544  2.4399  1.0527
   48OCTO    C2 1274   0.447   3.343   2.175 -0.4662  0.1190  0.6465
   48OCTO   H21 1275   0.407   3.332   2.072  2.5091  0.8735 -0.7012
   48OCTO   H22 1276   0.393   3.277   2.245  0.3421 -0.1052  1.0710
   48OCTO    C3 1277   0.425   3.484   2.211 -0.4407  0.0481 -0.0570
   48OCTO   H31 1278   0.446   3.495   2.319 -2.1715  2.8712  0.1147
   48OCTO   H32 1279   0.493   3.556   2.160 -0.3118  0.4179  0.6312
   48OCTO    C4 1280   0.273   3.517   2.200 -0.2466  0.2101  0.9888
   48OCTO   H41 1281   0.254   3.518   2.090  0.3068 -1.2029  0.8608
   48OCTO   H42 1282   0.204   3.441   2.240 -2.4272  0.3120 -2.2350
   48OCTO    C5 1283   0.233   3.654   2.246  0.0105 -0.7388 -0.4538
   48OCTO   H51 1284   0.265   3.678   2.350 -1.8120 -0.0005 -0.0185
   48OCTO   H52 1285   0.270   3.743   2.192 -1.3669  0.0940 -0.0672
   48OCTO    C6 1286   0.081   3.667   2.237 -0.2216  0.2423 -0.3261
   48OCTO   H61 1287   0.046   3.656   2.132  1.6205 -1.1445 -0.8404
   48OCTO   H62 1288   0.044   3.574   2.286  2.0870 -0.5963 -0.0745
   48OCTO    C7 1289   0.027   3.793   2.302 -0.1069 -0.6506  0.1174
   48OCTO   H71 1290  -0.082   3.798   2.282  0.1141 -0.8108 -1.3009
   48OCTO   H72 1291   0.056   3.785   2.409  1.2092 -0.7044 -0.2255
   48OCTO    C8 1292   0.089   3.920   2.234  0.6296 -0.5116  0.2555
   48OCTO   H81 1293   0.078   3.910   2.123 -0.3296  1.1787  0.1574
   48OCTO   H82 1294   0.197   3.929   2.260  0.4429  0.9062  0.6082
   48OCTO    O1 1295   0.020   4.033   2.281  0.4276  0.1265  0.3508
   48OCTO   HO1 1296   0.076   4.108   2.259  0.5370 -0.7299 -2.7820
   49OCTO    C1 1297   3.179   0.382   3.788 -0.2699 -1.1125 -0.2775
   49OCTO   H11 1298   3.213   0.479   3.829  4.5869 -1.4781 -2.7016
   49OCTO   H12 1299   3.262   0.309   3.793 -0.9543 -1.8549  0.5075
   49OCTO   H13 1300   3.165   0.393   3.678  0.4753 -1.6575 -0.4369
   49OCTO    C2 1301   3.047   0.322   3.849 -0.3741 -0.5074  0.4933
   49OCTO   H21 1302   3.073   0.276   3.947  0.7074 -2.7210 -0.7538
   49OCTO   H22 1303   2.959   0.389   3.861  0.8265  0.7998  2.8018
   49OCTO    C3 1304   2.988   0.204   3.761  1.1151 -0.2770  0.0777
   49OCTO   H31 1305   2.948   0.246   3.666  0.4710  1.4702  1.0877
   49OCTO   H32 1306   3.067   0.131   3.730  1.2877 -0.1418  0.1962
   49OCTO    C4 1307   2.880   0.135   3.845  0.8029 -0.0738 -0.3213
   49OCTO   H41 1308   2.929   0.080   3.928  0.2118 -1.7930 -1.0561
   49OCTO   H42 1309   2.799   0.208   3.869  0.5605 -0.7839  1.0869
   49OCTO    C5 1310   2.800   0.027   3.763 -0.0190  0.6541 -0.1654
   49OCTO   H51 1311   2.865  -0.038   3.702 -1.8103 -0.9505 -0.4622
   49OCTO   H52 1312   2.745  -0.051   3.821 -0.6154  0.0457 -1.5115
   49OCTO    C6 1313   2.699   0.091   3.671 -0.4596  0.0004 -0.8109
   49OCTO   H61 1314   2.610   0.131   3.726  0.6126  0.8559  0.3618
   49OCTO   H62 1315   2.739   0.182   3.621 -1.4511  0.3470 -0.9953
   49OCTO    C7 1316   2.650  -0.008   3.567  0.3428 -0.5360  0.6142
   49OCTO   H71 1317   2.737  -0.024   3.500 -0.9123  1.9712 -1.8281
   49OCTO   H72 1318   2.615  -0.098   3.622  0.3124 -0.4011  0.8187
   49OCTO    C8 1319   2.539   0.046   3.475 -0.7208  0.2781 -0.1179
   49OCTO   H81 1320   2.583   0.131   3.418 -0.3732 -1.2030 -2.1647
   49OCTO   H82 1321   2.460   0.096   3.534 -1.7992 -0.1105 -1.1860
   49OCTO    O1 1322   2.485  -0.050   3.385 -0.0281 -0.0597  0.0859
   49OCTO   HO1 1323   2.452  -0.126   3.435  2.7403 -1.2564  0.2886
   50OCTO    C1 1324   3.363   3.749   3.413  0.1071  0.0276 -0.0334
   50OCTO   H11 1325   3.415   3.678   3.345  2.5245  0.4354  1.2650
   50OCTO   H12 1326   3.438   3.820   3.454  0.3649  0.8881 -1.8713
   50OCTO   H13 1327   3.333   3.701   3.508  0.9444  1.5889  1.0582
   50OCTO    C2 1328   3.281   3.852   3.343  0.2293 -0.4123  0.2703
   50OCTO   H21 1329   3.177   3.814   3.333  0.2634 -0.1517 -1.2828
   50OCTO   H22 1330   3.270   3.946   3.401 -1.5945  1.2863 -2.5787
   50OCTO    C3 1331   3.342   3.896   3.203  0.4637 -0.0489 -0.5096
   50OCTO   H31 1332   3.302   3.996   3.176  1.6830  0.3084 -1.0716
   50OCTO   H32 1333   3.452   3.907   3.214  1.1236 -2.7433 -2.9099
   50OCTO    C4 1334   3.307   3.795   3.094  0.4419  0.0444  0.8187
   50OCTO   H41 1335   3.331   3.691   3.123 -3.8055 -2.5587 -3.5003
   50OCTO   H42 1336   3.198   3.802   3.079  0.8137  0.4170 -2.7062
   50OCTO    C5 1337   3.384   3.816   2.968 -0.5159 -0.5582  0.7831
   50OCTO   H51 1338   3.388   3.924   2.942 -2.1290 -0.4357  0.9833
   50OCTO   H52 1339   3.488   3.778   2.977 -0.7786 -1.2353  0.9603
   50OCTO    C6 1340   3.327   3.744   2.843  0.2378 -0.2516 -0.4580
   50OCTO   H61 1341   3.331   3.637   2.873 -0.2797 -0.8085 -2.2158
   50OCTO   H62 1342   3.220   3.769   2.832 -0.5118 -2.7031  0.6426
   50OCTO    C7 1343   3.410   3.766   2.712 -0.0903 -0.4450  0.2404
   50OCTO   H71 1344   3.350   3.723   2.628  3.0410 -2.5033 -1.1735
   50OCTO   H72 1345   3.413   3.875   2.692 -0.6546 -0.2118  1.3980
   50OCTO    C8 1346   3.548   3.703   2.707  0.4367 -0.8783 -0.3772
   50OCTO   H81 1347   3.544   3.599   2.747  0.7960 -0.6821  0.1842
   50OCTO   H82 1348   3.624   3.768   2.756 -0.6793  1.8047 -1.9808
   50OCTO    O1 1349   3.591   3.697   2.573  0.5577 -0.1201 -0.0002
   50OCTO   HO1 1350   3.683   3.670   2.576  1.3891  2.4964  0.4556
   51OCTO    C1 1351   3.632   0.651   1.775 -0.2999  0.4007  0.5672
   51OCTO   H11 1352   3.594   0.684   1.675 -1.7038 -2.0120  0.2190
   51OCTO   H12 1353   3.541   0.637   1.838 -0.1677  0.5061  0.7813
   51OCTO   H13 1354   3.700   0.729   1.817 -0.7546  1.5449 -0.7384
   51OCTO    C2 1355   3.698   0.512   1.748  0.3923 -0.4087 -0.6289
   51OCTO   H21 1356   3.718   0.467   1.847  1.6788 -0.3469 -0.8403
   51OCTO   H22 1357   3.633   0.437   1.698 -0.0696 -0.4242 -0.0104
   51OCTO    C3 1358   3.831   0.516   1.672  0.6895  0.5134  0.7612
   51OCTO   H31 1359   3.809   0.548   1.568 -4.2353 -0.5689  1.2218
   51OCTO   H32 1360   3.894   0.593   1.722  1.8188  0.1135  0.0040
   51OCTO    C4 1361   3.907   0.378   1.665  0.3569 -0.0044  0.4477
   51OCTO   H41 1362   3.864   0.311   1.587 -0.4977  0.4585  0.5165
   51OCTO   H42 1363   4.014   0.403   1.647  0.2947  0.6075  0.9305
   51OCTO    C5 1364   3.913   0.292   1.795  0.0546 -0.1299  0.1854
   51OCTO   H51 1365   3.911   0.361   1.882 -2.8817 -0.1387  0.2269
   51OCTO   H52 1366   3.818   0.235   1.800  0.3106 -0.4660  1.5453
   51OCTO    C6 1367   4.045   0.212   1.798  0.0286  0.3940  0.4598
   51OCTO   H61 1368   4.047   0.146   1.709  0.6723  1.8152 -0.6354
   51OCTO   H62 1369   4.130   0.283   1.786 -0.1127  1.0135  2.6741
   51OCTO    C7 1370   4.042   0.126   1.930  0.1671 -0.1348  0.1194
   51OCTO   H71 1371   4.049   0.198   2.015 -0.4295  0.9412 -0.7144
   51OCTO   H72 1372   3.951   0.064   1.928 -0.2443  0.4205  0.8785
   51OCTO    C8 1373   4.158   0.018   1.942  0.3928 -0.3017  0.1732
   51OCTO   H81 1374   4.262   0.057   1.941  0.2566  0.0735  0.3746
   51OCTO   H82 1375   4.151  -0.045   1.851 -1.2022  1.9175 -1.3252
   51OCTO    O1 1376   4.135  -0.061   2.059  1.1380  0.6681 -0.0933
   51OCTO   HO1 1377   4.195  -0.135   2.066 -0.9608 -1.1897 -0.4192
   52OCTO    C1 1378   0.653   1.333   4.130 -0.1594  0.2592 -0.0180
   52OCTO   H11 1379   0.562   1.284   4.172  1.2470 -0.7693  1.9686
   52OCTO   H12 1380   0.619   1.396   4.045  1.2973 -0.6004 -1.2787
   52OCTO   H13 1381   0.719   1.262   4.076  0.2708  1.2463 -0.8270
   52OCTO    C2 1382   0.727   1.424   4.234 -0.3564  0.5325  0.0300
   52OCTO   H21 1383   0.765   1.343   4.300 -1.1985 -0.4420 -0.6353
   52OCTO   H22 1384   0.812   1.471   4.180  0.2413 -0.6007 -0.0570
   52OCTO    C3 1385   0.640   1.526   4.301  0.1149 -0.0971 -0.7832
   52OCTO   H31 1386   0.581   1.582   4.225 -0.5682  0.4553  0.1221
   52OCTO   H32 1387   0.561   1.482   4.366  1.2515  1.3089  1.6803
   52OCTO    C4 1388   0.711   1.623   4.398  0.0207 -0.1908  0.5490
   52OCTO   H41 1389   0.648   1.668   4.478  1.1607 -0.4851  1.6354
   52OCTO   H42 1390   0.781   1.560   4.457  0.2577 -1.1634 -0.7346
   52OCTO    C5 1391   0.810   1.726   4.335  0.1356  0.1670  0.8623
   52OCTO   H51 1392   0.889   1.667   4.284 -0.2270  0.8025 -0.4679
   52OCTO   H52 1393   0.767   1.788   4.254  1.4244  0.8852  0.6933
   52OCTO    C6 1394   0.885   1.812   4.439 -0.4580  0.6284  0.3751
   52OCTO   H61 1395   0.829   1.887   4.499 -0.7768  1.0496 -0.4316
   52OCTO   H62 1396   0.927   1.745   4.517 -0.2661  1.0205  0.6141
   52OCTO    C7 1397   1.001   1.890   4.375  0.2209  0.0496  0.1013
   52OCTO   H71 1398   1.044   1.829   4.292 -0.6568  1.9821 -1.8868
   52OCTO   H72 1399   0.953   1.973   4.319 -0.0865 -0.9754 -1.2195
   52OCTO    C8 1400   1.106   1.929   4.476  0.1531  0.3392 -0.0955
   52OCTO   H81 1401   1.135   1.838   4.533  2.0905  2.0308  1.7843
   52OCTO   H82 1402   1.073   2.015   4.539 -1.4328 -0.0276 -0.3703
   52OCTO    O1 1403   1.218   1.975   4.397  0.4801 -0.2451 -0.0064
   52OCTO   HO1 1404   1.297   1.976   4.452  0.6056  1.2331 -0.1750
   53OCTO    C1 1405   3.691   2.658   3.252  0.0955 -0.1960 -0.4610
   53OCTO   H11 1406   3.608   2.585   3.248 -0.5895  0.4998  0.5688
   53OCTO   H12 1407   3.643   2.742   3.199 -0.3266  0.4778  0.9368
   53OCTO   H13 1408   3.780   2.619   3.198  1.8718  0.2620  1.9328
   53OCTO    C2 1409   3.740   2.700   3.388  0.1237 -0.2956 -0.5207
   53OCTO   H21 1410   3.821   2.776   3.381 -0.8235  0.8418  0.3971
   53OCTO   H22 1411   3.659   2.760   3.436 -0.2378 -1.2363  0.0793
   53OCTO    C3 1412   3.792   2.590   3.478  0.5721  0.6202  0.8161
   53OCTO   H31 1413   3.704   2.525   3.496  1.9105 -2.0434 -1.3996
   53OCTO   H32 1414   3.861   2.515   3.433  1.0740  0.1942  2.2358
   53OCTO    C4 1415   3.834   2.661   3.612 -0.7999 -0.1990 -0.6370
   53OCTO   H41 1416   3.916   2.734   3.596 -0.7740 -0.3425 -1.1419
   53OCTO   H42 1417   3.744   2.706   3.660 -1.9224 -1.3872 -1.5410
   53OCTO    C5 1418   3.894   2.557   3.709 -0.8963  0.3712 -0.7858
   53OCTO   H51 1419   3.983   2.512   3.660 -0.0646 -2.3788  2.8220
   53OCTO   H52 1420   3.922   2.611   3.802 -2.4658 -0.4766  0.2244
   53OCTO    C6 1421   3.803   2.439   3.749 -0.2052 -0.2189  0.3839
   53OCTO   H61 1422   3.789   2.365   3.666 -1.0794 -0.7230  0.9549
   53OCTO   H62 1423   3.837   2.381   3.837 -0.1660 -1.2527 -0.2855
   53OCTO    C7 1424   3.659   2.492   3.775 -0.1295  0.3446  0.3704
   53OCTO   H71 1425   3.656   2.593   3.821 -1.6363  0.0424  0.9976
   53OCTO   H72 1426   3.610   2.510   3.677 -0.3006  0.6599  0.5096
   53OCTO    C8 1427   3.565   2.397   3.865 -0.5400  0.2669 -0.1921
   53OCTO   H81 1428   3.539   2.307   3.806  0.5948 -0.8067  0.8638
   53OCTO   H82 1429   3.472   2.449   3.897 -0.7083 -1.4394  2.5186
   53OCTO    O1 1430   3.626   2.343   3.983 -0.6198  0.0640  0.2741
   53OCTO   HO1 1431   3.672   2.266   3.949 -0.1367  1.2295 -1.8112
   54OCTO    C1 1432   0.847   3.510   2.708  0.4205  0.3663 -0.1940
   54OCTO   H11 1433   0.798   3.610   2.714  0.1835  0.2225  0.3369
   54OCTO   H12 1434   0.770   3.432   2.691  0.3558  0.8230 -2.2096
   54OCTO   H13 1435   0.880   3.490   2.812  0.0870  1.4195  0.1291
   54OCTO    C2 1436   0.962   3.510   2.603  0.2131  0.7985  0.0798
   54OCTO   H21 1437   1.034   3.594   2.616  2.7523 -0.9556 -1.7606
   54OCTO   H22 1438   1.022   3.419   2.625  1.3020  1.8252  1.6544
   54OCTO    C3 1439   0.918   3.510   2.457  0.1214 -0.2696 -0.1605
   54OCTO   H31 1440   1.013   3.508   2.399 -0.0105  1.7823 -0.4960
   54OCTO   H32 1441   0.869   3.412   2.436  0.3860 -0.6911  1.1073
   54OCTO    C4 1442   0.835   3.635   2.413  0.1886  0.1463 -0.2928
   54OCTO   H41 1443   0.758   3.655   2.490 -1.4612 -0.5413 -1.7045
   54OCTO   H42 1444   0.901   3.724   2.418  0.3205  0.0892 -0.9507
   54OCTO    C5 1445   0.778   3.618   2.276 -0.1652 -0.0790  0.2805
   54OCTO   H51 1446   0.850   3.576   2.203 -0.1383  0.3260  0.0708
   54OCTO   H52 1447   0.687   3.555   2.281  0.4264 -0.9734  0.0460
   54OCTO    C6 1448   0.737   3.758   2.223  0.0710  0.1905 -0.4122
   54OCTO   H61 1449   0.826   3.823   2.233  0.4514 -0.4163  0.2248
   54OCTO   H62 1450   0.718   3.748   2.114  3.4736 -1.4165 -0.9849
   54OCTO    C7 1451   0.612   3.826   2.283 -0.0633 -0.1695 -0.1391
   54OCTO   H71 1452   0.531   3.752   2.264  1.8182 -3.2009  2.6098
   54OCTO   H72 1453   0.613   3.846   2.392 -0.7920  1.8327 -0.4713
   54OCTO    C8 1454   0.581   3.961   2.217 -0.1078 -0.1903 -0.3280
   54OCTO   H81 1455   0.567   3.949   2.108 -0.7568  2.0410 -0.5323
   54OCTO   H82 1456   0.671   4.026   2.227 -1.3847  1.3643  1.7114
   54OCTO    O1 1457   0.471   4.012   2.284 -0.2958  0.2694 -1.3882
   54OCTO   HO1 1458   0.445   4.092   2.237  2.3929  1.4546 -1.0323
   55OCTO    C1 1459   2.728   1.754   4.242  0.5362  0.0836  0.6409
   55OCTO   H11 1460   2.808   1.830   4.225 -0.1735  0.7414  0.1447
   55OCTO   H12 1461   2.644   1.799   4.299 -0.1289  1.6431 -1.4284
   55OCTO   H13 1462   2.779   1.668   4.290  0.9741 -1.1978 -1.9204
   55OCTO    C2 1463   2.662   1.710   4.111 -0.2224 -0.3552  0.5041
   55OCTO   H21 1464   2.569   1.651   4.120  0.4712 -1.6240 -0.3580
   55OCTO   H22 1465   2.632   1.800   4.053  0.5761  0.9538  2.0302
   55OCTO    C3 1466   2.769   1.628   4.029  0.3245 -0.1102  0.2663
   55OCTO   H31 1467   2.861   1.689   4.014  1.0177 -1.3853 -0.9149
   55OCTO   H32 1468   2.799   1.539   4.088 -0.9763  0.6355  2.1322
   55OCTO    C4 1469   2.720   1.585   3.892  0.0102 -0.4080 -0.0823
   55OCTO   H41 1470   2.640   1.509   3.907  0.5717 -1.3171 -1.5168
   55OCTO   H42 1471   2.669   1.672   3.845 -0.7297 -1.5791 -1.5428
   55OCTO    C5 1472   2.826   1.532   3.800 -0.2254  0.4954 -0.0636
   55OCTO   H51 1473   2.906   1.609   3.790 -0.1192  0.2718 -0.9682
   55OCTO   H52 1474   2.867   1.447   3.858  0.8627 -0.1717 -1.7681
   55OCTO    C6 1475   2.766   1.495   3.665  0.4955  0.0623 -0.5048
   55OCTO   H61 1476   2.664   1.454   3.678  1.9646 -3.7066  0.3989
   55OCTO   H62 1477   2.766   1.593   3.612  2.4614  0.8365  0.8167
   55OCTO    C7 1478   2.842   1.392   3.576 -0.4444 -0.3312 -0.1884
   55OCTO   H71 1479   2.948   1.424   3.574  0.3190 -2.6739 -2.1513
   55OCTO   H72 1480   2.847   1.289   3.616  0.4027  0.5861  2.2530
   55OCTO    C8 1481   2.802   1.391   3.424 -0.0433  0.5138 -0.2769
   55OCTO   H81 1482   2.815   1.487   3.371 -1.6898  0.1072 -1.4933
   55OCTO   H82 1483   2.691   1.393   3.419 -0.0682  1.7164  0.2772
   55OCTO    O1 1484   2.863   1.275   3.370 -0.5901 -0.4378  0.5421
   55OCTO   HO1 1485   2.820   1.206   3.421 -0.5090 -0.9753 -0.0992
   56OCTO    C1 1486   1.058   3.191   4.075  0.3682 -0.4654 -0.9570
   56OCTO   H11 1487   0.959   3.209   4.026  0.1592  2.2434  0.3050
   56OCTO   H12 1488   1.104   3.093   4.051  3.8506  0.4933  1.1894
   56OCTO   H13 1489   1.044   3.180   4.184  0.6041 -2.2532 -1.0712
   56OCTO    C2 1490   1.160   3.308   4.033  0.8286  0.2793 -0.4760
   56OCTO   H21 1491   1.147   3.313   3.923  0.0560  0.6733 -0.3793
   56OCTO   H22 1492   1.121   3.407   4.067  0.2437 -0.1506  0.1396
   56OCTO    C3 1493   1.298   3.268   4.070 -0.7406 -0.3077  0.2345
   56OCTO   H31 1494   1.309   3.282   4.180 -2.1865  1.1768  0.2310
   56OCTO   H32 1495   1.305   3.161   4.041 -0.5695 -0.3420  0.4010
   56OCTO    C4 1496   1.416   3.353   4.008 -0.2544  0.4054 -0.0018
   56OCTO   H41 1497   1.503   3.308   4.060 -1.2845  0.1468  1.5682
   56OCTO   H42 1498   1.423   3.334   3.899  0.4700 -2.0163  0.3990
   56OCTO    C5 1499   1.410   3.501   4.059  0.2085 -0.2040 -0.0127
   56OCTO   H51 1500   1.310   3.534   4.026  0.1805 -1.7010 -1.5672
   56OCTO   H52 1501   1.428   3.496   4.168 -1.5896  1.5089  0.4176
   56OCTO    C6 1502   1.525   3.588   4.003  0.4301 -1.2046  0.1985
   56OCTO   H61 1503   1.520   3.570   3.893 -0.2803  1.2742 -0.2364
   56OCTO   H62 1504   1.509   3.697   4.010 -0.7003 -1.3218 -0.2703
   56OCTO    C7 1505   1.656   3.546   4.060  0.1612 -0.4626  0.2733
   56OCTO   H71 1506   1.656   3.575   4.167 -1.4253 -0.1474  0.2110
   56OCTO   H72 1507   1.662   3.435   4.054  1.3147 -0.4434  0.6797
   56OCTO    C8 1508   1.774   3.600   3.989 -0.2392 -0.4496  0.2061
   56OCTO   H81 1509   1.763   3.711   3.993 -0.7868 -0.5052  0.2930
   56OCTO   H82 1510   1.765   3.567   3.883  1.9122 -1.1349  0.1922
   56OCTO    O1 1511   1.895   3.557   4.047  0.0072  0.3677 -0.1175
   56OCTO   HO1 1512   1.901   3.597   4.134 -0.8835 -0.2243  0.2289
   57OCTO    C1 1513   1.490   2.507   1.909 -0.2472  0.4391 -0.6337
   57OCTO   H11 1514   1.428   2.433   1.854  1.6412 -1.0674 -0.8819
   57OCTO   H12 1515   1.424   2.540   1.991 -2.1394 -1.2870 -1.3762
   57OCTO   H13 1516   1.505   2.589   1.835 -0.9511 -1.0694 -2.5459
   57OCTO    C2 1517   1.632   2.452   1.951  0.1411  0.5146  0.4728
   57OCTO   H21 1518   1.658   2.379   1.871 -1.3935  0.5221 -0.0633
   57OCTO   H22 1519   1.704   2.536   1.950  0.7960  0.0461  2.5910
   57OCTO    C3 1520   1.634   2.384   2.090 -0.2797  0.3083  0.0173
   57OCTO   H31 1521   1.576   2.290   2.097  0.0755  0.1395  0.8055
   57OCTO   H32 1522   1.740   2.358   2.110  0.1675  1.1307 -1.1885
   57OCTO    C4 1523   1.587   2.486   2.202  0.2920 -0.0318  0.0108
   57OCTO   H41 1524   1.634   2.580   2.165  0.8950 -1.4593 -3.1897
   57OCTO   H42 1525   1.476   2.495   2.194 -0.0548 -0.9043  2.6915
   57OCTO    C5 1526   1.616   2.438   2.346  0.5884 -0.5304 -0.7715
   57OCTO   H51 1527   1.726   2.425   2.357  0.4127 -0.7845  0.8431
   57OCTO   H52 1528   1.567   2.509   2.416  0.2713 -0.9323 -0.5849
   57OCTO    C6 1529   1.567   2.295   2.386  0.1195 -0.3527 -0.4201
   57OCTO   H61 1530   1.460   2.303   2.414  0.2307  1.7610 -0.3944
   57OCTO   H62 1531   1.571   2.218   2.306  0.8374 -1.4835  0.6828
   57OCTO    C7 1532   1.630   2.238   2.517  0.3602 -0.3596 -0.5541
   57OCTO   H71 1533   1.610   2.130   2.529  2.1051 -0.6460  0.0187
   57OCTO   H72 1534   1.739   2.252   2.501  0.1746  1.9741 -0.2345
   57OCTO    C8 1535   1.590   2.317   2.639  1.0693 -0.3835 -0.3648
   57OCTO   H81 1536   1.481   2.315   2.662  1.0841 -1.9040 -0.3103
   57OCTO   H82 1537   1.625   2.422   2.632 -1.8444  0.8295  1.3835
   57OCTO    O1 1538   1.651   2.265   2.759  0.1304 -0.3044 -0.0273
   57OCTO   HO1 1539   1.741   2.251   2.728  0.3874 -0.5232  0.7903
   58OCTO    C1 1540   1.581   2.054   1.792  0.2074  0.4287  0.2499
   58OCTO   H11 1541   1.591   2.050   1.903  0.1574 -3.3759  0.2466
   58OCTO   H12 1542   1.675   2.022   1.742 -1.1858 -0.7918 -1.7317
   58OCTO   H13 1543   1.561   2.157   1.756  1.0323  0.8109  0.8360
   58OCTO    C2 1544   1.462   1.966   1.754  0.2980  0.4139  1.0918
   58OCTO   H21 1545   1.493   1.864   1.784 -1.1405  0.7676  4.0587
   58OCTO   H22 1546   1.378   1.989   1.822  0.0639  1.4340  0.4791
   58OCTO    C3 1547   1.425   1.974   1.600 -0.0695  0.5044  0.2529
   58OCTO   H31 1548   1.510   1.979   1.527 -0.3033  0.8904  0.0086
   58OCTO   H32 1549   1.364   1.886   1.571  3.0989 -1.0408 -2.5753
   58OCTO    C4 1550   1.346   2.098   1.563 -0.4504  0.1189  0.9532
   58OCTO   H41 1551   1.245   2.087   1.608 -1.0822 -1.4814 -0.7432
   58OCTO   H42 1552   1.382   2.189   1.615 -1.7883 -0.2586  2.6565
   58OCTO    C5 1553   1.341   2.105   1.413  0.9614 -0.2328 -0.0024
   58OCTO   H51 1554   1.443   2.112   1.369  0.4505  0.0605 -1.1813
   58OCTO   H52 1555   1.289   2.013   1.381 -2.2373  0.8090  1.7258
   58OCTO    C6 1556   1.257   2.217   1.353 -0.0432  0.7286 -0.1210
   58OCTO   H61 1557   1.278   2.205   1.245 -2.5125 -0.2509 -0.5612
   58OCTO   H62 1558   1.151   2.202   1.384 -0.4068 -0.6366 -1.8857
   58OCTO    C7 1559   1.317   2.345   1.403 -0.1019 -0.3919  0.3893
   58OCTO   H71 1560   1.297   2.355   1.512  1.8011 -2.8061  1.0488
   58OCTO   H72 1561   1.428   2.343   1.401  0.1028  2.3790  2.9096
   58OCTO    C8 1562   1.279   2.459   1.316 -0.5001  0.0164 -0.1574
   58OCTO   H81 1563   1.168   2.468   1.315 -0.7636 -2.0488  1.9515
   58OCTO   H82 1564   1.321   2.464   1.214  2.4789  1.0930  1.0136
   58OCTO    O1 1565   1.331   2.572   1.383  0.0440 -0.7813  0.5804
   58OCTO   HO1 1566   1.260   2.616   1.431 -0.1993 -0.7151  0.1676
   59OCTO    C1 1567   0.949   0.168   3.758 -0.0723  0.3218  0.0747
   59OCTO   H11 1568   0.890   0.211   3.674  1.3151  0.0951 -1.0448
   59OCTO   H12 1569   0.988   0.067   3.732  0.5421  0.0120  2.0007
   59OCTO   H13 1570   0.878   0.160   3.844 -0.4827  1.1747 -0.1734
   59OCTO    C2 1571   1.055   0.258   3.798 -0.1569 -0.1773  0.5683
   59OCTO   H21 1572   1.011   0.336   3.863 -0.3938 -0.3489  0.6142
   59OCTO   H22 1573   1.140   0.206   3.847  0.4713 -2.1082 -2.3101
   59OCTO    C3 1574   1.115   0.328   3.674 -0.2401 -0.1848 -0.5249
   59OCTO   H31 1575   1.153   0.250   3.605  2.0052  2.2547 -2.2437
   59OCTO   H32 1576   1.027   0.373   3.624 -0.0383 -1.1778 -1.8398
   59OCTO    C4 1577   1.216   0.440   3.685 -0.0250  0.6754  0.7251
   59OCTO   H41 1578   1.180   0.522   3.750 -2.8649 -0.2109  0.3975
   59OCTO   H42 1579   1.310   0.401   3.730  2.5348  0.0542 -4.3898
   59OCTO    C5 1580   1.259   0.507   3.548 -0.1339 -0.1692 -0.2090
   59OCTO   H51 1581   1.284   0.417   3.488 -3.3101 -0.1680 -1.7686
   59OCTO   H52 1582   1.168   0.561   3.515  0.5779  0.9179 -0.4502
   59OCTO    C6 1583   1.370   0.612   3.574 -0.1469  0.4871 -0.3033
   59OCTO   H61 1584   1.338   0.681   3.655  0.2355 -0.5084  0.7350
   59OCTO   H62 1585   1.446   0.548   3.624 -1.9592 -1.0633  0.6279
   59OCTO    C7 1586   1.427   0.679   3.455 -0.3684  0.2088 -0.0554
   59OCTO   H71 1587   1.467   0.775   3.494  1.9459 -1.1954  1.2742
   59OCTO   H72 1588   1.508   0.611   3.421 -0.4676 -0.2949  0.6950
   59OCTO    C8 1589   1.328   0.717   3.342  0.3058  0.0779 -0.9167
   59OCTO   H81 1590   1.251   0.788   3.378  0.8121  0.7374 -1.1106
   59OCTO   H82 1591   1.276   0.626   3.307  0.4251 -0.0256 -0.8284
   59OCTO    O1 1592   1.405   0.774   3.238  0.2513 -0.2588 -0.6718
   59OCTO   HO1 1593   1.344   0.809   3.173  0.3766  0.5380 -0.3733
   60OCTO    C1 1594   1.744   4.077   1.600  0.6594 -0.0598  0.1575
   60OCTO   H11 1595   1.719   4.071   1.708  1.5788 -0.0036  0.3828
   60OCTO   H12 1596   1.745   3.974   1.557  0.2240 -0.7008  1.6071
   60OCTO   H13 1597   1.850   4.109   1.590  0.3490  0.9068 -0.1175
   60OCTO    C2 1598   1.643   4.160   1.529  0.3878  0.5803  0.2330
   60OCTO   H21 1599   1.648   4.262   1.573  0.9080 -0.0672  1.7575
   60OCTO   H22 1600   1.663   4.164   1.420 -0.7295  1.5749  0.0418
   60OCTO    C3 1601   1.497   4.108   1.534  0.2334  0.0512 -0.1520
   60OCTO   H31 1602   1.498   4.001   1.503 -0.9661 -0.8731  2.6426
   60OCTO   H32 1603   1.463   4.118   1.639 -0.8347  1.0199 -0.5678
   60OCTO    C4 1604   1.404   4.181   1.437 -0.3842 -0.7354  0.3112
   60OCTO   H41 1605   1.420   4.289   1.457 -0.2192 -0.5853 -0.5835
   60OCTO   H42 1606   1.439   4.166   1.333  1.7303 -1.9055  1.1259
   60OCTO    C5 1607   1.265   4.133   1.458  0.6270 -0.0653 -0.0761
   60OCTO   H51 1608   1.191   4.178   1.389 -1.0024 -1.4248  0.7081
   60OCTO   H52 1609   1.257   4.024   1.439 -1.3335 -0.1173  0.8002
   60OCTO    C6 1610   1.194   4.157   1.590  0.8945 -0.1095 -0.6809
   60OCTO   H61 1611   1.106   4.089   1.587  1.0245 -0.2696 -0.9053
   60OCTO   H62 1612   1.256   4.138   1.680  0.7285  0.4368 -0.4487
   60OCTO    C7 1613   1.138   4.304   1.596 -0.2210 -0.2709 -0.6697
   60OCTO   H71 1614   1.109   4.320   1.702  1.6773  0.2247 -0.1944
   60OCTO   H72 1615   1.220   4.375   1.578  0.5896 -0.5827  1.4552
   60OCTO    C8 1616   1.011   4.336   1.514 -0.1630  0.5873 -0.1052
   60OCTO   H81 1617   1.018   4.292   1.412 -1.2772 -1.1355  0.5147
   60OCTO   H82 1618   0.990   4.444   1.503 -1.0218  0.4078 -0.3067
   60OCTO    O1 1619   0.893   4.281   1.570 -0.2876 -0.4541  0.4565
   60OCTO   HO1 1620   0.891   4.317   1.659  0.2658 -0.4341  0.4681
   61OCTO    C1 1621   2.915   0.780   1.550 -0.5216  1.2159  0.1946
   61OCTO   H11 1622   2.909   0.673   1.578 -0.1441  0.9441 -0.7271
   61OCTO   H12 1623   2.858   0.801   1.457  0.7322  3.0016 -0.2235
   61OCTO   H13 1624   3.019   0.795   1.512 -0.4849 -1.1851 -0.8135
   61OCTO    C2 1625   2.884   0.879   1.658  0.3976 -1.0862 -0.5058
   61OCTO   H21 1626   2.784   0.850   1.698  1.4987 -1.0822  2.5312
   61OCTO   H22 1627   2.956   0.876   1.743 -1.1822  1.0507  1.0002
   61OCTO    C3 1628   2.884   1.029   1.621  0.2283 -0.3916  0.1013
   61OCTO   H31 1629   2.831   1.040   1.524 -0.1164 -0.2007  0.3092
   61OCTO   H32 1630   2.828   1.098   1.688 -1.3093 -0.2208 -1.3067
   61OCTO    C4 1631   3.025   1.086   1.618  0.2158  0.7410  0.2568
   61OCTO   H41 1632   3.063   1.087   1.723  1.2617  1.0488 -0.1077
   61OCTO   H42 1633   3.089   1.026   1.550  1.7739  2.5864  0.0375
   61OCTO    C5 1634   3.022   1.237   1.577 -1.1443  0.3953 -0.2292
   61OCTO   H51 1635   2.970   1.233   1.479  1.2546 -0.1740 -1.5589
   61OCTO   H52 1636   2.959   1.286   1.655 -0.0835  1.9172 -0.2839
   61OCTO    C6 1637   3.158   1.304   1.554  0.2209 -0.9393  0.4451
   61OCTO   H61 1638   3.227   1.288   1.640  2.7533 -1.2150 -1.4974
   61OCTO   H62 1639   3.215   1.252   1.473  0.4046 -1.0955  0.6709
   61OCTO    C7 1640   3.138   1.459   1.529 -0.5283  0.0577 -0.1157
   61OCTO   H71 1641   3.080   1.457   1.434 -0.1202  1.3140 -0.4181
   61OCTO   H72 1642   3.075   1.509   1.606 -0.6557 -0.6388  0.2422
   61OCTO    C8 1643   3.272   1.539   1.529  0.5814 -0.5621  0.4677
   61OCTO   H81 1644   3.330   1.495   1.445 -2.4879 -1.3441 -1.4121
   61OCTO   H82 1645   3.324   1.524   1.626 -1.3387 -1.5690  1.3935
   61OCTO    O1 1646   3.239   1.675   1.509 -0.4060 -0.4381  0.3722
   61OCTO   HO1 1647   3.274   1.698   1.423 -0.7681  0.7763  0.5259
   62OCTO    C1 1648   3.849   0.790   2.154  0.0411  0.2831  0.2269
   62OCTO   H11 1649   3.888   0.816   2.254 -0.5802  1.3506  0.2083
   62OCTO   H12 1650   3.924   0.737   2.093 -0.8306 -1.3763  0.5375
   62OCTO   H13 1651   3.825   0.887   2.104 -1.1836 -1.1483 -2.1761
   62OCTO    C2 1652   3.726   0.713   2.157 -0.3396  0.0058 -0.5636
   62OCTO   H21 1653   3.684   0.716   2.054  1.4162  0.5123 -1.3124
   62OCTO   H22 1654   3.741   0.608   2.190 -0.9696  0.0927  0.0194
   62OCTO    C3 1655   3.623   0.778   2.249  0.1792  0.4992  0.0800
   62OCTO   H31 1656   3.664   0.796   2.351 -2.8077 -0.8351  1.6349
   62OCTO   H32 1657   3.589   0.873   2.204 -1.4806  0.2687  0.7973
   62OCTO    C4 1658   3.498   0.696   2.281  0.0390  0.1788 -0.8302
   62OCTO   H41 1659   3.464   0.656   2.183  0.4593 -1.4620 -0.3234
   62OCTO   H42 1660   3.520   0.612   2.351  0.2300  1.7163  1.0470
   62OCTO    C5 1661   3.381   0.776   2.348 -0.3457 -0.3057  0.5040
   62OCTO   H51 1662   3.359   0.860   2.279  1.2447  0.8373  1.3241
   62OCTO   H52 1663   3.286   0.719   2.351 -2.2883  2.6245 -1.1602
   62OCTO    C6 1664   3.423   0.817   2.486 -0.0842 -0.5500 -0.1132
   62OCTO   H61 1665   3.436   0.730   2.553 -1.2126 -0.8200 -0.2243
   62OCTO   H62 1666   3.522   0.868   2.483  0.2068 -1.1484 -1.9489
   62OCTO    C7 1667   3.314   0.910   2.550 -0.0982 -0.0811 -0.0936
   62OCTO   H71 1668   3.228   0.850   2.587 -0.8647  1.7795  1.2449
   62OCTO   H72 1669   3.352   0.960   2.641  0.1603  0.9405 -0.7472
   62OCTO    C8 1670   3.253   1.012   2.456 -0.6477 -0.9277  0.0546
   62OCTO   H81 1671   3.215   0.977   2.357 -0.5740 -0.5284 -0.1192
   62OCTO   H82 1672   3.328   1.088   2.425 -1.8325  0.3149  0.1374
   62OCTO    O1 1673   3.151   1.078   2.533 -0.2949 -0.3641  0.5085
   62OCTO   HO1 1674   3.092   1.120   2.470  2.6516  0.9170 -1.5593
   63OCTO    C1 1675   0.245   1.290   2.375  0.0964 -0.0950  0.2015
   63OCTO   H11 1676   0.315   1.351   2.436 -2.3834  0.4915  2.6820
   63OCTO   H12 1677   0.202   1.363   2.302 -1.2315 -1.5012 -0.4864
   63OCTO   H13 1678   0.159   1.263   2.440 -0.2855 -2.0934 -1.0304
   63OCTO    C2 1679   0.320   1.170   2.317 -0.0715 -0.4633  0.7919
   63OCTO   H21 1680   0.244   1.124   2.250 -1.3813 -3.3990  3.9683
   63OCTO   H22 1681   0.415   1.202   2.270 -0.3695 -2.3309 -1.2525
   63OCTO    C3 1682   0.348   1.061   2.421 -0.2638  0.2107 -0.0250
   63OCTO   H31 1683   0.405   1.114   2.501 -0.5702  2.9092 -1.4557
   63OCTO   H32 1684   0.255   1.020   2.465  1.1632 -1.1502  1.9042
   63OCTO    C4 1685   0.430   0.950   2.368  0.5180 -0.4463  0.6195
   63OCTO   H41 1686   0.390   0.896   2.280  0.5104  0.5305  0.0059
   63OCTO   H42 1687   0.527   0.997   2.338  1.2049 -0.1240  3.1080
   63OCTO    C5 1688   0.459   0.844   2.483 -0.0127 -0.7064  0.3435
   63OCTO   H51 1689   0.515   0.894   2.566  0.8514 -1.2332  0.0862
   63OCTO   H52 1690   0.363   0.813   2.530  0.1605  0.2419  1.3919
   63OCTO    C6 1691   0.542   0.727   2.433 -0.0655  0.2090 -1.2270
   63OCTO   H61 1692   0.484   0.670   2.357  1.0867  0.4292 -2.3075
   63OCTO   H62 1693   0.634   0.758   2.380  0.2539  0.6286 -0.4362
   63OCTO    C7 1694   0.579   0.630   2.545  0.0501 -0.3967  0.5771
   63OCTO   H71 1695   0.629   0.696   2.620  2.0888 -2.8398  1.5023
   63OCTO   H72 1696   0.488   0.586   2.592 -0.5402 -1.4576 -1.4581
   63OCTO    C8 1697   0.685   0.525   2.503  0.0098  0.0352  0.1267
   63OCTO   H81 1698   0.782   0.562   2.463  0.3895 -1.4943 -0.4374
   63OCTO   H82 1699   0.634   0.463   2.426  1.8911  0.5414 -1.5976
   63OCTO    O1 1700   0.710   0.432   2.617 -0.0327  0.3544 -0.1927
   63OCTO   HO1 1701   0.764   0.479   2.681  1.0313 -0.7173 -0.2724
   64OCTO    C1 1702   0.611   2.872   4.225  0.7406 -0.2051  0.5423
   64OCTO   H11 1703   0.706   2.829   4.186  1.3132 -0.2513  1.9486
   64OCTO   H12 1704   0.621   2.884   4.335 -1.3782  0.9543  0.6646
   64OCTO   H13 1705   0.533   2.796   4.204 -0.9171  1.4196  0.5425
   64OCTO    C2 1706   0.586   3.007   4.165 -0.4445  0.2438  0.0744
   64OCTO   H21 1707   0.671   3.073   4.191 -1.1924  1.5193 -0.6124
   64OCTO   H22 1708   0.572   3.003   4.055  1.8085 -1.1415 -0.2268
   64OCTO    C3 1709   0.471   3.090   4.217 -0.2442 -0.6956 -0.8417
   64OCTO   H31 1710   0.474   3.181   4.153  0.4773 -0.3992 -0.4081
   64OCTO   H32 1711   0.371   3.043   4.209 -0.7056  0.0143  0.4155
   64OCTO    C4 1712   0.487   3.136   4.362 -0.3777  0.6565 -0.3390
   64OCTO   H41 1713   0.507   3.048   4.425 -1.7847  0.0550 -0.6847
   64OCTO   H42 1714   0.577   3.198   4.382 -1.2325  1.5306  1.0348
   64OCTO    C5 1715   0.366   3.212   4.423  0.4100  0.4491 -1.0303
   64OCTO   H51 1716   0.283   3.140   4.441  1.2086 -0.5484 -1.2664
   64OCTO   H52 1717   0.404   3.265   4.513  0.0348 -1.8246  0.5555
   64OCTO    C6 1718   0.323   3.332   4.333 -0.1934  0.5535 -0.3108
   64OCTO   H61 1719   0.408   3.383   4.283 -1.6327  1.1845 -2.2493
   64OCTO   H62 1720   0.263   3.282   4.255  0.0079  0.4115 -0.3758
   64OCTO    C7 1721   0.236   3.426   4.410 -0.3143 -0.0345 -0.5062
   64OCTO   H71 1722   0.189   3.485   4.328 -1.6749 -1.1982 -0.6249
   64OCTO   H72 1723   0.148   3.379   4.460 -0.1279 -0.0929 -0.2345
   64OCTO    C8 1724   0.297   3.529   4.502  0.3296 -0.0744  0.3313
   64OCTO   H81 1725   0.368   3.594   4.445 -0.1369  1.3451  1.3166
   64OCTO   H82 1726   0.357   3.472   4.576  1.8878 -1.0057 -1.5499
   64OCTO    O1 1727   0.203   3.606   4.579  0.0837  0.6045  0.1882
   64OCTO   HO1 1728   0.257   3.670   4.626  1.8817  0.0299 -0.9931
   65OCTO    C1 1729   2.354   0.104   2.149  0.6749 -0.5721  0.3456
   65OCTO   H11 1730   2.450   0.154   2.126  0.9200 -1.6492 -1.1864
   65OCTO   H12 1731   2.383   0.002   2.182  0.8076 -1.1743 -1.5218
   65OCTO   H13 1732   2.309   0.081   2.050 -0.2295 -1.4091  0.9338
   65OCTO    C2 1733   2.261   0.184   2.239  0.2337 -0.0735 -0.1291
   65OCTO   H21 1734   2.220   0.277   2.195 -1.5440 -0.2915  0.9655
   65OCTO   H22 1735   2.180   0.118   2.278  0.5281  0.0832  0.7713
   65OCTO    C3 1736   2.342   0.225   2.366  0.5405 -0.6867 -0.5114
   65OCTO   H31 1737   2.383   0.132   2.408  3.0803  1.0795  1.2267
   65OCTO   H32 1738   2.439   0.269   2.333 -0.1960  0.6742 -0.9962
   65OCTO    C4 1739   2.269   0.309   2.473 -0.0297  0.4008  0.2937
   65OCTO   H41 1740   2.270   0.411   2.430 -0.4510 -0.6741 -2.4439
   65OCTO   H42 1741   2.166   0.272   2.489 -0.0561 -0.0245 -0.7571
   65OCTO    C5 1742   2.342   0.313   2.610  0.3567 -0.2608  0.9177
   65OCTO   H51 1743   2.272   0.364   2.680 -0.5578  0.8802 -0.7586
   65OCTO   H52 1744   2.366   0.211   2.645 -0.0186 -0.5815  0.2527
   65OCTO    C6 1745   2.471   0.393   2.608  0.5480  0.4695  0.0824
   65OCTO   H61 1746   2.555   0.337   2.561 -0.6245 -1.0640 -0.2539
   65OCTO   H62 1747   2.461   0.485   2.546 -0.6536  0.1327 -0.2509
   65OCTO    C7 1748   2.535   0.433   2.745  0.5495  0.0036  0.0666
   65OCTO   H71 1749   2.637   0.476   2.740  0.0451  1.3043  0.5311
   65OCTO   H72 1750   2.469   0.511   2.790 -0.7534 -1.8226  1.4974
   65OCTO    C8 1751   2.542   0.310   2.846  0.7952  0.0411  0.1566
   65OCTO   H81 1752   2.604   0.228   2.804 -0.1802 -0.1488 -0.9494
   65OCTO   H82 1753   2.442   0.270   2.874  1.0429  0.5406  1.9106
   65OCTO    O1 1754   2.621   0.353   2.959  0.2258  0.6990 -0.3225
   65OCTO   HO1 1755   2.569   0.320   3.033  0.5092  1.6977  0.3402
   66OCTO    C1 1756   0.045   2.035   3.108 -0.1509  0.1049  0.6106
   66OCTO   H11 1757   0.119   2.042   3.190 -0.2210 -1.6536  0.8761
   66OCTO   H12 1758   0.009   1.930   3.119 -1.6982  0.8716  4.4726
   66OCTO   H13 1759   0.109   2.061   3.021  2.4226 -3.1791  1.3099
   66OCTO    C2 1760  -0.085   2.111   3.113 -0.1922  0.3890 -0.7483
   66OCTO   H21 1761  -0.067   2.218   3.091  0.0000  0.0618 -2.3195
   66OCTO   H22 1762  -0.156   2.070   3.038 -1.7897 -0.5323  1.1563
   66OCTO    C3 1763  -0.145   2.093   3.249  0.0847  0.3297 -0.0420
   66OCTO   H31 1764  -0.252   2.123   3.253  0.0563  0.1625  2.9283
   66OCTO   H32 1765  -0.150   1.983   3.266 -0.1514  0.1428 -1.2164
   66OCTO    C4 1766  -0.072   2.163   3.370 -0.3812 -0.2039 -0.1141
   66OCTO   H41 1767   0.034   2.128   3.368 -0.1684  0.3552  0.8424
   66OCTO   H42 1768  -0.069   2.271   3.347 -0.4357 -0.2978 -0.5834
   66OCTO    C5 1769  -0.137   2.149   3.507 -0.1876  0.3510  0.5237
   66OCTO   H51 1770  -0.240   2.189   3.501 -0.4622 -0.0160  2.1994
   66OCTO   H52 1771  -0.142   2.039   3.526 -1.0945  0.5167  1.3050
   66OCTO    C6 1772  -0.068   2.227   3.615  0.4395 -0.1345 -0.2462
   66OCTO   H61 1773   0.038   2.201   3.632  0.2159 -0.2643  1.0710
   66OCTO   H62 1774  -0.070   2.333   3.582 -0.9639 -0.0158  0.1627
   66OCTO    C7 1775  -0.153   2.215   3.748 -0.6890  0.1472  0.4067
   66OCTO   H71 1776  -0.261   2.222   3.721 -0.7628 -1.3105  0.2010
   66OCTO   H72 1777  -0.139   2.112   3.790  1.7228  0.0494 -0.5052
   66OCTO    C8 1778  -0.122   2.331   3.850  0.0330  0.2070 -0.3432
   66OCTO   H81 1779  -0.145   2.432   3.810  1.3090  0.3857 -0.6841
   66OCTO   H82 1780  -0.018   2.339   3.890 -0.5285  1.4374  0.9912
   66OCTO    O1 1781  -0.213   2.316   3.960 -0.0918  0.1897 -0.5784
   66OCTO   HO1 1782  -0.299   2.285   3.929 -0.8105  1.8483 -0.3517
   67OCTO    C1 1783   0.549   2.608   1.139 -0.4055  0.4691 -0.0426
   67OCTO   H11 1784   0.480   2.611   1.051 -1.0405 -0.2443  0.4172
   67OCTO   H12 1785   0.647   2.592   1.090 -0.4322  1.8126 -0.5731
   67OCTO   H13 1786   0.526   2.521   1.204  1.0875  0.7926  0.9613
   67OCTO    C2 1787   0.536   2.739   1.214 -0.0189  0.0723 -0.5214
   67OCTO   H21 1788   0.548   2.823   1.142  1.7682 -0.2414 -0.6382
   67OCTO   H22 1789   0.430   2.743   1.245 -0.1229 -1.5811 -0.5678
   67OCTO    C3 1790   0.636   2.738   1.334  0.8558 -0.4276 -0.0633
   67OCTO   H31 1791   0.624   2.828   1.398  0.1734  0.3235 -1.2270
   67OCTO   H32 1792   0.612   2.654   1.404 -0.2031  0.6384  0.8893
   67OCTO    C4 1793   0.780   2.731   1.290  0.3399 -0.1814 -0.7117
   67OCTO   H41 1794   0.790   2.632   1.240  3.8100 -0.6044  0.5886
   67OCTO   H42 1795   0.800   2.811   1.215 -0.4269  1.3777  0.6783
   67OCTO    C5 1796   0.880   2.729   1.406  0.3105 -0.7302  0.0399
   67OCTO   H51 1797   0.836   2.667   1.487 -0.2165  0.3506  0.6052
   67OCTO   H52 1798   0.980   2.694   1.372  0.0772 -1.4441  0.0669
   67OCTO    C6 1799   0.902   2.867   1.478 -0.2896 -0.1806 -0.1512
   67OCTO   H61 1800   0.907   2.950   1.404  1.4007  2.2978  2.5186
   67OCTO   H62 1801   0.823   2.903   1.547  0.1845  1.8673 -0.6010
   67OCTO    C7 1802   1.034   2.881   1.554 -0.6747  0.2281 -0.3607
   67OCTO   H71 1803   1.114   2.846   1.486  0.1656  1.2315  0.0777
   67OCTO   H72 1804   1.064   2.986   1.576 -1.9984  1.0173 -2.0975
   67OCTO    C8 1805   1.055   2.804   1.688  0.0078  0.0552  0.3368
   67OCTO   H81 1806   1.056   2.697   1.660 -0.2077 -0.3192  1.7328
   67OCTO   H82 1807   0.980   2.831   1.765  0.5341 -0.7108  1.1278
   67OCTO    O1 1808   1.183   2.828   1.748 -0.4279  0.5269 -0.2054
   67OCTO   HO1 1809   1.190   2.914   1.791 -0.3923 -0.0030  0.8811
   68OCTO    C1 1810   1.508   0.989   3.744  0.2687 -1.3586 -0.2007
   68OCTO   H11 1811   1.437   0.903   3.734 -0.9527 -0.4000 -0.0322
   68OCTO   H12 1812   1.590   0.971   3.671  0.1074 -0.2804 -0.6555
   68OCTO   H13 1813   1.537   0.997   3.850  0.1144 -0.5730 -0.2115
   68OCTO    C2 1814   1.433   1.113   3.699  0.3274 -0.4502  0.1790
   68OCTO   H21 1815   1.338   1.104   3.755 -0.8241  0.5413 -1.5322
   68OCTO   H22 1816   1.488   1.204   3.732  0.8985  0.1671 -2.2812
   68OCTO    C3 1817   1.388   1.119   3.544 -0.9194  0.9099 -0.0674
   68OCTO   H31 1818   1.474   1.116   3.474 -0.3731 -1.2444  0.6131
   68OCTO   H32 1819   1.331   1.026   3.520  0.1209  0.2815 -0.1915
   68OCTO    C4 1820   1.296   1.238   3.533 -0.6100  0.1269  0.4205
   68OCTO   H41 1821   1.200   1.218   3.585 -1.3279  1.7166 -0.2133
   68OCTO   H42 1822   1.344   1.329   3.574 -2.8832  1.8387 -0.4932
   68OCTO    C5 1823   1.262   1.271   3.386  0.1279 -0.2928 -0.1906
   68OCTO   H51 1824   1.225   1.375   3.381  2.8052  0.6867 -1.3416
   68OCTO   H52 1825   1.354   1.276   3.324  0.0877  2.6883 -0.1280
   68OCTO    C6 1826   1.165   1.189   3.315 -0.3429 -0.2353 -0.2195
   68OCTO   H61 1827   1.097   1.145   3.392 -1.7307  1.5207 -0.4024
   68OCTO   H62 1828   1.106   1.244   3.240 -1.0165 -0.4153  0.1683
   68OCTO    C7 1829   1.230   1.079   3.233 -0.3798 -0.1147 -0.4386
   68OCTO   H71 1830   1.321   1.113   3.179  3.3812 -3.6989  2.9347
   68OCTO   H72 1831   1.279   1.014   3.309  0.2098  0.8579  0.0303
   68OCTO    C8 1832   1.129   0.999   3.153 -0.4320  0.6276  0.0293
   68OCTO   H81 1833   1.056   1.055   3.091 -2.1315 -2.0778 -0.5739
   68OCTO   H82 1834   1.062   0.945   3.224  1.7133 -1.0300  0.9040
   68OCTO    O1 1835   1.203   0.905   3.072 -0.2575 -0.1408  0.0070
   68OCTO   HO1 1836   1.141   0.860   3.014 -0.1332  0.7172 -0.8296
   69OCTO    C1 1837   1.451   3.928   3.258  0.0464 -0.5769 -0.2184
   69OCTO   H11 1838   1.515   3.872   3.187 -2.7877 -2.6025 -1.3817
   69OCTO   H12 1839   1.433   4.029   3.215 -1.4671 -1.1364 -0.9728
   69OCTO   H13 1840   1.511   3.944   3.351 -0.9224  1.9786  0.0634
   69OCTO    C2 1841   1.321   3.849   3.279  0.2375  0.1176  0.5817
   69OCTO   H21 1842   1.292   3.804   3.183  0.6868  2.4083 -0.7068
   69OCTO   H22 1843   1.340   3.767   3.352 -0.8219 -0.7743 -0.1318
   69OCTO    C3 1844   1.203   3.932   3.338  0.1308  0.4017 -0.4640
   69OCTO   H31 1845   1.171   4.010   3.266  2.3971  1.7191 -0.1600
   69OCTO   H32 1846   1.120   3.860   3.354  1.5251 -1.1268  0.2108
   69OCTO    C4 1847   1.233   4.009   3.469  0.6782  0.3022  0.3386
   69OCTO   H41 1848   1.249   3.944   3.558  0.7510  0.5478  0.5071
   69OCTO   H42 1849   1.324   4.072   3.461  0.1378  0.9461 -1.1085
   69OCTO    C5 1850   1.119   4.095   3.519  0.4998 -0.2185  0.4490
   69OCTO   H51 1851   1.148   4.143   3.615 -0.5973 -2.1075  1.8121
   69OCTO   H52 1852   1.104   4.172   3.441  0.3197 -0.0109  0.6855
   69OCTO    C6 1853   0.995   4.012   3.538  0.0706  0.0035 -0.2214
   69OCTO   H61 1854   0.939   4.014   3.442  1.2013  0.8673 -0.8872
   69OCTO   H62 1855   1.022   3.908   3.568  1.8266  0.3186 -0.5960
   69OCTO    C7 1856   0.910   4.071   3.653 -0.2114 -0.2505 -0.2839
   69OCTO   H71 1857   0.978   4.069   3.741  2.4131 -0.6835 -2.1897
   69OCTO   H72 1858   0.878   4.169   3.611 -1.7754 -1.3165 -1.7190
   69OCTO    C8 1859   0.786   3.988   3.670 -0.1798  0.3481  0.2920
   69OCTO   H81 1860   0.804   3.880   3.691 -0.7129  0.0151 -0.8591
   69OCTO   H82 1861   0.738   3.998   3.570  1.3130 -0.3313 -0.5239
   69OCTO    O1 1862   0.716   4.036   3.778  0.3601 -0.5297 -0.1465
   69OCTO   HO1 1863   0.780   4.090   3.825 -2.2579  2.1621  0.6261
   70OCTO    C1 1864   0.140   2.053   0.507 -0.0927  0.1133 -0.3016
   70OCTO   H11 1865   0.119   2.162   0.516  1.1655  0.5093 -1.7244
   70OCTO   H12 1866   0.158   2.007   0.607  0.8759 -2.7509 -1.6946
   70OCTO   H13 1867   0.239   2.048   0.457 -0.1662 -1.0541 -0.3563
   70OCTO    C2 1868   0.028   1.979   0.431  0.3092 -0.2427  0.4637
   70OCTO   H21 1869   0.038   1.994   0.321 -2.0924 -1.3814  0.0074
   70OCTO   H22 1870   0.053   1.872   0.448 -1.3293 -0.7124  0.1328
   70OCTO    C3 1871  -0.110   2.005   0.487  0.5656 -0.6789 -0.4678
   70OCTO   H31 1872  -0.103   2.001   0.598  0.1908 -1.3649 -0.4656
   70OCTO   H32 1873  -0.143   2.109   0.462 -1.6347 -0.8299  1.5007
   70OCTO    C4 1874  -0.209   1.912   0.429  0.2572  0.3585 -0.3435
   70OCTO   H41 1875  -0.206   1.926   0.319 -1.5702  0.1599 -0.4430
   70OCTO   H42 1876  -0.159   1.813   0.430 -0.2381  0.1107  0.2345
   70OCTO    C5 1877  -0.355   1.921   0.472  0.4806  0.0890  0.5489
   70OCTO   H51 1878  -0.412   1.848   0.411  0.7049  0.5330 -0.1977
   70OCTO   H52 1879  -0.361   1.892   0.579  1.2039 -1.0764  0.2942
   70OCTO    C6 1880  -0.432   2.057   0.456 -0.5658 -0.4307  0.3414
   70OCTO   H61 1881  -0.533   2.050   0.500 -1.2277 -0.6470 -1.1735
   70OCTO   H62 1882  -0.383   2.136   0.517  1.1312 -0.1422 -1.2938
   70OCTO    C7 1883  -0.426   2.124   0.313 -0.4232  0.2512  0.0823
   70OCTO   H71 1884  -0.323   2.120   0.272 -0.8025 -0.9084 -0.7825
   70OCTO   H72 1885  -0.498   2.067   0.250 -0.7968  0.4724  0.3038
   70OCTO    C8 1886  -0.459   2.269   0.318  0.3503  0.3347  0.2764
   70OCTO   H81 1887  -0.375   2.332   0.355 -1.1336  2.2877  0.4729
   70OCTO   H82 1888  -0.555   2.296   0.366 -0.8727 -1.1964 -1.2171
   70OCTO    O1 1889  -0.462   2.318   0.180  0.0378  0.4312 -0.0646
   70OCTO   HO1 1890  -0.373   2.320   0.145  0.3839  1.3184  0.8276
   71OCTO    C1 1891   4.011   1.414   3.226  0.3506 -0.2681  0.3617
   71OCTO   H11 1892   3.966   1.328   3.170  0.7889  0.6117 -1.4159
   71OCTO   H12 1893   4.066   1.459   3.141  0.5114 -2.5163 -0.8267
   71OCTO   H13 1894   4.079   1.374   3.304 -1.2552 -0.2902  1.7984
   71OCTO    C2 1895   3.900   1.502   3.275  0.1146  0.3840  0.3408
   71OCTO   H21 1896   3.959   1.581   3.327 -0.5897  2.0413 -1.2488
   71OCTO   H22 1897   3.843   1.547   3.191  0.8580  0.3773 -0.1762
   71OCTO    C3 1898   3.801   1.423   3.355  0.4176  0.4486 -0.6782
   71OCTO   H31 1899   3.788   1.322   3.310  1.1804 -0.0916  0.2476
   71OCTO   H32 1900   3.853   1.401   3.451  0.7072 -1.0031 -1.1435
   71OCTO    C4 1901   3.668   1.493   3.384 -0.2270 -1.1084 -0.0395
   71OCTO   H41 1902   3.699   1.581   3.444  1.3856 -2.2455  0.8756
   71OCTO   H42 1903   3.619   1.526   3.290  0.2220  1.6329  0.6033
   71OCTO    C5 1904   3.563   1.419   3.465 -0.0892  0.2846  0.1613
   71OCTO   H51 1905   3.596   1.398   3.569 -0.3205 -2.5313 -0.2505
   71OCTO   H52 1906   3.475   1.481   3.493 -0.1234 -0.1332  0.9949
   71OCTO    C6 1907   3.531   1.284   3.402  0.2584  0.1036  0.0294
   71OCTO   H61 1908   3.618   1.214   3.401  0.1014 -0.1138  0.6428
   71OCTO   H62 1909   3.446   1.248   3.464  0.1334  0.4998  0.0908
   71OCTO    C7 1910   3.472   1.294   3.263  0.9067 -0.0104 -0.0700
   71OCTO   H71 1911   3.397   1.376   3.266  1.0030  0.0735  0.0449
   71OCTO   H72 1912   3.550   1.333   3.194  0.6860 -0.6242 -0.6771
   71OCTO    C8 1913   3.409   1.169   3.197 -0.3550  0.5603  0.6203
   71OCTO   H81 1914   3.334   1.122   3.263  2.2102  0.5664  3.7623
   71OCTO   H82 1915   3.496   1.100   3.184  1.0497  2.5826 -1.3946
   71OCTO    O1 1916   3.351   1.220   3.077  0.0478 -0.0902  0.1175
   71OCTO   HO1 1917   3.399   1.170   3.011 -0.7467  0.5425 -0.9874
   72OCTO    C1 1918   2.282   1.800   0.220  0.1713  0.9119 -0.4363
   72OCTO   H11 1919   2.335   1.826   0.126  0.5663 -1.7867 -1.0464
   72OCTO   H12 1920   2.241   1.896   0.258  0.2654  1.0122 -0.5871
   72OCTO   H13 1921   2.356   1.776   0.299  0.0522 -1.8977 -1.0829
   72OCTO    C2 1922   2.183   1.688   0.215  0.0902 -0.2264  0.3393
   72OCTO   H21 1923   2.236   1.598   0.178 -1.4077 -1.0742  0.2105
   72OCTO   H22 1924   2.146   1.669   0.317 -3.1147 -0.7100 -0.8071
   72OCTO    C3 1925   2.058   1.723   0.131  0.5598 -0.2551  0.0825
   72OCTO   H31 1926   2.026   1.829   0.144 -0.0822 -0.7133  2.5792
   72OCTO   H32 1927   2.083   1.723   0.022 -0.2813  3.5028 -0.2495
   72OCTO    C4 1928   1.931   1.642   0.160  0.4596 -0.1527 -0.0453
   72OCTO   H41 1929   1.970   1.538   0.164 -1.7426 -1.0336 -0.2755
   72OCTO   H42 1930   1.899   1.677   0.260 -0.7511  0.7355 -0.7285
   72OCTO    C5 1931   1.814   1.651   0.058 -0.1657  0.2219  0.2046
   72OCTO   H51 1932   1.770   1.751   0.078 -0.4970 -0.1880  1.7074
   72OCTO   H52 1933   1.867   1.653  -0.039  0.7503 -0.4767  0.6699
   72OCTO    C6 1934   1.707   1.541   0.083  0.7161 -0.5021 -0.0721
   72OCTO   H61 1935   1.653   1.556   0.179  0.7771  3.8299 -0.5179
   72OCTO   H62 1936   1.624   1.558   0.010  0.9103  2.1489  0.2196
   72OCTO    C7 1937   1.764   1.399   0.064  0.5125  0.0473 -0.1344
   72OCTO   H71 1938   1.823   1.414  -0.029  1.3974  2.3419  0.7133
   72OCTO   H72 1939   1.831   1.368   0.147  0.6747  1.6950  0.3853
   72OCTO    C8 1940   1.648   1.295   0.037  0.5465 -0.0033 -0.0413
   72OCTO   H81 1941   1.595   1.335  -0.052  1.4494 -1.7558 -1.4285
   72OCTO   H82 1942   1.586   1.291   0.129  2.3605 -0.3141  1.2166
   72OCTO    O1 1943   1.706   1.167   0.011 -0.1311 -0.5402 -0.0969
   72OCTO   HO1 1944   1.636   1.104  -0.006  0.4756 -1.1305 -0.4419
   73OCTO    C1 1945   0.136   3.181   2.070 -0.0625  0.6538 -0.1044
   73OCTO   H11 1946   0.205   3.200   2.156  0.5375  0.8861 -0.6291
   73OCTO   H12 1947   0.094   3.078   2.068 -2.5831  1.6321 -2.3928
   73OCTO   H13 1948   0.209   3.198   1.988  1.0906  0.1117  0.7835
   73OCTO    C2 1949   0.018   3.280   2.063  0.0049  0.4495 -0.2490
   73OCTO   H21 1950   0.056   3.371   2.013 -1.2052  0.5679 -0.9731
   73OCTO   H22 1951  -0.051   3.242   1.985  1.2268  0.9519 -1.6093
   73OCTO    C3 1952  -0.048   3.306   2.199  0.4831  0.5821 -0.6685
   73OCTO   H31 1953  -0.091   3.211   2.238  0.1109  1.4909  1.2528
   73OCTO   H32 1954   0.018   3.342   2.280  1.4515  0.6683 -1.4677
   73OCTO    C4 1955  -0.159   3.413   2.190  0.3606 -0.2096 -0.2364
   73OCTO   H41 1956  -0.124   3.504   2.136  2.5907 -0.6459  0.3671
   73OCTO   H42 1957  -0.239   3.375   2.124  0.8339 -0.4660 -0.6688
   73OCTO    C5 1958  -0.216   3.455   2.327  0.7680  0.1144 -0.2866
   73OCTO   H51 1959  -0.263   3.367   2.374  1.4697 -1.1887 -1.9179
   73OCTO   H52 1960  -0.135   3.489   2.396  1.4384  0.8597 -1.3993
   73OCTO    C6 1961  -0.327   3.562   2.316 -0.1027 -0.0772 -0.3774
   73OCTO   H61 1962  -0.279   3.635   2.247  2.0832 -3.0518 -2.2232
   73OCTO   H62 1963  -0.413   3.516   2.265 -0.9672  2.8658 -1.8250
   73OCTO    C7 1964  -0.357   3.634   2.444 -0.4675 -0.2588  0.5708
   73OCTO   H71 1965  -0.257   3.679   2.462  0.2833 -1.2258 -0.9610
   73OCTO   H72 1966  -0.432   3.715   2.426 -1.1803 -0.3698  2.7654
   73OCTO    C8 1967  -0.408   3.552   2.559 -0.7178 -0.1326 -1.2735
   73OCTO   H81 1968  -0.319   3.503   2.604  0.3712  0.6754 -2.4563
   73OCTO   H82 1969  -0.485   3.482   2.520 -1.5848  0.1874 -0.2089
   73OCTO    O1 1970  -0.470   3.634   2.656 -0.2925 -0.6262 -0.3801
   73OCTO   HO1 1971  -0.468   3.579   2.734 -1.3224  0.8382  0.7370
   74OCTO    C1 1972   2.920   2.144   2.514  0.5910 -0.1912 -0.1397
   74OCTO   H11 1973   2.861   2.176   2.603 -0.1433 -1.6779 -0.0594
   74OCTO   H12 1974   2.961   2.041   2.519  0.6196 -0.3120 -2.0604
   74OCTO   H13 1975   3.008   2.209   2.496 -0.5165  1.0081 -1.4443
   74OCTO    C2 1976   2.828   2.144   2.386  0.3624  0.0644 -0.1163
   74OCTO   H21 1977   2.901   2.130   2.302  1.2676  0.3009  0.6169
   74OCTO   H22 1978   2.765   2.053   2.388 -0.5910  0.5604 -2.6592
   74OCTO    C3 1979   2.770   2.282   2.363  0.1469 -0.1985  0.5866
   74OCTO   H31 1980   2.704   2.257   2.278  1.6824  1.8482 -1.3314
   74OCTO   H32 1981   2.719   2.313   2.458 -2.1867  1.0072 -0.9598
   74OCTO    C4 1982   2.877   2.383   2.319 -0.2256  0.7849 -0.3110
   74OCTO   H41 1983   2.940   2.394   2.410 -0.1438 -2.6747  0.2030
   74OCTO   H42 1984   2.935   2.345   2.232 -0.1175  2.7863 -1.1594
   74OCTO    C5 1985   2.822   2.520   2.280 -1.0443 -0.2654  0.5156
   74OCTO   H51 1986   2.905   2.591   2.263 -1.2643  0.2458  1.5015
   74OCTO   H52 1987   2.777   2.509   2.179 -0.2812 -0.8410  0.2327
   74OCTO    C6 1988   2.725   2.582   2.384  0.3006  0.0629  0.3862
   74OCTO   H61 1989   2.627   2.530   2.389 -0.0588  0.6203 -0.5329
   74OCTO   H62 1990   2.769   2.579   2.486  1.5778  0.4263 -0.1331
   74OCTO    C7 1991   2.697   2.728   2.358  0.4330 -0.4335 -0.7571
   74OCTO   H71 1992   2.611   2.761   2.420  0.2579 -0.8211 -0.7898
   74OCTO   H72 1993   2.783   2.786   2.398  1.7939 -1.3477 -2.2505
   74OCTO    C8 1994   2.670   2.774   2.213  0.1695 -0.1677 -0.4914
   74OCTO   H81 1995   2.578   2.725   2.177 -1.4222  1.3507  1.2974
   74OCTO   H82 1996   2.746   2.751   2.135 -0.3049 -0.8501 -0.7567
   74OCTO    O1 1997   2.645   2.916   2.221 -0.2033  0.2671  0.4290
   74OCTO   HO1 1998   2.564   2.932   2.171  1.6545  2.3197 -2.1629
   75OCTO    C1 1999   1.603   3.119   3.559 -0.0440 -0.1392  0.1012
   75OCTO   H11 2000   1.515   3.136   3.493  1.2620  3.5004 -0.9560
   75OCTO   H12 2001   1.690   3.109   3.490 -1.3145 -1.8488 -1.3411
   75OCTO   H13 2002   1.577   3.030   3.620 -1.3104 -0.0168 -0.2247
   75OCTO    C2 2003   1.606   3.236   3.656  0.8076 -0.0468 -0.9443
   75OCTO   H21 2004   1.642   3.326   3.602  5.2368 -1.7233 -1.2013
   75OCTO   H22 2005   1.503   3.258   3.691  1.0835  1.2285 -0.8920
   75OCTO    C3 2006   1.699   3.205   3.769 -0.0716 -0.0001  0.4747
   75OCTO   H31 2007   1.795   3.181   3.719 -0.0795  1.1706 -0.1446
   75OCTO   H32 2008   1.714   3.301   3.822 -0.0566 -0.3333  1.0730
   75OCTO    C4 2009   1.656   3.097   3.863 -0.1205 -0.3435  0.1665
   75OCTO   H41 2010   1.557   3.127   3.903 -1.9772 -1.7663 -2.9798
   75OCTO   H42 2011   1.641   2.995   3.822 -0.3011 -0.3107  0.1476
   75OCTO    C5 2012   1.766   3.091   3.962  0.8090  0.6462 -1.5964
   75OCTO   H51 2013   1.801   3.190   3.999  0.9556  0.2944 -0.7666
   75OCTO   H52 2014   1.724   3.032   4.046  2.6621 -0.9330 -1.7128
   75OCTO    C6 2015   1.894   3.021   3.917  0.7163 -0.2125 -0.3163
   75OCTO   H61 2016   1.872   2.933   3.853 -1.3832  1.3720 -1.9564
   75OCTO   H62 2017   1.943   3.088   3.843  2.0421  0.5484  1.1870
   75OCTO    C7 2018   1.998   2.994   4.024  0.6198  0.0054 -0.2225
   75OCTO   H71 2019   2.020   3.089   4.076 -1.6837 -0.3052  1.5130
   75OCTO   H72 2020   1.962   2.915   4.094 -0.7749  0.7362 -0.0759
   75OCTO    C8 2021   2.133   2.959   3.978 -0.5721 -0.1694  0.1193
   75OCTO   H81 2022   2.165   3.040   3.909 -1.2524 -0.1138 -0.1322
   75OCTO   H82 2023   2.123   2.871   3.911 -2.8199 -1.5116  2.0587
   75OCTO    O1 2024   2.223   2.927   4.086  0.2808 -0.2610  0.2043
   75OCTO   HO1 2025   2.308   2.902   4.050  0.8288  0.7616  0.7408
   76OCTO    C1 2026   3.586   3.476   0.021 -0.4045 -0.2494  0.4540
   76OCTO   H11 2027   3.544   3.440  -0.075  0.4121 -0.7504  0.2702
   76OCTO   H12 2028   3.696   3.482   0.005 -0.8143  0.9506 -2.3872
   76OCTO   H13 2029   3.544   3.401   0.092 -3.2439  0.9900  0.2353
   76OCTO    C2 2030   3.536   3.617   0.060 -0.2482 -0.0209 -0.4846
   76OCTO   H21 2031   3.597   3.652   0.147 -1.7297  1.7754 -0.0997
   76OCTO   H22 2032   3.552   3.689  -0.023  0.1606  1.9172  1.1959
   76OCTO    C3 2033   3.384   3.615   0.088  0.0552  0.7058 -0.2734
   76OCTO   H31 2034   3.332   3.577  -0.002  0.2074 -0.9686  0.3096
   76OCTO   H32 2035   3.362   3.538   0.165 -3.0096  0.6136 -1.1217
   76OCTO    C4 2036   3.316   3.737   0.143 -0.5809  0.3280  0.8702
   76OCTO   H41 2037   3.375   3.781   0.226 -1.1650  0.6740  1.1113
   76OCTO   H42 2038   3.328   3.815   0.064  0.2647 -2.2101 -1.6639
   76OCTO    C5 2039   3.171   3.728   0.201 -0.3736 -0.1798 -0.2929
   76OCTO   H51 2040   3.176   3.669   0.295 -5.2680  2.1185  1.7738
   76OCTO   H52 2041   3.142   3.831   0.233  0.2699  0.5538 -1.9732
   76OCTO    C6 2042   3.078   3.659   0.111 -0.3081 -0.2081 -0.0913
   76OCTO   H61 2043   3.096   3.717   0.017 -1.3363  0.2846 -0.0091
   76OCTO   H62 2044   3.104   3.552   0.097 -1.4755 -0.6843  1.1724
   76OCTO    C7 2045   2.939   3.660   0.164  0.7580  0.1245  0.1812
   76OCTO   H71 2046   2.919   3.609   0.260 -1.4275 -1.0376 -0.8275
   76OCTO   H72 2047   2.923   3.769   0.183 -0.6591  0.1003 -0.7631
   76OCTO    C8 2048   2.833   3.607   0.063 -0.5942 -0.2484  0.3758
   76OCTO   H81 2049   2.840   3.498   0.044 -2.0209 -0.3676  0.4264
   76OCTO   H82 2050   2.849   3.656  -0.036 -0.8782 -0.1566  0.3763
   76OCTO    O1 2051   2.708   3.634   0.114  0.1191 -0.1925 -0.3103
   76OCTO   HO1 2052   2.640   3.584   0.067 -0.0809 -0.1008 -0.1207
   77OCTO    C1 2053   1.815   1.336   2.880 -0.0762 -0.7465  0.0804
   77OCTO   H11 2054   1.749   1.254   2.844  0.3396 -1.2910  0.5289
   77OCTO   H12 2055   1.828   1.334   2.991  0.1952 -0.4328  0.0565
   77OCTO   H13 2056   1.756   1.426   2.855  0.1728 -0.2678  1.1716
   77OCTO    C2 2057   1.947   1.329   2.810 -0.1542  0.9022  0.2818
   77OCTO   H21 2058   1.938   1.341   2.699  1.3607  0.1459  0.0486
   77OCTO   H22 2059   2.019   1.408   2.842 -0.7706  1.6862 -0.2183
   77OCTO    C3 2060   2.017   1.187   2.827 -0.2078 -0.1621 -0.2289
   77OCTO   H31 2061   2.040   1.184   2.936 -0.5056  0.1925 -0.1554
   77OCTO   H32 2062   1.941   1.107   2.817  0.1826 -0.4976 -0.5351
   77OCTO    C4 2063   2.151   1.164   2.754  0.8256  0.5855  0.0175
   77OCTO   H41 2064   2.146   1.202   2.650 -0.1275  1.6061  0.4118
   77OCTO   H42 2065   2.227   1.219   2.814 -0.3432  0.2818  1.8541
   77OCTO    C5 2066   2.184   1.016   2.747  0.2691  0.3634 -0.2720
   77OCTO   H51 2067   2.196   0.982   2.852 -3.1415  1.0260  0.4474
   77OCTO   H52 2068   2.093   0.975   2.698  0.4832  0.3884 -0.7035
   77OCTO    C6 2069   2.311   0.996   2.669  0.3126  0.4094 -0.4712
   77OCTO   H61 2070   2.306   1.051   2.573 -4.4161 -0.0103 -0.7166
   77OCTO   H62 2071   2.386   1.047   2.733 -2.7068  1.5724  2.4427
   77OCTO    C7 2072   2.337   0.846   2.658  0.4673  0.0969  0.7640
   77OCTO   H71 2073   2.346   0.792   2.754  0.1929 -0.9911  0.1854
   77OCTO   H72 2074   2.248   0.803   2.609  0.4360  0.8393  0.1408
   77OCTO    C8 2075   2.457   0.817   2.571 -0.1760 -0.3854  0.0033
   77OCTO   H81 2076   2.455   0.869   2.473  0.6225 -0.3033  0.0239
   77OCTO   H82 2077   2.462   0.707   2.555  0.4367 -0.3367 -0.1480
   77OCTO    O1 2078   2.573   0.873   2.642  0.4007 -0.4620  0.1489
   77OCTO   HO1 2079   2.653   0.869   2.589  0.9639 -1.1572  1.0179
   78OCTO    C1 2080   3.862   1.459   0.275  0.4493 -0.2174 -0.3178
   78OCTO   H11 2081   3.950   1.441   0.340  0.5214  0.4801 -0.2129
   78OCTO   H12 2082   3.843   1.367   0.215 -0.0478 -0.4723  0.2219
   78OCTO   H13 2083   3.864   1.552   0.214  0.6316  0.9045  1.3285
   78OCTO    C2 2084   3.734   1.462   0.362  0.1837  0.7679 -0.5432
   78OCTO   H21 2085   3.741   1.558   0.418 -0.4671  0.4937  0.0198
   78OCTO   H22 2086   3.637   1.468   0.308 -0.5088 -1.2821  0.3482
   78OCTO    C3 2087   3.731   1.350   0.468  0.5995  0.2699  0.4474
   78OCTO   H31 2088   3.722   1.249   0.424 -0.6294 -0.9949  3.3595
   78OCTO   H32 2089   3.814   1.368   0.540  1.9339 -1.5931 -0.5512
   78OCTO    C4 2090   3.603   1.340   0.562 -0.6257  0.3785  0.1699
   78OCTO   H41 2091   3.602   1.445   0.598  0.9314 -0.4169  2.8076
   78OCTO   H42 2092   3.510   1.306   0.512 -1.2606  1.8430  0.2892
   78OCTO    C5 2093   3.642   1.248   0.676 -0.4388 -0.0351  0.1712
   78OCTO   H51 2094   3.634   1.142   0.643 -1.0712 -0.2039  0.8352
   78OCTO   H52 2095   3.744   1.266   0.716  1.0446 -2.0538 -2.3693
   78OCTO    C6 2096   3.544   1.269   0.789 -0.1842 -0.1695  0.0712
   78OCTO   H61 2097   3.550   1.377   0.814 -1.6252  0.0771 -0.5092
   78OCTO   H62 2098   3.441   1.249   0.750  0.0300  1.0960 -1.2355
   78OCTO    C7 2099   3.562   1.189   0.923 -0.5197 -0.2387 -0.3644
   78OCTO   H71 2100   3.670   1.167   0.933 -0.7567 -2.0823 -1.5109
   78OCTO   H72 2101   3.525   1.247   1.010 -2.4612 -1.8243 -0.0639
   78OCTO    C8 2102   3.487   1.053   0.945 -0.1810  0.2527 -0.0033
   78OCTO   H81 2103   3.380   1.065   0.972 -0.4687 -0.7785 -0.6292
   78OCTO   H82 2104   3.544   0.990   1.017  0.3559  0.5948 -0.1301
   78OCTO    O1 2105   3.478   0.978   0.823 -0.2350 -0.2470 -0.4401
   78OCTO   HO1 2106   3.566   0.941   0.812  0.1368  0.4468  0.1193
   79OCTO    C1 2107   2.744   0.490   2.320  0.1111 -0.0196 -0.8609
   79OCTO   H11 2108   2.675   0.426   2.262 -0.4059  1.4376 -1.8943
   79OCTO   H12 2109   2.834   0.434   2.355 -0.6695  1.0632  3.5026
   79OCTO   H13 2110   2.679   0.512   2.408 -0.5527 -1.3831 -0.9900
   79OCTO    C2 2111   2.790   0.611   2.244 -0.1180  0.3284  0.1868
   79OCTO   H21 2112   2.843   0.682   2.311  0.6579  0.0709 -0.1430
   79OCTO   H22 2113   2.872   0.574   2.179 -0.2198 -2.2082  1.3772
   79OCTO    C3 2114   2.681   0.700   2.180  0.0830 -0.0609 -0.6164
   79OCTO   H31 2115   2.639   0.653   2.088 -0.6632  0.9436 -0.8003
   79OCTO   H32 2116   2.599   0.693   2.255  0.3626 -1.1866 -0.3976
   79OCTO    C4 2117   2.739   0.844   2.149  0.0215  0.5262  0.0004
   79OCTO   H41 2118   2.798   0.873   2.239 -1.5574 -0.0284  1.2638
   79OCTO   H42 2119   2.816   0.842   2.069  0.8245 -0.4754  0.7683
   79OCTO    C5 2120   2.629   0.948   2.123 -0.1698 -0.3670  0.0174
   79OCTO   H51 2121   2.579   0.937   2.024 -3.4212 -1.2526  1.6243
   79OCTO   H52 2122   2.548   0.946   2.199  3.5066 -0.3299  4.3110
   79OCTO    C6 2123   2.694   1.086   2.119  0.2071 -0.2714 -0.1179
   79OCTO   H61 2124   2.616   1.157   2.085  1.7386  2.6751  2.0736
   79OCTO   H62 2125   2.697   1.114   2.226 -0.0753  1.2681 -0.4859
   79OCTO    C7 2126   2.825   1.098   2.042 -0.0752 -0.1893  0.0694
   79OCTO   H71 2127   2.913   1.044   2.083 -0.0440 -1.4044 -1.5352
   79OCTO   H72 2128   2.818   1.055   1.941 -0.8222 -3.0731  1.2582
   79OCTO    C8 2129   2.884   1.240   2.035  0.4460 -0.1881 -0.0603
   79OCTO   H81 2130   2.813   1.297   1.971  0.6111  1.7928  1.4256
   79OCTO   H82 2131   2.988   1.241   1.995  0.4065  1.6100 -0.1828
   79OCTO    O1 2132   2.880   1.295   2.164  0.5499  0.1297  0.1823
   79OCTO   HO1 2133   2.924   1.377   2.138  0.6494 -0.0439 -0.1995
   80OCTO    C1 2134   2.164   0.520   1.204 -0.5849 -0.3970 -0.7758
   80OCTO   H11 2135   2.183   0.554   1.309  3.8715 -2.3110 -0.7758
   80OCTO   H12 2136   2.244   0.448   1.177  1.6920  1.6685  0.0986
   80OCTO   H13 2137   2.172   0.613   1.145  1.3765  0.5847  0.9056
   80OCTO    C2 2138   2.021   0.464   1.197  0.2225  0.5927  0.3059
   80OCTO   H21 2139   1.953   0.531   1.254 -1.1322 -2.0897  2.0735
   80OCTO   H22 2140   1.996   0.452   1.090  2.5558  0.0075 -0.2478
   80OCTO    C3 2141   2.006   0.324   1.266 -0.7096  0.1214 -0.0226
   80OCTO   H31 2142   1.982   0.347   1.372  0.5788  2.1884 -0.1272
   80OCTO   H32 2143   1.916   0.273   1.224 -0.2816  0.1320 -0.9985
   80OCTO    C4 2144   2.121   0.217   1.243 -0.1681  0.1380 -0.2089
   80OCTO   H41 2145   2.194   0.268   1.310 -2.3029  0.5005  2.0037
   80OCTO   H42 2146   2.075   0.128   1.291 -0.3502 -0.8536 -2.1296
   80OCTO    C5 2147   2.158   0.190   1.099  0.4659 -0.5185  0.4233
   80OCTO   H51 2148   2.064   0.178   1.040  1.4783 -2.0796 -0.9487
   80OCTO   H52 2149   2.208   0.276   1.049 -0.9331  0.7366  1.0964
   80OCTO    C6 2150   2.244   0.055   1.086  0.9659  0.1208  0.8893
   80OCTO   H61 2151   2.338   0.077   1.140  0.7298  2.4344  0.4972
   80OCTO   H62 2152   2.179  -0.027   1.123  0.6522 -0.1160 -0.1752
   80OCTO    C7 2153   2.278   0.035   0.939  0.4615 -0.6024  0.0815
   80OCTO   H71 2154   2.190   0.041   0.870  0.8257 -1.2693 -0.4461
   80OCTO   H72 2155   2.327   0.129   0.905  1.9367 -2.1492 -2.4362
   80OCTO    C8 2156   2.361  -0.085   0.911 -0.2786 -0.1778  0.0285
   80OCTO   H81 2157   2.296  -0.172   0.935 -0.2912 -1.1753 -3.1328
   80OCTO   H82 2158   2.452  -0.077   0.974 -1.2287 -1.8977  1.7202
   80OCTO    O1 2159   2.393  -0.088   0.773 -0.4923  0.2845  0.0199
   80OCTO   HO1 2160   2.467  -0.148   0.770 -0.2103  0.5847  0.7571
   81OCTO    C1 2161   0.178   1.561   3.875  0.9371 -0.4028 -0.6238
   81OCTO   H11 2162   0.186   1.536   3.767  2.9825  1.8817 -1.0866
   81OCTO   H12 2163   0.244   1.644   3.907 -0.4357 -0.3914  2.5422
   81OCTO   H13 2164   0.216   1.470   3.926 -1.4385 -0.3119  1.4751
   81OCTO    C2 2165   0.028   1.582   3.913  0.8010 -0.3524 -0.6246
   81OCTO   H21 2166  -0.028   1.498   3.868  0.9531 -0.2688 -0.9737
   81OCTO   H22 2167   0.029   1.578   4.025  0.3961 -1.9853 -0.6514
   81OCTO    C3 2168  -0.035   1.704   3.861  0.2321 -0.3763  0.6226
   81OCTO   H31 2169   0.019   1.793   3.898  1.9444 -1.5848  1.1782
   81OCTO   H32 2170  -0.039   1.699   3.750  0.3345 -0.2083  0.6124
   81OCTO    C4 2171  -0.182   1.729   3.903  0.5151 -0.4544 -0.0406
   81OCTO   H41 2172  -0.178   1.736   4.014 -1.7447  0.7579  0.0378
   81OCTO   H42 2173  -0.213   1.826   3.860 -1.3333 -0.3841  1.3115
   81OCTO    C5 2174  -0.277   1.616   3.865 -0.9206  0.2488 -0.1681
   81OCTO   H51 2175  -0.265   1.609   3.755  1.1894  0.1064  0.0384
   81OCTO   H52 2176  -0.249   1.516   3.905 -0.1137 -0.3249 -2.0316
   81OCTO    C6 2177  -0.421   1.647   3.900  0.3860  0.1110 -0.1090
   81OCTO   H61 2178  -0.443   1.643   4.009  0.9246  0.7357  0.0257
   81OCTO   H62 2179  -0.450   1.744   3.855 -2.7186  0.5384  2.4519
   81OCTO    C7 2180  -0.518   1.549   3.844  0.1510 -0.3038 -0.4666
   81OCTO   H71 2181  -0.493   1.505   3.745 -1.3175 -3.5159  0.4539
   81OCTO   H72 2182  -0.519   1.460   3.910  1.0840 -0.9647 -1.3132
   81OCTO    C8 2183  -0.663   1.603   3.846  0.5839  0.5744 -0.1971
   81OCTO   H81 2184  -0.672   1.692   3.781 -1.0578  0.4321 -0.1954
   81OCTO   H82 2185  -0.691   1.630   3.950 -0.5386 -1.5505  0.1163
   81OCTO    O1 2186  -0.740   1.491   3.815  0.0291 -0.4067  0.5977
   81OCTO   HO1 2187  -0.824   1.532   3.792  1.1791  2.3213  0.8944
   82OCTO    C1 2188   3.818   0.494   2.776  0.5034 -0.2286  0.4471
   82OCTO   H11 2189   3.735   0.423   2.795 -1.5909  2.2018  0.8601
   82OCTO   H12 2190   3.877   0.529   2.864  0.6465  1.4010 -0.2528
   82OCTO   H13 2191   3.763   0.587   2.751 -0.3265 -0.6996  0.5103
   82OCTO    C2 2192   3.906   0.450   2.656  0.3339  0.5191 -0.0843
   82OCTO   H21 2193   3.958   0.541   2.619 -2.3543  2.6562  1.0792
   82OCTO   H22 2194   3.971   0.363   2.678  0.2436  0.6726  0.8083
   82OCTO    C3 2195   3.815   0.403   2.535  0.5234 -0.7119 -0.8686
   82OCTO   H31 2196   3.749   0.323   2.574 -1.6792  1.0192 -0.8363
   82OCTO   H32 2197   3.756   0.493   2.508  0.9091  0.1862  1.1026
   82OCTO    C4 2198   3.886   0.361   2.406 -0.1914 -0.7048 -0.2890
   82OCTO   H41 2199   3.945   0.268   2.422  0.9666  0.2669  1.5372
   82OCTO   H42 2200   3.810   0.340   2.328  0.2262  0.0056 -0.9116
   82OCTO    C5 2201   3.979   0.464   2.346 -0.8850 -0.2543  0.4509
   82OCTO   H51 2202   3.930   0.563   2.341  0.2627  0.2835 -2.8612
   82OCTO   H52 2203   4.070   0.485   2.406  0.1957 -0.8653 -0.9043
   82OCTO    C6 2204   4.025   0.420   2.201 -0.3699  0.5584  0.1998
   82OCTO   H61 2205   4.064   0.316   2.207 -3.6518 -0.7375  3.5391
   82OCTO   H62 2206   3.952   0.417   2.118  0.2449 -3.4379 -0.4035
   82OCTO    C7 2207   4.138   0.523   2.139  0.1608 -0.1811  0.7991
   82OCTO   H71 2208   4.094   0.625   2.144 -0.8066 -0.5532  0.1766
   82OCTO   H72 2209   4.220   0.511   2.213 -0.4742 -2.2838  1.2249
   82OCTO    C8 2210   4.189   0.489   2.005  0.6925 -0.7899  0.3448
   82OCTO   H81 2211   4.100   0.483   1.939  0.7095 -2.3665  0.4112
   82OCTO   H82 2212   4.240   0.390   1.995 -1.2571 -1.8168 -0.0219
   82OCTO    O1 2213   4.267   0.594   1.954  0.4597 -0.1603  0.6814
   82OCTO   HO1 2214   4.272   0.577   1.860  0.5516 -0.8025  0.7953
   83OCTO    C1 2215   3.203   4.148   0.971  0.3342  0.0820  0.4737
   83OCTO   H11 2216   3.280   4.225   0.951 -1.2339  1.2290 -1.5853
   83OCTO   H12 2217   3.228   4.067   0.900  0.1060  1.1597 -0.8786
   83OCTO   H13 2218   3.102   4.189   0.947  1.0421  1.3179 -0.5324
   83OCTO    C2 2219   3.212   4.103   1.115  1.3382  0.0992 -0.3567
   83OCTO   H21 2220   3.212   4.203   1.164  2.6046 -0.2425  0.3790
   83OCTO   H22 2221   3.120   4.046   1.141 -0.1848  1.6808 -1.9493
   83OCTO    C3 2222   3.344   4.036   1.149 -0.3353  0.5062  0.3002
   83OCTO   H31 2223   3.366   3.954   1.078 -0.3448 -1.9987  2.9951
   83OCTO   H32 2224   3.429   4.102   1.122 -0.2863  0.8180  1.1739
   83OCTO    C4 2225   3.351   3.978   1.294  0.2940  0.2422  0.0077
   83OCTO   H41 2226   3.324   4.067   1.355 -1.2214 -0.5316  0.5113
   83OCTO   H42 2227   3.273   3.900   1.308  0.2687  0.1778 -0.4922
   83OCTO    C5 2228   3.485   3.929   1.344 -0.0333 -0.3868 -0.5466
   83OCTO   H51 2229   3.569   3.998   1.320  0.5509 -1.2218 -0.9691
   83OCTO   H52 2230   3.467   3.924   1.454  2.1488  3.7123  0.1895
   83OCTO    C6 2231   3.515   3.791   1.290  0.9939 -0.7555  0.8214
   83OCTO   H61 2232   3.433   3.724   1.325  0.0867 -1.0213 -1.5703
   83OCTO   H62 2233   3.500   3.800   1.180  1.8946 -1.9366  0.5766
   83OCTO    C7 2234   3.653   3.723   1.307  0.3931 -0.0262 -0.2301
   83OCTO   H71 2235   3.721   3.771   1.233 -2.2607  0.5275 -2.4907
   83OCTO   H72 2236   3.693   3.741   1.409 -1.7325 -0.4163  0.7241
   83OCTO    C8 2237   3.643   3.575   1.267 -0.2060  0.8037 -0.1486
   83OCTO   H81 2238   3.583   3.551   1.177  1.7124 -0.4816 -1.1620
   83OCTO   H82 2239   3.595   3.525   1.354 -0.6324 -0.3253 -1.0173
   83OCTO    O1 2240   3.764   3.515   1.249  0.0165 -0.2580 -0.0320
   83OCTO   HO1 2241   3.759   3.429   1.293 -1.4642  0.0563  0.4483
   84OCTO    C1 2242   3.503   0.399   4.281 -0.0808 -0.4309  0.3104
   84OCTO   H11 2243   3.456   0.390   4.382  2.0813 -0.4237  1.3647
   84OCTO   H12 2244   3.433   0.456   4.216 -2.3917 -1.8456  1.3855
   84OCTO   H13 2245   3.519   0.298   4.238  0.8727  0.4347 -1.4634
   84OCTO    C2 2246   3.626   0.479   4.296 -0.5494  0.6199 -0.1804
   84OCTO   H21 2247   3.604   0.585   4.322  1.3029  1.4886 -1.8175
   84OCTO   H22 2248   3.699   0.436   4.368  0.7554  1.1723 -1.1072
   84OCTO    C3 2249   3.720   0.491   4.184 -1.3550  0.4516 -0.5875
   84OCTO   H31 2250   3.777   0.396   4.180 -0.3310  0.9520  1.2596
   84OCTO   H32 2251   3.660   0.505   4.091 -3.9047 -0.3032  0.8172
   84OCTO    C4 2252   3.832   0.603   4.200 -0.0726 -0.6573 -0.2600
   84OCTO   H41 2253   3.774   0.697   4.184 -1.6989 -1.1135  2.3098
   84OCTO   H42 2254   3.874   0.596   4.302  0.6671  0.2372 -0.4850
   84OCTO    C5 2255   3.934   0.599   4.089  0.0578 -0.0873 -0.5556
   84OCTO   H51 2256   3.967   0.496   4.064  0.9953 -0.0050  0.2970
   84OCTO   H52 2257   3.899   0.639   3.992  0.6577 -1.4811 -1.3765
   84OCTO    C6 2258   4.065   0.670   4.123 -0.3625 -0.2882  0.8694
   84OCTO   H61 2259   4.128   0.616   4.196  0.3663 -1.1430 -0.3657
   84OCTO   H62 2260   4.112   0.678   4.023  1.8560 -0.0599  1.8834
   84OCTO    C7 2261   4.056   0.813   4.179  0.0351 -0.5737  0.1464
   84OCTO   H71 2262   4.011   0.820   4.281  2.1611 -1.6315  1.2207
   84OCTO   H72 2263   4.159   0.853   4.191 -0.3139  0.2281  0.4983
   84OCTO    C8 2264   3.980   0.917   4.098 -0.1010  0.4739 -0.3487
   84OCTO   H81 2265   3.873   0.900   4.123 -0.0909 -2.8584 -1.9697
   84OCTO   H82 2266   3.993   0.900   3.989  0.6989  0.7448 -0.3020
   84OCTO    O1 2267   4.029   1.047   4.131 -0.7109  0.3467  0.5469
   84OCTO   HO1 2268   4.005   1.104   4.057 -0.9079  0.4394  0.6789
   85OCTO    C1 2269   3.013   3.149   1.822 -0.7702 -0.1933 -0.8688
   85OCTO   H11 2270   3.099   3.079   1.831  0.3545  1.2580  0.0387
   85OCTO   H12 2271   2.932   3.117   1.753 -0.2525 -1.1879 -1.0496
   85OCTO   H13 2272   3.061   3.237   1.773  3.2000 -1.5144  0.2294
   85OCTO    C2 2273   2.958   3.201   1.956  0.3886  0.0700 -0.1305
   85OCTO   H21 2274   2.903   3.122   2.011 -2.5917  1.4232 -1.0152
   85OCTO   H22 2275   3.039   3.240   2.022 -0.7379  0.8887  0.8068
   85OCTO    C3 2276   2.862   3.310   1.934 -0.5070 -0.1518  0.0026
   85OCTO   H31 2277   2.899   3.381   1.857 -0.2143 -1.1127 -0.7557
   85OCTO   H32 2278   2.770   3.269   1.887 -2.1724  0.7072  2.2988
   85OCTO    C4 2279   2.822   3.381   2.064 -0.1467  0.1067 -0.5015
   85OCTO   H41 2280   2.783   3.300   2.130 -0.0497  0.6624  0.2522
   85OCTO   H42 2281   2.905   3.423   2.125  0.9918 -1.0224 -1.2274
   85OCTO    C5 2282   2.708   3.482   2.046 -1.0658 -0.9489  0.6396
   85OCTO   H51 2283   2.621   3.426   2.004 -1.9713  0.7839  0.0852
   85OCTO   H52 2284   2.677   3.513   2.148 -0.8903  0.5624  0.2512
   85OCTO    C6 2285   2.752   3.607   1.962  0.4493 -0.2798  0.7270
   85OCTO   H61 2286   2.786   3.584   1.859  1.8079  1.8531  0.6303
   85OCTO   H62 2287   2.658   3.665   1.949  1.9058  2.1703  0.4713
   85OCTO    C7 2288   2.844   3.703   2.040 -0.2263  0.2594  0.7330
   85OCTO   H71 2289   2.784   3.728   2.129 -0.2523 -0.9405  1.0708
   85OCTO   H72 2290   2.936   3.648   2.069  0.4864 -0.2139 -2.0455
   85OCTO    C8 2291   2.873   3.841   1.965  0.7448  0.0386  0.4450
   85OCTO   H81 2292   2.928   3.818   1.870  0.0205  1.3652 -0.3214
   85OCTO   H82 2293   2.940   3.908   2.023  0.9999  2.0875 -2.0392
   85OCTO    O1 2294   2.748   3.909   1.936  0.3949  0.1427 -0.2625
   85OCTO   HO1 2295   2.695   3.902   2.016  0.0221  0.7688 -0.4469
   86OCTO    C1 2296   3.818   0.485   3.210 -0.2319  0.1324  1.0400
   86OCTO   H11 2297   3.758   0.399   3.247  0.1938 -1.0925 -0.9683
   86OCTO   H12 2298   3.762   0.579   3.227 -0.5817  0.4293 -1.4347
   86OCTO   H13 2299   3.828   0.467   3.101 -3.3734 -0.5748  0.7656
   86OCTO    C2 2300   3.949   0.489   3.282  0.2953 -0.1175 -0.6632
   86OCTO   H21 2301   3.999   0.585   3.261  0.7067 -0.7565 -2.8939
   86OCTO   H22 2302   3.928   0.485   3.391 -0.0075  1.1597 -0.6695
   86OCTO    C3 2303   4.050   0.383   3.236  0.0339  0.1930 -0.6709
   86OCTO   H31 2304   4.006   0.282   3.248  0.9172 -0.0403  0.9507
   86OCTO   H32 2305   4.078   0.392   3.129  0.5256 -2.8334 -0.9014
   86OCTO    C4 2306   4.176   0.362   3.330  0.2234  0.3373  0.1859
   86OCTO   H41 2307   4.245   0.286   3.287  0.9700  0.9647  0.2598
   86OCTO   H42 2308   4.229   0.459   3.325 -0.4903  0.9065  2.4008
   86OCTO    C5 2309   4.144   0.326   3.476  0.7568 -0.5066  0.1352
   86OCTO   H51 2310   4.112   0.412   3.539 -0.3612 -1.8570  1.4665
   86OCTO   H52 2311   4.061   0.253   3.464  0.4871 -0.2743  0.5663
   86OCTO    C6 2312   4.258   0.269   3.552 -0.0751 -0.0216 -0.4256
   86OCTO   H61 2313   4.224   0.235   3.652 -0.3981 -0.8487 -0.8136
   86OCTO   H62 2314   4.283   0.171   3.506 -0.4348 -0.0311 -0.6007
   86OCTO    C7 2315   4.371   0.361   3.565  0.4596 -0.0560 -0.4359
   86OCTO   H71 2316   4.407   0.405   3.469 -0.3738  1.9389  0.1232
   86OCTO   H72 2317   4.341   0.450   3.625  2.9134  0.3803  0.2910
   86OCTO    C8 2318   4.486   0.310   3.650 -1.4789  0.5231 -0.1512
   86OCTO   H81 2319   4.563   0.389   3.638 -0.2735 -0.8083 -1.8398
   86OCTO   H82 2320   4.542   0.221   3.611 -0.1610  0.9688  0.6631
   86OCTO    O1 2321   4.449   0.282   3.784 -0.2342  0.1334 -0.0196
   86OCTO   HO1 2322   4.520   0.235   3.829 -0.5905 -1.3982 -0.9532
   87OCTO    C1 2323   4.268   3.241   2.601  0.2042  0.2738  0.1851
   87OCTO   H11 2324   4.314   3.212   2.698 -1.0905  2.0794  1.3989
   87OCTO   H12 2325   4.344   3.272   2.526  1.7666 -3.4169  0.0224
   87OCTO   H13 2326   4.197   3.322   2.628 -0.9756 -0.6773  0.0012
   87OCTO    C2 2327   4.199   3.127   2.527 -0.3888  0.6475 -0.4241
   87OCTO   H21 2328   4.107   3.088   2.577 -1.9190  3.0521 -1.2123
   87OCTO   H22 2329   4.156   3.178   2.439  1.2338  1.8370 -0.5524
   87OCTO    C3 2330   4.299   3.016   2.495  0.4118 -0.4768  0.0975
   87OCTO   H31 2331   4.241   2.943   2.433  1.3645 -0.6428 -0.6105
   87OCTO   H32 2332   4.382   3.060   2.436  2.7223 -1.5025  2.3803
   87OCTO    C4 2333   4.348   2.941   2.616  0.4198  0.2236  0.0223
   87OCTO   H41 2334   4.347   2.997   2.712 -0.2312 -0.1762  0.2559
   87OCTO   H42 2335   4.271   2.865   2.641  1.2773 -0.3478  0.9827
   87OCTO    C5 2336   4.480   2.874   2.581 -0.4174  0.0583 -0.5749
   87OCTO   H51 2337   4.538   2.962   2.545  0.4563  0.3008  1.2907
   87OCTO   H52 2338   4.525   2.839   2.676 -2.1057  2.0440  1.0522
   87OCTO    C6 2339   4.464   2.750   2.488  0.1075  0.0226 -0.0473
   87OCTO   H61 2340   4.375   2.687   2.510  0.2332  0.2199  1.1348
   87OCTO   H62 2341   4.431   2.766   2.383 -1.1250 -3.1381 -0.2408
   87OCTO    C7 2342   4.585   2.659   2.483 -0.4822 -0.4635  0.0558
   87OCTO   H71 2343   4.583   2.599   2.577  0.4236 -1.3305 -0.4561
   87OCTO   H72 2344   4.591   2.582   2.403  1.9393 -0.7755  0.4321
   87OCTO    C8 2345   4.720   2.733   2.490  0.2675  0.0385  0.4837
   87OCTO   H81 2346   4.743   2.786   2.585 -2.1077 -0.0338  1.1646
   87OCTO   H82 2347   4.731   2.804   2.404  3.2861 -0.8164  0.0301
   87OCTO    O1 2348   4.826   2.639   2.473  0.3405  0.5456 -0.3399
   87OCTO   HO1 2349   4.903   2.672   2.520 -0.0503 -0.0730  0.7796
   88OCTO    C1 2350   0.714   1.087   1.410  0.1802 -0.7201  0.5096
   88OCTO   H11 2351   0.760   1.177   1.364 -1.3921 -0.4049 -0.5622
   88OCTO   H12 2352   0.621   1.068   1.352  0.6340  1.0425 -0.8905
   88OCTO   H13 2353   0.699   1.122   1.514  0.4090 -0.0724  0.3299
   88OCTO    C2 2354   0.807   0.964   1.398  0.0235  0.8037 -0.7264
   88OCTO   H21 2355   0.803   0.926   1.294 -0.5819 -0.9694 -0.0904
   88OCTO   H22 2356   0.911   0.998   1.414  0.1369  1.2846 -2.3162
   88OCTO    C3 2357   0.766   0.855   1.498  0.1477 -0.1655 -1.1066
   88OCTO   H31 2358   0.759   0.905   1.596 -0.1266 -2.8267  0.3223
   88OCTO   H32 2359   0.667   0.813   1.469  0.2987 -1.6402  0.3870
   88OCTO    C4 2360   0.866   0.732   1.501  0.3602 -0.6946  0.8932
   88OCTO   H41 2361   0.866   0.682   1.402  1.4858 -1.6061  1.3209
   88OCTO   H42 2362   0.973   0.761   1.513  0.4857 -0.3807 -0.8238
   88OCTO    C5 2363   0.829   0.629   1.608  0.6266 -0.2793  0.4007
   88OCTO   H51 2364   0.828   0.682   1.705  0.4645 -0.3486  0.4377
   88OCTO   H52 2365   0.726   0.591   1.590  0.4454  0.2814  0.2602
   88OCTO    C6 2366   0.928   0.513   1.581 -0.8774 -0.0906  0.1423
   88OCTO   H61 2367   0.918   0.489   1.473  0.3131 -0.0317  0.0104
   88OCTO   H62 2368   1.030   0.556   1.592 -0.8000  0.3148 -1.8871
   88OCTO    C7 2369   0.905   0.392   1.665 -0.2967  0.2549 -0.0354
   88OCTO   H71 2370   0.803   0.351   1.649 -0.3619  1.1288 -2.1081
   88OCTO   H72 2371   0.967   0.304   1.638  1.9960  1.9422 -0.5168
   88OCTO    C8 2372   0.915   0.423   1.820 -0.0432 -0.1696 -0.3272
   88OCTO   H81 2373   0.856   0.514   1.842  0.0509 -0.3159  0.5705
   88OCTO   H82 2374   1.016   0.452   1.857 -1.0956  4.5093 -0.5336
   88OCTO    O1 2375   0.862   0.311   1.899 -0.2327  0.2133 -0.8901
   88OCTO   HO1 2376   0.839   0.344   1.986  1.0122 -0.5539 -0.2391
   89OCTO    C1 2377   0.052   2.069   4.061 -0.0122 -0.3647  0.3971
   89OCTO   H11 2378   0.056   1.958   4.056 -1.6450 -0.4599  0.5721
   89OCTO   H12 2379   0.045   2.106   4.166  1.4194 -0.6213  0.5966
   89OCTO   H13 2380  -0.041   2.106   4.012  0.6324 -0.0874 -0.6519
   89OCTO    C2 2381   0.170   2.126   3.995  0.0341 -0.8436 -0.0307
   89OCTO   H21 2382   0.172   2.128   3.883  2.0521 -2.6381 -0.0851
   89OCTO   H22 2383   0.176   2.235   4.016  0.0062 -0.0906 -3.2659
   89OCTO    C3 2384   0.303   2.063   4.043 -0.3564 -0.5061  0.4017
   89OCTO   H31 2385   0.306   2.073   4.154 -0.8891  0.1231  0.3701
   89OCTO   H32 2386   0.312   1.954   4.023  2.7486 -0.4895  1.1812
   89OCTO    C4 2387   0.424   2.138   3.979 -0.4217  0.3319 -0.7689
   89OCTO   H41 2388   0.478   2.065   3.915  0.5540 -1.3889  1.8522
   89OCTO   H42 2389   0.397   2.221   3.911  1.9288  0.7659 -1.2778
   89OCTO    C5 2390   0.530   2.188   4.078 -0.1409 -0.2739 -0.1575
   89OCTO   H51 2391   0.473   2.257   4.145  1.4858  1.3576 -0.3518
   89OCTO   H52 2392   0.585   2.115   4.141 -0.9673 -0.3359  0.5124
   89OCTO    C6 2393   0.642   2.273   4.008 -0.4637  0.0220  0.2032
   89OCTO   H61 2394   0.698   2.201   3.945 -0.2089 -0.8846  1.4210
   89OCTO   H62 2395   0.582   2.345   3.948  0.0994 -0.0368 -0.4370
   89OCTO    C7 2396   0.735   2.356   4.100  0.6134  0.4462 -0.1985
   89OCTO   H71 2397   0.679   2.412   4.178  1.6786  0.8067  0.3274
   89OCTO   H72 2398   0.791   2.275   4.152  0.0009 -0.1860 -0.5003
   89OCTO    C8 2399   0.823   2.469   4.033 -0.3152 -0.1021 -0.4306
   89OCTO   H81 2400   0.880   2.421   3.950 -1.1019 -0.8082 -0.5677
   89OCTO   H82 2401   0.890   2.503   4.115 -1.3837  0.0461  0.3962
   89OCTO    O1 2402   0.747   2.580   3.990  0.7369  0.0969  0.5984
   89OCTO   HO1 2403   0.716   2.565   3.901 -1.9580 -0.9411  1.6019
   90OCTO    C1 2404   4.207   2.816   3.396  0.2271 -0.2419 -0.0677
   90OCTO   H11 2405   4.194   2.710   3.364  2.0802 -0.7301  0.7235
   90OCTO   H12 2406   4.113   2.873   3.376  1.2752  2.0728  1.2260
   90OCTO   H13 2407   4.283   2.860   3.327  0.3271  0.5372  0.5258
   90OCTO    C2 2408   4.257   2.824   3.541  0.6210 -0.0591 -0.3221
   90OCTO   H21 2409   4.234   2.926   3.577  0.7383 -0.0195 -0.3573
   90OCTO   H22 2410   4.201   2.761   3.614 -2.0733  0.8473 -1.4982
   90OCTO    C3 2411   4.410   2.799   3.548 -0.4503 -0.0588 -0.1107
   90OCTO   H31 2412   4.468   2.837   3.460  0.8199 -0.9842  0.3045
   90OCTO   H32 2413   4.466   2.855   3.625 -1.9687  0.5849  0.5609
   90OCTO    C4 2414   4.445   2.651   3.561 -0.1151  0.7743 -0.0343
   90OCTO   H41 2415   4.397   2.625   3.658 -0.2659  0.0070 -0.3137
   90OCTO   H42 2416   4.397   2.591   3.481  1.4329  0.9933 -1.1738
   90OCTO    C5 2417   4.599   2.619   3.570 -0.0510 -0.1664  0.1879
   90OCTO   H51 2418   4.670   2.649   3.490  1.0092  1.3683  1.6347
   90OCTO   H52 2419   4.622   2.672   3.665 -1.0350 -0.4450  0.5928
   90OCTO    C6 2420   4.634   2.469   3.595 -0.4022  0.2631 -0.2864
   90OCTO   H61 2421   4.600   2.435   3.695  1.0606  2.2948  0.9655
   90OCTO   H62 2422   4.573   2.410   3.523 -3.8576 -1.3403  3.5071
   90OCTO    C7 2423   4.784   2.435   3.582  0.0537  0.0605  0.1096
   90OCTO   H71 2424   4.804   2.326   3.575  1.9992  0.3654  0.4772
   90OCTO   H72 2425   4.835   2.478   3.493  1.8305  0.3091  1.1961
   90OCTO    C8 2426   4.867   2.486   3.705  0.6902  0.2820  0.1040
   90OCTO   H81 2427   4.829   2.439   3.798 -0.8664  2.0849  0.4474
   90OCTO   H82 2428   4.851   2.596   3.712 -0.7162  0.2102 -1.4198
   90OCTO    O1 2429   5.003   2.453   3.691  0.0596  0.1326  0.9311
   90OCTO   HO1 2430   5.040   2.529   3.644 -0.2332 -0.2306  0.0995
   91OCTO    C1 2431   0.327   0.894   2.879 -0.0750  0.2665 -0.3480
   91OCTO   H11 2432   0.385   0.963   2.943  1.9464 -0.5063 -1.2724
   91OCTO   H12 2433   0.363   0.904   2.775 -1.7407  0.0259 -0.9831
   91OCTO   H13 2434   0.218   0.914   2.886 -0.0603  0.2160  0.0753
   91OCTO    C2 2435   0.367   0.757   2.937  0.5318  0.0350  0.3059
   91OCTO   H21 2436   0.308   0.674   2.894  0.8435 -0.2764  0.4801
   91OCTO   H22 2437   0.471   0.729   2.908 -0.3728 -2.0222 -1.1475
   91OCTO    C3 2438   0.349   0.735   3.091 -0.1264 -0.1536  0.6398
   91OCTO   H31 2439   0.391   0.634   3.107 -1.1144 -0.3554  2.0718
   91OCTO   H32 2440   0.423   0.804   3.137  0.1655  0.1160 -0.2004
   91OCTO    C4 2441   0.205   0.759   3.131 -0.1240  0.2044  0.2387
   91OCTO   H41 2442   0.170   0.863   3.115  1.2909  0.7352  0.4839
   91OCTO   H42 2443   0.138   0.684   3.082  1.0431 -0.9455  0.3487
   91OCTO    C5 2444   0.196   0.729   3.284  0.1596  0.5675 -0.5916
   91OCTO   H51 2445   0.252   0.634   3.297 -1.4914 -0.5746 -1.3819
   91OCTO   H52 2446   0.268   0.799   3.330  3.1757  0.1712 -4.2068
   91OCTO    C6 2447   0.057   0.727   3.341 -0.0770 -0.0428  0.0953
   91OCTO   H61 2448   0.006   0.813   3.292 -1.6646 -2.1300 -2.2072
   91OCTO   H62 2449   0.002   0.634   3.315 -0.2231  0.4094 -1.2745
   91OCTO    C7 2450   0.057   0.739   3.493  0.5593 -0.6493 -0.1421
   91OCTO   H71 2451   0.105   0.645   3.527  0.8252 -0.7356 -0.7538
   91OCTO   H72 2452   0.115   0.825   3.533  0.4594 -0.8729  0.5130
   91OCTO    C8 2453  -0.093   0.739   3.547 -0.2521 -0.4145 -0.1166
   91OCTO   H81 2454  -0.144   0.642   3.533 -1.5048  0.4401 -2.0148
   91OCTO   H82 2455  -0.152   0.818   3.496 -0.4474 -0.1245  0.5551
   91OCTO    O1 2456  -0.086   0.776   3.680  0.8228 -0.3259 -0.3058
   91OCTO   HO1 2457  -0.031   0.713   3.727 -0.7985 -0.6299  1.2491
   92OCTO    C1 2458   0.487   3.457   0.922  0.5894 -0.1827 -0.2355
   92OCTO   H11 2459   0.483   3.365   0.984 -1.5718 -0.7029 -1.0602
   92OCTO   H12 2460   0.438   3.542   0.974  1.6452  0.8265 -0.8614
   92OCTO   H13 2461   0.446   3.442   0.820  1.1397 -0.1839 -0.4596
   92OCTO    C2 2462   0.631   3.515   0.882  0.3793  0.0699 -0.0777
   92OCTO   H21 2463   0.691   3.441   0.825 -1.0917 -0.2982 -1.1996
   92OCTO   H22 2464   0.614   3.597   0.810 -1.1635 -0.7491 -0.6862
   92OCTO    C3 2465   0.711   3.564   0.998 -0.7235 -0.0520 -0.1922
   92OCTO   H31 2466   0.802   3.618   0.964 -0.4126 -1.0601 -1.0263
   92OCTO   H32 2467   0.642   3.637   1.046 -0.5478 -0.5808  0.8790
   92OCTO    C4 2468   0.741   3.457   1.104  0.2134 -0.3458 -0.1340
   92OCTO   H41 2469   0.789   3.509   1.189 -0.7516  0.6053 -0.1368
   92OCTO   H42 2470   0.646   3.422   1.150 -0.3568  0.9533 -0.2725
   92OCTO    C5 2471   0.816   3.332   1.056  0.3000  0.1510  0.0062
   92OCTO   H51 2472   0.750   3.290   0.978 -0.0796  1.2782 -0.3015
   92OCTO   H52 2473   0.913   3.359   1.008  0.6536  2.5503  1.8593
   92OCTO    C6 2474   0.834   3.220   1.160 -0.5941 -0.2989 -0.0158
   92OCTO   H61 2475   0.937   3.222   1.203 -0.3689 -1.6975 -0.4702
   92OCTO   H62 2476   0.758   3.234   1.240  0.5210  1.6498  0.7861
   92OCTO    C7 2477   0.802   3.085   1.102 -0.1289 -0.0771 -0.4677
   92OCTO   H71 2478   0.831   3.008   1.177  0.8807  1.3030  0.6057
   92OCTO   H72 2479   0.693   3.085   1.079 -0.1543  1.4373 -0.4456
   92OCTO    C8 2480   0.892   3.053   0.978 -0.0242  0.5794 -0.1183
   92OCTO   H81 2481   0.997   3.057   1.015 -0.0574  0.5622 -0.0204
   92OCTO   H82 2482   0.894   3.136   0.904 -0.6553  1.5994  0.9535
   92OCTO    O1 2483   0.850   2.931   0.918  0.3208 -0.7355  0.0609
   92OCTO   HO1 2484   0.755   2.930   0.908 -0.1000  1.2629  2.7936
   93OCTO    C1 2485   0.132   0.015   3.211  0.6676  0.3432 -0.4133
   93OCTO   H11 2486   0.220  -0.042   3.176 -0.6627 -1.7706 -0.4897
   93OCTO   H12 2487   0.170   0.119   3.223 -0.2578  0.4225  2.8452
   93OCTO   H13 2488   0.126  -0.015   3.318  1.3947  1.5777 -0.0035
   93OCTO    C2 2489   0.002   0.001   3.134  0.1570  0.5380 -0.5835
   93OCTO   H21 2490  -0.028  -0.105   3.119 -0.9186  0.5575  1.1867
   93OCTO   H22 2491  -0.083   0.047   3.188  0.8425  0.1239  0.8999
   93OCTO    C3 2492   0.007   0.056   2.993 -0.0207 -0.1935  0.1541
   93OCTO   H31 2493   0.037   0.163   2.992  0.1013 -0.2160 -1.4950
   93OCTO   H32 2494   0.096   0.015   2.940 -0.4387 -0.1096 -0.6376
   93OCTO    C4 2495  -0.112   0.023   2.909 -0.0867 -0.1741 -0.0882
   93OCTO   H41 2496  -0.124  -0.088   2.904  0.8053 -0.3841  1.5867
   93OCTO   H42 2497  -0.201   0.065   2.960  0.4117  1.5036 -0.5562
   93OCTO    C5 2498  -0.095   0.075   2.771  0.6786  0.1605  0.0348
   93OCTO   H51 2499  -0.080   0.185   2.779  0.0650  0.1335  2.7893
   93OCTO   H52 2500  -0.001   0.036   2.727  0.3426 -0.4986 -0.1094
   93OCTO    C6 2501  -0.217   0.046   2.680 -0.2086 -0.1581  0.0860
   93OCTO   H61 2502  -0.241  -0.062   2.687 -0.5585  0.0102  3.5334
   93OCTO   H62 2503  -0.305   0.110   2.706 -1.2049 -1.5313  0.1969
   93OCTO    C7 2504  -0.199   0.082   2.530  0.0933  0.3770  0.0711
   93OCTO   H71 2505  -0.290   0.040   2.481  0.4132  0.5859 -0.7081
   93OCTO   H72 2506  -0.214   0.192   2.521 -0.9737  0.4102  1.7215
   93OCTO    C8 2507  -0.076   0.017   2.463  0.0805 -0.2240  0.7128
   93OCTO   H81 2508  -0.065  -0.093   2.458  0.7843 -0.1087 -0.6608
   93OCTO   H82 2509   0.015   0.060   2.510  0.5410 -1.9657  1.4640
   93OCTO    O1 2510  -0.087   0.071   2.333 -0.1065  0.1096  0.1407
   93OCTO   HO1 2511  -0.169   0.040   2.295 -2.9234  2.9345  3.3096
   94OCTO    C1 2512   3.694   3.722   3.978 -0.3676  0.2307  0.0929
   94OCTO   H11 2513   3.705   3.796   3.895 -0.8499  0.3620  0.1389
   94OCTO   H12 2514   3.695   3.770   4.078  1.7638  2.0228 -0.7173
   94OCTO   H13 2515   3.782   3.655   3.970 -1.9828 -1.8578 -1.2971
   94OCTO    C2 2516   3.569   3.624   3.960  0.5874  0.1798  0.0032
   94OCTO   H21 2517   3.553   3.590   3.856 -0.3746  0.5903  0.0071
   94OCTO   H22 2518   3.580   3.544   4.036 -3.9965  0.3242  1.1368
   94OCTO    C3 2519   3.435   3.701   3.993 -0.4360 -0.4385 -0.1144
   94OCTO   H31 2520   3.455   3.750   4.091  1.4773  1.7160 -1.4713
   94OCTO   H32 2521   3.419   3.782   3.919 -1.2939 -0.5449 -0.0493
   94OCTO    C4 2522   3.312   3.616   3.991  0.3185  0.9437 -0.4458
   94OCTO   H41 2523   3.291   3.572   3.891 -0.8963 -0.9363  0.5933
   94OCTO   H42 2524   3.343   3.532   4.055  0.6052 -0.9498 -2.9421
   94OCTO    C5 2525   3.186   3.681   4.044  0.0971 -0.1884 -0.8524
   94OCTO   H51 2526   3.192   3.734   4.142  1.6683 -0.3550 -0.8341
   94OCTO   H52 2527   3.155   3.761   3.973 -2.9167  1.6887  2.2929
   94OCTO    C6 2528   3.069   3.595   4.066 -0.0881 -0.0955  0.0118
   94OCTO   H61 2529   3.083   3.519   4.147  2.6319 -1.9222 -1.9780
   94OCTO   H62 2530   2.984   3.656   4.102  1.3472  2.7567 -1.1036
   94OCTO    C7 2531   3.027   3.525   3.935  0.4468  0.3360  0.1251
   94OCTO   H71 2532   3.040   3.598   3.852 -2.8878 -0.6696 -1.4655
   94OCTO   H72 2533   3.091   3.435   3.920  0.2435  0.2203 -0.0635
   94OCTO    C8 2534   2.880   3.476   3.930 -0.2712 -0.1665  0.4049
   94OCTO   H81 2535   2.818   3.566   3.908  0.0670  0.0268  0.2213
   94OCTO   H82 2536   2.851   3.418   4.019  0.4039 -1.1951 -0.0320
   94OCTO    O1 2537   2.871   3.400   3.816 -0.3993  0.9368  0.0596
   94OCTO   HO1 2538   2.784   3.421   3.782 -0.6979  0.0512  0.2601
   95OCTO    C1 2539   2.680   1.221   0.069  0.0354  0.5789  0.3117
   95OCTO   H11 2540   2.788   1.200   0.086  0.2157  0.1508 -1.1672
   95OCTO   H12 2541   2.633   1.121   0.081 -0.1128  0.2354 -2.4800
   95OCTO   H13 2542   2.676   1.257  -0.037 -1.2962 -1.7777 -0.5138
   95OCTO    C2 2543   2.638   1.307   0.185 -0.2413  0.1261 -0.0091
   95OCTO   H21 2544   2.690   1.281   0.279  0.5054  1.9066  0.1133
   95OCTO   H22 2545   2.678   1.409   0.168 -0.2610  0.1196 -0.1001
   95OCTO    C3 2546   2.484   1.298   0.226 -0.4573  0.2857  0.8772
   95OCTO   H31 2547   2.418   1.335   0.145 -0.1978 -0.0036  0.5296
   95OCTO   H32 2548   2.464   1.189   0.232 -1.4265  0.4492  0.7483
   95OCTO    C4 2549   2.448   1.363   0.355 -0.0756  0.2252  0.1774
   95OCTO   H41 2550   2.509   1.313   0.433  0.0280  1.4426  0.9019
   95OCTO   H42 2551   2.483   1.468   0.349 -0.8223  0.5706  1.4235
   95OCTO    C5 2552   2.298   1.351   0.379 -0.7321  0.3772 -0.4385
   95OCTO   H51 2553   2.248   1.386   0.286  0.5644  2.3564 -0.4517
   95OCTO   H52 2554   2.266   1.245   0.382 -1.2660  0.5049 -1.3340
   95OCTO    C6 2555   2.245   1.440   0.499 -0.6035  0.4990 -0.2245
   95OCTO   H61 2556   2.311   1.409   0.583 -0.1920  0.1309 -0.6759
   95OCTO   H62 2557   2.268   1.547   0.479 -0.2650  0.5172  0.2444
   95OCTO    C7 2558   2.097   1.428   0.530  0.0356 -0.4316 -0.2068
   95OCTO   H71 2559   2.040   1.475   0.447  1.2906 -0.3975 -1.0684
   95OCTO   H72 2560   2.066   1.321   0.542 -1.8116  0.1239  0.3819
   95OCTO    C8 2561   2.061   1.494   0.663 -0.3114 -0.4611  0.5893
   95OCTO   H81 2562   2.097   1.599   0.666  0.2505 -0.6521  0.8473
   95OCTO   H82 2563   2.125   1.438   0.735 -0.9374 -0.9552  0.7720
   95OCTO    O1 2564   1.924   1.476   0.692 -0.1281  0.3043  0.2807
   95OCTO   HO1 2565   1.915   1.514   0.780  3.7569 -0.1164  1.0367
   96OCTO    C1 2566   0.852   3.168   3.352  0.3602  0.2729 -0.1369
   96OCTO   H11 2567   0.950   3.115   3.352  0.2058 -0.0369  0.8873
   96OCTO   H12 2568   0.854   3.265   3.406 -1.2478 -1.1826  2.8197
   96OCTO   H13 2569   0.779   3.110   3.412  0.2886 -0.1641 -0.6406
   96OCTO    C2 2570   0.801   3.196   3.209  0.2548  0.7285  0.0403
   96OCTO   H21 2571   0.865   3.272   3.160  2.5096 -1.4471 -0.5984
   96OCTO   H22 2572   0.800   3.108   3.140 -2.4171 -0.4274  1.4153
   96OCTO    C3 2573   0.655   3.237   3.213  0.3476  0.1638  0.1739
   96OCTO   H31 2574   0.596   3.146   3.236  1.1844 -0.2547  0.6814
   96OCTO   H32 2575   0.640   3.312   3.293  0.2739  0.2860  0.0458
   96OCTO    C4 2576   0.609   3.297   3.074 -0.0824 -0.3195 -0.9331
   96OCTO   H41 2577   0.649   3.237   2.990 -0.5976 -2.1656  0.0694
   96OCTO   H42 2578   0.498   3.299   3.072 -0.2188 -1.3448  1.4089
   96OCTO    C5 2579   0.636   3.447   3.067 -0.8197 -0.5122 -0.0330
   96OCTO   H51 2580   0.583   3.493   3.153 -0.3384 -0.3512  0.1779
   96OCTO   H52 2581   0.744   3.469   3.076 -0.8004 -1.0013  1.1256
   96OCTO    C6 2582   0.574   3.519   2.946 -0.2929  0.6827 -0.5583
   96OCTO   H61 2583   0.633   3.494   2.855  2.6744 -0.2737  1.4995
   96OCTO   H62 2584   0.471   3.482   2.926  0.5699 -0.9541 -2.2390
   96OCTO    C7 2585   0.565   3.673   2.974 -1.1968 -0.1541  0.4936
   96OCTO   H71 2586   0.512   3.691   3.069 -2.7723  1.7232 -0.6651
   96OCTO   H72 2587   0.671   3.706   2.987 -1.3585  0.6004  0.0000
   96OCTO    C8 2588   0.515   3.746   2.851  0.3879  0.0274 -0.3527
   96OCTO   H81 2589   0.412   3.705   2.846  0.5986 -0.5317 -0.2368
   96OCTO   H82 2590   0.573   3.724   2.758  0.9597 -0.3861  0.0900
   96OCTO    O1 2591   0.520   3.891   2.870 -0.4149  0.0306  0.2892
   96OCTO   HO1 2592   0.486   3.917   2.783  0.1653 -1.5649 -0.4518
   97OCTO    C1 2593   2.758   0.251   1.799  0.4237 -0.0230  0.0289
   97OCTO   H11 2594   2.668   0.309   1.829 -0.9838 -1.5830 -0.9811
   97OCTO   H12 2595   2.795   0.242   1.904 -0.3523  0.7334  0.3798
   97OCTO   H13 2596   2.830   0.310   1.739  0.1639  1.4962  1.1312
   97OCTO    C2 2597   2.711   0.116   1.736 -0.3075 -0.8598 -0.4943
   97OCTO   H21 2598   2.679   0.133   1.632 -1.5608 -0.0165  0.0079
   97OCTO   H22 2599   2.806   0.060   1.727  0.7377  0.9317 -1.1296
   97OCTO    C3 2600   2.602   0.034   1.822 -0.5300  0.3389 -0.1606
   97OCTO   H31 2601   2.657  -0.010   1.908 -0.4785 -0.0684 -0.4016
   97OCTO   H32 2602   2.537   0.111   1.869  0.6274  0.8174  0.7175
   97OCTO    C4 2603   2.526  -0.074   1.745  0.1607 -0.4260 -0.2485
   97OCTO   H41 2604   2.455  -0.026   1.675 -0.6918 -0.3688  0.6344
   97OCTO   H42 2605   2.599  -0.144   1.699  2.7823  0.9938  1.4707
   97OCTO    C5 2606   2.441  -0.141   1.855 -0.6461  0.2080 -0.2843
   97OCTO   H51 2607   2.507  -0.185   1.933 -0.0090 -1.4963 -1.7289
   97OCTO   H52 2608   2.379  -0.064   1.907 -0.9014 -0.7200  0.8247
   97OCTO    C6 2609   2.343  -0.235   1.789  0.7944  0.9528  0.3583
   97OCTO   H61 2610   2.270  -0.177   1.729 -1.1904 -0.6671  1.0989
   97OCTO   H62 2611   2.393  -0.313   1.729 -1.6208 -0.8384  0.5372
   97OCTO    C7 2612   2.255  -0.300   1.892 -0.1037  0.1305 -0.0099
   97OCTO   H71 2613   2.310  -0.363   1.966 -0.8361 -2.8631 -1.8415
   97OCTO   H72 2614   2.192  -0.225   1.945  0.2963 -1.0005  2.1915
   97OCTO    C8 2615   2.162  -0.403   1.825  0.1560  0.5665  0.1715
   97OCTO   H81 2616   2.097  -0.370   1.741 -2.1857 -1.5046  1.0448
   97OCTO   H82 2617   2.093  -0.433   1.907  0.4805  0.9819  0.6043
   97OCTO    O1 2618   2.247  -0.509   1.777  0.5472  0.0536  0.2828
   97OCTO   HO1 2619   2.294  -0.462   1.708 -1.6061  3.6938  1.0328
   98OCTO    C1 2620   2.463   2.557   1.880 -0.2742  0.2647  0.2262
   98OCTO   H11 2621   2.454   2.662   1.844  1.8050 -0.1183 -1.6439
   98OCTO   H12 2622   2.392   2.491   1.826 -0.3385  0.8229 -0.3821
   98OCTO   H13 2623   2.429   2.558   1.986  1.4031 -1.4185  0.8311
   98OCTO    C2 2624   2.609   2.508   1.880  0.4638 -0.0163  0.0511
   98OCTO   H21 2625   2.669   2.542   1.792 -0.4875  2.0725  0.1480
   98OCTO   H22 2626   2.670   2.549   1.963  1.5994 -1.4210 -0.0570
   98OCTO    C3 2627   2.622   2.364   1.902  0.5829 -0.6409  0.4451
   98OCTO   H31 2628   2.565   2.349   1.996 -1.4318  1.8842 -0.2435
   98OCTO   H32 2629   2.557   2.313   1.827 -0.7432 -0.1447  1.2269
   98OCTO    C4 2630   2.759   2.305   1.919 -0.1629  0.4074  0.5180
   98OCTO   H41 2631   2.814   2.330   1.826 -0.4175 -0.0452  0.2461
   98OCTO   H42 2632   2.796   2.347   2.015 -3.6008  0.5920  1.9029
   98OCTO    C5 2633   2.747   2.144   1.934 -0.3441  0.6978  0.0846
   98OCTO   H51 2634   2.697   2.110   2.027 -2.2280 -1.2030 -1.5214
   98OCTO   H52 2635   2.686   2.114   1.847  2.0582  0.2108 -1.5315
   98OCTO    C6 2636   2.883   2.074   1.937  0.0006  0.0044 -0.3431
   98OCTO   H61 2637   2.938   2.126   1.856 -1.2101 -2.9603 -3.2600
   98OCTO   H62 2638   2.939   2.086   2.033 -1.2429  1.5900  0.2229
   98OCTO    C7 2639   2.874   1.923   1.904 -0.4558 -0.0362 -0.3274
   98OCTO   H71 2640   2.795   1.910   1.828 -1.8071 -3.0351  1.3812
   98OCTO   H72 2641   2.967   1.890   1.853  0.9205  3.9227 -0.6775
   98OCTO    C8 2642   2.845   1.835   2.025  0.2225 -0.3741 -0.6014
   98OCTO   H81 2643   2.756   1.870   2.081  0.3306 -0.7664 -0.1749
   98OCTO   H82 2644   2.932   1.836   2.094  1.1229 -0.7250 -1.7076
   98OCTO    O1 2645   2.828   1.694   1.988 -0.1540 -0.0946 -0.1736
   98OCTO   HO1 2646   2.786   1.652   2.063 -3.1858  0.9911 -1.0896
   99OCTO    C1 2647   1.862   2.620   2.800  0.0949  0.0559  0.4031
   99OCTO   H11 2648   1.959   2.577   2.834  0.6203  2.0731  1.6914
   99OCTO   H12 2649   1.804   2.626   2.895 -0.5935  1.2509 -0.0690
   99OCTO   H13 2650   1.819   2.566   2.713 -0.4452  0.9192  0.1240
   99OCTO    C2 2651   1.880   2.758   2.745  0.7210  0.0759  0.2183
   99OCTO   H21 2652   1.778   2.788   2.715  0.9148 -1.5446 -2.3893
   99OCTO   H22 2653   1.930   2.822   2.820  1.3128  1.5644 -1.3585
   99OCTO    C3 2654   1.965   2.768   2.622  0.1166 -0.7900  0.4063
   99OCTO   H31 2655   1.964   2.875   2.594 -0.8978 -0.4701  1.5675
   99OCTO   H32 2656   2.070   2.742   2.651  1.3130  1.6743 -1.3958
   99OCTO    C4 2657   1.922   2.682   2.509  0.6177 -0.1930 -0.1109
   99OCTO   H41 2658   1.965   2.582   2.527  0.9397  0.1087  0.8378
   99OCTO   H42 2659   1.812   2.672   2.499  0.3228  2.4081 -0.3692
   99OCTO    C5 2660   1.975   2.745   2.376 -0.5714 -0.0764  0.3657
   99OCTO   H51 2661   1.948   2.853   2.377  0.1084  0.1021  1.0426
   99OCTO   H52 2662   2.086   2.739   2.367 -0.5631  0.1803  0.2749
   99OCTO    C6 2663   1.917   2.697   2.241  0.0709  0.1518 -0.2637
   99OCTO   H61 2664   1.937   2.588   2.248 -0.2961  0.0939 -0.0690
   99OCTO   H62 2665   1.806   2.706   2.247 -0.2316 -0.8661 -3.1070
   99OCTO    C7 2666   1.978   2.745   2.107  0.4243 -0.0624 -0.7891
   99OCTO   H71 2667   1.930   2.688   2.024  1.3265 -1.2566 -0.5211
   99OCTO   H72 2668   1.968   2.855   2.096  1.4477  0.0673 -0.5282
   99OCTO    C8 2669   2.130   2.708   2.091  0.0466  0.0853 -0.3588
   99OCTO   H81 2670   2.135   2.597   2.085  1.2071  0.2184 -2.6044
   99OCTO   H82 2671   2.184   2.741   2.182 -0.7068  1.5096 -0.3859
   99OCTO    O1 2672   2.198   2.767   1.981 -0.2633 -0.5594  0.3212
   99OCTO   HO1 2673   2.142   2.744   1.907 -1.0618  1.1628  0.3246
  100OCTO    C1 2674   3.758   4.199   3.863 -1.4082 -0.1975 -0.5355
  100OCTO   H11 2675   3.760   4.242   3.966 -0.1996  2.9767 -1.7356
  100OCTO   H12 2676   3.729   4.092   3.866  1.8885 -1.2095 -0.3044
  100OCTO   H13 2677   3.858   4.188   3.816  0.7894  0.0574  3.6023
  100OCTO    C2 2678   3.680   4.277   3.765  0.2194  0.0599  0.5412
  100OCTO   H21 2679   3.691   4.234   3.663 -0.6959  1.2805 -0.1033
  100OCTO   H22 2680   3.571   4.277   3.789 -0.3468  1.1516 -1.7958
  100OCTO    C3 2681   3.727   4.426   3.753 -0.1320 -1.4232  0.4785
  100OCTO   H31 2682   3.837   4.423   3.738 -0.1222 -2.6228  0.7404
  100OCTO   H32 2683   3.664   4.467   3.671  0.4447  0.0488  0.7477
  100OCTO    C4 2684   3.685   4.511   3.867 -0.1126 -0.0676 -0.1705
  100OCTO   H41 2685   3.586   4.482   3.908 -0.0352 -0.8152 -0.4979
  100OCTO   H42 2686   3.760   4.500   3.948 -0.8360 -0.1557  0.5063
  100OCTO    C5 2687   3.667   4.660   3.821  0.5739 -0.1342  0.7193
  100OCTO   H51 2688   3.595   4.667   3.737 -0.3032  1.2383  1.5486
  100OCTO   H52 2689   3.619   4.708   3.909  0.2717 -1.1614  1.1295
  100OCTO    C6 2690   3.802   4.728   3.794  0.4685 -0.0345 -0.7982
  100OCTO   H61 2691   3.833   4.742   3.900  0.8979  1.7434 -1.1163
  100OCTO   H62 2692   3.870   4.654   3.746  1.1507  1.3944 -2.1140
  100OCTO    C7 2693   3.789   4.862   3.727 -0.1086  0.4071  0.2904
  100OCTO   H71 2694   3.742   4.844   3.627  1.3477 -2.1291 -0.0489
  100OCTO   H72 2695   3.719   4.923   3.786 -0.5979 -1.4036  1.6702
  100OCTO    C8 2696   3.921   4.929   3.716  0.3413 -0.7822  0.5119
  100OCTO   H81 2697   3.963   4.885   3.623  0.2666 -0.2535  0.2238
  100OCTO   H82 2698   3.992   4.903   3.797  0.7957  0.6290  0.6056
  100OCTO    O1 2699   3.911   5.073   3.702 -0.0695  0.1768  0.5889
  100OCTO   HO1 2700   3.998   5.113   3.696  0.4965 -0.6221  2.6203
  101OCTO    C1 2701   0.935   1.955   1.710 -0.2015 -0.0060 -0.2641
  101OCTO   H11 2702   0.893   2.000   1.618  0.9103 -0.1858 -0.8789
  101OCTO   H12 2703   0.911   2.019   1.798 -0.0095  0.4945 -0.5766
  101OCTO   H13 2704   1.046   1.951   1.707 -0.2324  0.0018 -1.7123
  101OCTO    C2 2705   0.882   1.811   1.727  0.1088 -0.4630  0.2163
  101OCTO   H21 2706   0.772   1.808   1.719  0.1572 -0.3806 -0.4636
  101OCTO   H22 2707   0.906   1.742   1.643  1.1578  0.3327 -0.1526
  101OCTO    C3 2708   0.936   1.748   1.858 -0.0852 -0.1805  0.1098
  101OCTO   H31 2709   0.962   1.822   1.936  1.9557  0.8752 -1.4877
  101OCTO   H32 2710   0.860   1.673   1.890  0.7564 -0.8361  0.6276
  101OCTO    C4 2711   1.062   1.657   1.833  0.0670  0.1868  0.1722
  101OCTO   H41 2712   1.041   1.590   1.747  2.1923 -0.9368  0.4405
  101OCTO   H42 2713   1.147   1.720   1.798 -0.4149  0.8589  0.1848
  101OCTO    C5 2714   1.101   1.590   1.966  0.4998 -0.3256  0.2511
  101OCTO   H51 2715   1.110   1.676   2.036  0.9297 -0.8078  0.7987
  101OCTO   H52 2716   1.010   1.529   1.981 -1.7433  2.2366 -1.8664
  101OCTO    C6 2717   1.243   1.525   1.963  0.3721 -0.5476 -0.0072
  101OCTO   H61 2718   1.315   1.586   1.904 -0.6244 -0.4973 -1.1992
  101OCTO   H62 2719   1.280   1.513   2.067  0.7436 -1.9484 -0.2799
  101OCTO    C7 2720   1.240   1.387   1.897  0.2857  0.2056 -0.1640
  101OCTO   H71 2721   1.179   1.316   1.957  1.6128  0.2926  1.3405
  101OCTO   H72 2722   1.189   1.395   1.799 -1.2257  1.2961  0.6758
  101OCTO    C8 2723   1.375   1.316   1.904 -0.2044 -0.5115  0.7235
  101OCTO   H81 2724   1.424   1.309   2.003  1.3685 -0.6791 -0.0408
  101OCTO   H82 2725   1.446   1.372   1.839 -1.3918 -0.0071 -0.1894
  101OCTO    O1 2726   1.366   1.184   1.860  0.0814  0.0074  0.1030
  101OCTO   HO1 2727   1.425   1.166   1.786  0.4438 -1.2137  0.6640
  102OCTO    C1 2728   2.588   1.293   1.649 -0.0076  0.1105 -0.0560
  102OCTO   H11 2729   2.680   1.352   1.669  0.2421  0.4977 -2.2015
  102OCTO   H12 2730   2.501   1.357   1.676  0.3457  1.0570 -1.1009
  102OCTO   H13 2731   2.591   1.212   1.726 -0.7754  0.7551  0.6740
  102OCTO    C2 2732   2.570   1.248   1.508  0.2888  0.4917 -0.0353
  102OCTO   H21 2733   2.665   1.202   1.473 -1.4831 -3.2440 -0.3786
  102OCTO   H22 2734   2.494   1.169   1.493 -0.0697  0.2515  2.6007
  102OCTO    C3 2735   2.528   1.363   1.412 -0.8613 -0.3735 -0.2665
  102OCTO   H31 2736   2.431   1.403   1.449  0.0451  2.2941 -0.5368
  102OCTO   H32 2737   2.608   1.440   1.419 -0.2574 -1.0450  0.5298
  102OCTO    C4 2738   2.522   1.327   1.269 -0.5990 -0.2118  0.4273
  102OCTO   H41 2739   2.495   1.423   1.219 -1.0851 -0.1968  0.7122
  102OCTO   H42 2740   2.625   1.308   1.232 -0.0356  0.7452  1.4629
  102OCTO    C5 2741   2.429   1.217   1.216 -0.2990  0.5140 -0.5063
  102OCTO   H51 2742   2.491   1.126   1.231  0.9848  1.6377  1.5819
  102OCTO   H52 2743   2.338   1.204   1.278  0.5080 -4.1474  0.0359
  102OCTO    C6 2744   2.389   1.233   1.063 -0.9931 -0.3389 -0.4541
  102OCTO   H61 2745   2.328   1.325   1.050 -1.7774 -0.9560 -1.3547
  102OCTO   H62 2746   2.487   1.236   1.011  0.1394  1.2426  1.6448
  102OCTO    C7 2747   2.296   1.125   1.019 -0.1214 -0.0039 -0.1645
  102OCTO   H71 2748   2.360   1.035   1.015 -0.1168 -0.0154  0.1942
  102OCTO   H72 2749   2.218   1.110   1.096  1.6027  2.9080  2.3838
  102OCTO    C8 2750   2.226   1.136   0.889  0.2216  0.8605  0.1853
  102OCTO   H81 2751   2.295   1.107   0.807 -0.3240 -1.1174  0.3872
  102OCTO   H82 2752   2.193   1.241   0.873 -0.5002  0.9443  2.0141
  102OCTO    O1 2753   2.103   1.055   0.878 -0.3918  0.0795  0.6284
  102OCTO   HO1 2754   2.034   1.117   0.854 -0.6087  0.6271  2.5357
  103OCTO    C1 2755   3.871   2.280   2.888  0.3423  0.4863 -0.3778
  103OCTO   H11 2756   3.977   2.253   2.874  0.0528 -0.1070 -1.5888
  103OCTO   H12 2757   3.816   2.185   2.903  1.6711 -0.0544  1.2987
  103OCTO   H13 2758   3.847   2.335   2.794  1.6618 -0.8422 -1.5258
  103OCTO    C2 2759   3.851   2.375   3.007  0.4693  0.8550  0.6711
  103OCTO   H21 2760   3.926   2.456   3.009  0.8128  0.5615  0.0809
  103OCTO   H22 2761   3.754   2.428   3.010 -0.0238  0.0035  0.2960
  103OCTO    C3 2762   3.872   2.314   3.144 -0.1356 -0.0645  0.1077
  103OCTO   H31 2763   3.974   2.269   3.138  0.5210  1.4164 -0.3335
  103OCTO   H32 2764   3.873   2.392   3.223 -3.1759  1.1202 -0.9190
  103OCTO    C4 2765   3.761   2.218   3.195 -0.2027 -0.7076  0.0235
  103OCTO   H41 2766   3.671   2.282   3.201  0.4772  0.2745  0.0183
  103OCTO   H42 2767   3.757   2.147   3.109  1.7373  0.4348 -1.0988
  103OCTO    C5 2768   3.779   2.156   3.329  0.2196  0.5482 -0.4321
  103OCTO   H51 2769   3.858   2.080   3.311 -1.5684 -0.6735 -3.8332
  103OCTO   H52 2770   3.810   2.235   3.401  1.1880 -1.3311  1.3104
  103OCTO    C6 2771   3.655   2.090   3.393  0.4468  0.2894 -0.5920
  103OCTO   H61 2772   3.577   2.162   3.363 -0.2096 -0.1058  0.1271
  103OCTO   H62 2773   3.631   1.999   3.332  1.6535  0.8783 -2.0111
  103OCTO    C7 2774   3.665   2.070   3.548  0.1915  0.4002 -0.3987
  103OCTO   H71 2775   3.751   2.009   3.582  0.0446  0.4770  0.1222
  103OCTO   H72 2776   3.681   2.173   3.589  1.4009  0.3068 -0.6216
  103OCTO    C8 2777   3.534   2.012   3.612 -0.0389 -0.1619  0.1942
  103OCTO   H81 2778   3.518   1.908   3.575  0.1151  0.0055 -0.3560
  103OCTO   H82 2779   3.446   2.072   3.581  0.2848  0.2702  0.0925
  103OCTO    O1 2780   3.549   2.017   3.758  0.5419  0.5029  0.0683
  103OCTO   HO1 2781   3.468   1.990   3.801  0.0780  0.4396 -0.8214
  104OCTO    C1 2782   0.037   1.791   3.483 -0.4848 -0.3768 -0.1513
  104OCTO   H11 2783  -0.053   1.850   3.512  1.2078  1.7595  0.9816
  104OCTO   H12 2784   0.016   1.756   3.380 -1.7024 -0.1902  0.0197
  104OCTO   H13 2785   0.041   1.704   3.553  1.4128 -2.5777 -2.7899
  104OCTO    C2 2786   0.169   1.875   3.489  0.7587  0.0803 -0.7352
  104OCTO   H21 2787   0.255   1.808   3.469 -0.4884 -1.1418 -2.2538
  104OCTO   H22 2788   0.165   1.947   3.404  0.2309  1.1596  0.1843
  104OCTO    C3 2789   0.193   1.948   3.617 -0.8804  0.2603 -0.5483
  104OCTO   H31 2790   0.099   2.002   3.643 -0.4621  0.7896 -0.0878
  104OCTO   H32 2791   0.217   1.875   3.698  0.7276  0.6590 -0.6323
  104OCTO    C4 2792   0.310   2.044   3.608  0.1480  0.0981 -0.7153
  104OCTO   H41 2793   0.280   2.129   3.544  1.4977  0.2043 -1.2456
  104OCTO   H42 2794   0.326   2.080   3.712 -0.0611 -0.3700 -0.5155
  104OCTO    C5 2795   0.437   1.972   3.567 -0.8579  0.1075 -0.2767
  104OCTO   H51 2796   0.462   1.902   3.650  1.4177  0.8983 -0.2273
  104OCTO   H52 2797   0.439   1.908   3.477  0.2732  2.1217 -1.7514
  104OCTO    C6 2798   0.560   2.076   3.550  1.3080  0.2120  0.2603
  104OCTO   H61 2799   0.529   2.148   3.471  1.4064 -1.3131 -1.2273
  104OCTO   H62 2800   0.564   2.134   3.645  0.3365  0.3048  0.2548
  104OCTO    C7 2801   0.691   2.001   3.525  0.2238 -0.1605  0.3045
  104OCTO   H71 2802   0.722   1.930   3.605  1.1284  1.4929  1.4848
  104OCTO   H72 2803   0.672   1.932   3.440 -1.0795  0.9543 -0.3682
  104OCTO    C8 2804   0.807   2.098   3.501  0.0423 -0.0797  0.2460
  104OCTO   H81 2805   0.832   2.154   3.593 -1.3018  2.1618 -0.6574
  104OCTO   H82 2806   0.774   2.178   3.431 -0.1430 -0.5533 -0.2109
  104OCTO    O1 2807   0.922   2.026   3.460  0.0666  0.1626 -0.5906
  104OCTO   HO1 2808   0.996   2.086   3.448  0.9220 -1.1239 -2.2725
  105OCTO    C1 2809   3.547   0.196   1.812 -0.2132  0.6787 -0.6734
  105OCTO   H11 2810   3.613   0.169   1.898 -0.8311 -1.4564 -0.8316
  105OCTO   H12 2811   3.618   0.208   1.727 -1.0833  0.9429 -1.3788
  105OCTO   H13 2812   3.523   0.303   1.831 -0.7451  0.2380  1.3885
  105OCTO    C2 2813   3.440   0.100   1.786  0.3980  0.3088 -0.1699
  105OCTO   H21 2814   3.349   0.123   1.844  0.3431 -1.1195  0.3607
  105OCTO   H22 2815   3.404   0.107   1.681  0.0512 -2.1442 -0.2936
  105OCTO    C3 2816   3.469  -0.054   1.808  0.3521 -0.5058  0.3177
  105OCTO   H31 2817   3.527  -0.057   1.903  0.5921 -1.2877  0.1489
  105OCTO   H32 2818   3.370  -0.102   1.824  0.2518 -0.5610 -0.4279
  105OCTO    C4 2819   3.534  -0.123   1.692  0.2326 -0.1773  0.5957
  105OCTO   H41 2820   3.470  -0.131   1.602  0.4786  1.3786  0.2692
  105OCTO   H42 2821   3.626  -0.070   1.660 -0.1799 -0.6384 -1.4562
  105OCTO    C5 2822   3.566  -0.275   1.720 -0.0170 -0.2855  0.2554
  105OCTO   H51 2823   3.471  -0.331   1.728 -0.0495 -0.1094  1.2411
  105OCTO   H52 2824   3.615  -0.303   1.624  2.2951 -0.0248  1.2930
  105OCTO    C6 2825   3.660  -0.303   1.841  0.2101 -0.3711 -0.0734
  105OCTO   H61 2826   3.759  -0.259   1.819 -0.4098  1.1373  0.0298
  105OCTO   H62 2827   3.627  -0.256   1.936 -0.5531  0.0087 -0.5109
  105OCTO    C7 2828   3.667  -0.453   1.852  0.9708  0.1323 -0.3489
  105OCTO   H71 2829   3.711  -0.484   1.950  0.5969 -1.7291 -0.7361
  105OCTO   H72 2830   3.564  -0.494   1.846  1.1347 -0.1340 -1.6114
  105OCTO    C8 2831   3.761  -0.530   1.754  0.0420 -0.3352 -0.2673
  105OCTO   H81 2832   3.857  -0.476   1.766 -0.9355  1.3033  0.6856
  105OCTO   H82 2833   3.735  -0.518   1.647  0.8921 -1.5463 -0.6245
  105OCTO    O1 2834   3.767  -0.671   1.775 -0.3045 -0.0452 -0.1731
  105OCTO   HO1 2835   3.807  -0.700   1.692  1.2439  2.0362 -0.2398
  106OCTO    C1 2836   4.119   2.150   1.828  0.3668  0.9954 -0.1683
  106OCTO   H11 2837   4.229   2.156   1.816  0.3617  1.7509  0.0993
  106OCTO   H12 2838   4.093   2.166   1.935  1.1133  0.3601  0.1192
  106OCTO   H13 2839   4.108   2.040   1.812  1.2438  0.9865 -0.7612
  106OCTO    C2 2840   4.042   2.235   1.724  0.0297 -0.2837 -0.7932
  106OCTO   H21 2841   4.063   2.201   1.620  0.6032  0.2217 -0.8491
  106OCTO   H22 2842   3.933   2.224   1.739  0.0277  1.6889  1.3042
  106OCTO    C3 2843   4.082   2.386   1.735  0.2081 -0.1146 -0.3346
  106OCTO   H31 2844   4.183   2.399   1.690  0.2000 -0.5362 -0.4865
  106OCTO   H32 2845   4.008   2.436   1.670 -3.1568 -0.3787  2.9722
  106OCTO    C4 2846   4.064   2.446   1.877 -0.2518 -0.4814  0.0559
  106OCTO   H41 2847   3.970   2.425   1.932  0.5506  0.7659  2.0310
  106OCTO   H42 2848   4.151   2.403   1.931 -0.1078  0.3895  0.5336
  106OCTO    C5 2849   4.073   2.597   1.883 -0.1521 -0.4262  0.5178
  106OCTO   H51 2850   4.135   2.642   1.803 -0.3574 -0.3606  0.3953
  106OCTO   H52 2851   3.973   2.634   1.855  0.5520  0.0839 -1.5006
  106OCTO    C6 2852   4.108   2.654   2.020  0.2720  0.7032  0.4350
  106OCTO   H61 2853   4.024   2.644   2.093  0.4953  0.7958  0.7040
  106OCTO   H62 2854   4.204   2.617   2.061 -0.5124 -0.4119  1.3512
  106OCTO    C7 2855   4.129   2.801   2.007  0.5307  0.2329  0.2332
  106OCTO   H71 2856   4.224   2.831   1.958  0.5372 -0.6139 -0.2975
  106OCTO   H72 2857   4.038   2.835   1.955 -3.6350 -2.1148  5.0886
  106OCTO    C8 2858   4.122   2.866   2.151 -0.0233 -0.6426  0.2766
  106OCTO   H81 2859   4.154   2.973   2.143  3.0520 -1.5114 -0.4582
  106OCTO   H82 2860   4.201   2.814   2.208  0.9322 -0.4434 -0.8122
  106OCTO    O1 2861   4.004   2.840   2.215  0.5734  0.5464 -0.3196
  106OCTO   HO1 2862   3.933   2.871   2.158  0.9076  0.8524 -0.5752
  107OCTO    C1 2863   2.990   2.860   1.354  0.5969  0.1326  0.4661
  107OCTO   H11 2864   3.093   2.839   1.318  1.2779  3.8147 -0.1955
  107OCTO   H12 2865   2.977   2.846   1.464  0.4913  0.2245  0.4660
  107OCTO   H13 2866   2.927   2.786   1.302 -1.0203  0.8193  1.3788
  107OCTO    C2 2867   2.955   3.008   1.326 -0.6850 -0.3867  0.2363
  107OCTO   H21 2868   2.845   3.019   1.336 -0.7374 -1.7871  1.5360
  107OCTO   H22 2869   3.008   3.065   1.406 -0.9008 -0.3988  0.3885
  107OCTO    C3 2870   2.987   3.064   1.187 -0.1918  0.0336 -0.2915
  107OCTO   H31 2871   2.962   3.007   1.095  0.3463 -1.2965  0.3472
  107OCTO   H32 2872   2.943   3.164   1.171  3.0033  1.2305 -2.6959
  107OCTO    C4 2873   3.146   3.089   1.166 -0.0165  0.5896  0.3724
  107OCTO   H41 2874   3.181   3.159   1.245  0.9418  1.2900 -0.6451
  107OCTO   H42 2875   3.196   2.995   1.196 -1.7525  0.0450  1.7404
  107OCTO    C5 2876   3.191   3.138   1.025  0.3304 -0.1193 -0.1482
  107OCTO   H51 2877   3.166   3.078   0.935  1.0640  2.3564 -2.0994
  107OCTO   H52 2878   3.135   3.229   0.998  0.1071 -0.7037 -1.7684
  107OCTO    C6 2879   3.338   3.161   1.022 -0.1562 -0.3610  0.1719
  107OCTO   H61 2880   3.370   3.217   1.112  0.8394 -2.3680  1.1457
  107OCTO   H62 2881   3.392   3.064   1.025  0.1949 -0.1491  2.6978
  107OCTO    C7 2882   3.380   3.230   0.896 -0.8412  0.1005 -0.8109
  107OCTO   H71 2883   3.380   3.156   0.814  1.0670 -0.3174 -0.4982
  107OCTO   H72 2884   3.301   3.306   0.877 -1.6734 -0.9707 -1.7137
  107OCTO    C8 2885   3.516   3.298   0.901  0.3962  0.4642 -0.2742
  107OCTO   H81 2886   3.524   3.381   0.975  1.3817 -0.2134  0.4042
  107OCTO   H82 2887   3.545   3.341   0.803 -0.7978  0.6835 -0.5508
  107OCTO    O1 2888   3.623   3.214   0.942 -0.2357 -0.0466  0.0218
  107OCTO   HO1 2889   3.702   3.266   0.922 -0.9847  0.9820 -0.3429
  108OCTO    C1 2890   2.584   2.792   1.091  0.0232 -0.0969 -0.6573
  108OCTO   H11 2891   2.506   2.751   1.023  1.1803  0.1790 -2.2012
  108OCTO   H12 2892   2.582   2.725   1.180 -2.3918 -2.9247 -2.6386
  108OCTO   H13 2893   2.552   2.896   1.114 -0.5332 -0.3808 -0.1072
  108OCTO    C2 2894   2.726   2.790   1.034 -0.7397  0.3152 -0.6420
  108OCTO   H21 2895   2.802   2.849   1.089 -0.6386  0.1678 -0.6213
  108OCTO   H22 2896   2.758   2.684   1.023  1.0471  0.6557  0.7952
  108OCTO    C3 2897   2.735   2.849   0.894  0.0116 -0.1707 -0.3770
  108OCTO   H31 2898   2.657   2.798   0.833 -0.0339  0.8401 -1.1912
  108OCTO   H32 2899   2.698   2.954   0.890 -0.3769 -0.2645  0.5139
  108OCTO    C4 2900   2.877   2.840   0.830 -0.0232  0.3816 -0.2275
  108OCTO   H41 2901   2.953   2.897   0.888 -0.0280 -0.4055  0.5922
  108OCTO   H42 2902   2.898   2.731   0.816 -2.5369  0.0560 -2.2621
  108OCTO    C5 2903   2.879   2.914   0.696 -0.3343 -0.2108 -0.4402
  108OCTO   H51 2904   2.853   3.021   0.707  0.8039  0.0401 -0.0697
  108OCTO   H52 2905   2.980   2.915   0.650  0.6084  1.4329  1.4986
  108OCTO    C6 2906   2.777   2.856   0.600 -0.4565 -0.4737 -0.1897
  108OCTO   H61 2907   2.782   2.746   0.609  2.2816 -0.3551  0.6226
  108OCTO   H62 2908   2.675   2.879   0.637  0.0659  0.2624  0.8478
  108OCTO    C7 2909   2.800   2.908   0.453  0.7637  0.0966 -0.6797
  108OCTO   H71 2910   2.908   2.909   0.428  0.8335 -1.2816 -0.4985
  108OCTO   H72 2911   2.755   2.835   0.383  1.8356 -2.3568  1.0413
  108OCTO    C8 2912   2.753   3.051   0.416  0.2717  0.4750  0.3819
  108OCTO   H81 2913   2.782   3.068   0.310  0.5967 -0.3804  0.3263
  108OCTO   H82 2914   2.807   3.122   0.482 -0.4218  1.6374 -0.2746
  108OCTO    O1 2915   2.619   3.072   0.442 -0.0593 -0.0520  0.2752
  108OCTO   HO1 2916   2.582   3.033   0.362  0.4140 -0.0186  0.0387
  109OCTO    C1 2917   4.281   1.240   2.905 -0.6103 -0.0945 -0.7096
  109OCTO   H11 2918   4.201   1.313   2.931 -1.8999 -1.6148 -0.1742
  109OCTO   H12 2919   4.370   1.297   2.871  0.3743 -1.8266 -1.1826
  109OCTO   H13 2920   4.258   1.168   2.822  1.4855 -1.3110 -0.3020
  109OCTO    C2 2921   4.324   1.164   3.027  0.2743  0.3638 -0.2681
  109OCTO   H21 2922   4.388   1.081   2.990  0.2214 -0.5682  1.6087
  109OCTO   H22 2923   4.385   1.221   3.100 -0.3195  0.4932  0.1414
  109OCTO    C3 2924   4.210   1.103   3.111  0.4935  0.5751  0.3760
  109OCTO   H31 2925   4.259   1.040   3.188  0.1052 -0.7432 -0.4191
  109OCTO   H32 2926   4.155   1.183   3.164  0.6258 -0.4594  2.1472
  109OCTO    C4 2927   4.117   1.003   3.038  0.2681  0.2076  0.2159
  109OCTO   H41 2928   4.039   1.062   2.985 -0.3445  1.3277  2.2573
  109OCTO   H42 2929   4.172   0.942   2.963  0.6270  2.0183 -1.0552
  109OCTO    C5 2930   4.045   0.905   3.132  0.4472 -0.2123  0.0186
  109OCTO   H51 2931   4.000   0.823   3.073  0.6566  0.4985 -1.1766
  109OCTO   H52 2932   4.128   0.854   3.184  0.8054  0.8769  0.5555
  109OCTO    C6 2933   3.938   0.971   3.225 -0.1665  0.0959 -0.0300
  109OCTO   H61 2934   3.987   1.064   3.263 -0.5538  0.4403 -0.3634
  109OCTO   H62 2935   3.845   0.999   3.170  0.2371  0.6905 -0.4328
  109OCTO    C7 2936   3.889   0.882   3.342  0.2404 -0.2092  0.7623
  109OCTO   H71 2937   3.858   0.788   3.292 -0.4964  0.7071 -0.5710
  109OCTO   H72 2938   3.981   0.868   3.403  1.2811 -1.0981 -0.9335
  109OCTO    C8 2939   3.781   0.941   3.422  0.5422 -0.9709 -0.3564
  109OCTO   H81 2940   3.699   0.973   3.354 -1.1481 -1.7412  1.2102
  109OCTO   H82 2941   3.817   1.034   3.470 -1.2988 -0.5628  0.3053
  109OCTO    O1 2942   3.728   0.845   3.515 -0.5691 -0.6933  0.1793
  109OCTO   HO1 2943   3.796   0.813   3.575  0.5029  0.2486 -0.4778
  110OCTO    C1 2944   1.409   0.106   0.800 -0.5455 -0.0076  0.0029
  110OCTO   H11 2945   1.335   0.026   0.817 -0.4874 -0.0837 -0.1031
  110OCTO   H12 2946   1.503   0.068   0.844  1.0242  1.3100 -2.0154
  110OCTO   H13 2947   1.354   0.182   0.860 -2.3209 -1.2624  0.0450
  110OCTO    C2 2948   1.411   0.164   0.654  0.1511 -0.0652 -0.3462
  110OCTO   H21 2949   1.304   0.185   0.633  0.1285  0.1462 -0.0324
  110OCTO   H22 2950   1.474   0.256   0.656  2.4312 -1.5384  0.8931
  110OCTO    C3 2951   1.464   0.061   0.550  0.5637 -0.2327 -0.1948
  110OCTO   H31 2952   1.445   0.114   0.454 -0.2822 -1.6885 -0.8670
  110OCTO   H32 2953   1.574   0.048   0.556  0.7411  0.3565 -1.6678
  110OCTO    C4 2954   1.393  -0.076   0.536  0.7354  0.4207  0.1705
  110OCTO   H41 2955   1.434  -0.134   0.622  1.9666 -0.0747 -0.7174
  110OCTO   H42 2956   1.282  -0.081   0.536  0.7845 -2.5065  0.4544
  110OCTO    C5 2957   1.443  -0.148   0.409 -0.3810  0.1254 -0.4502
  110OCTO   H51 2958   1.391  -0.245   0.396  0.2973 -0.1557 -1.1833
  110OCTO   H52 2959   1.412  -0.089   0.320 -1.1274 -0.0516 -0.3051
  110OCTO    C6 2960   1.595  -0.178   0.408  0.7649  0.2591 -0.4463
  110OCTO   H61 2961   1.645  -0.078   0.405  0.6602  0.2832 -2.0033
  110OCTO   H62 2962   1.623  -0.224   0.505  2.5435 -0.1189 -1.0992
  110OCTO    C7 2963   1.633  -0.262   0.291  0.1365  0.0369  0.2821
  110OCTO   H71 2964   1.585  -0.362   0.306  0.7526 -0.0114  2.3175
  110OCTO   H72 2965   1.586  -0.213   0.203 -0.7564 -0.1857  0.6204
  110OCTO    C8 2966   1.788  -0.269   0.269  0.1024  0.0900  0.0778
  110OCTO   H81 2967   1.837  -0.336   0.343 -2.9210 -0.7074  1.5223
  110OCTO   H82 2968   1.830  -0.167   0.271 -1.0480  0.5700  0.7535
  110OCTO    O1 2969   1.816  -0.324   0.142  0.1062  0.2519 -0.5020
  110OCTO   HO1 2970   1.811  -0.248   0.082  0.4268  0.4976 -0.2204
  111OCTO    C1 2971   1.641   0.598   1.197 -0.9712 -0.6491 -0.4394
  111OCTO   H11 2972   1.617   0.700   1.231  0.5382 -0.8886  1.5496
  111OCTO   H12 2973   1.622   0.535   1.286 -2.6691  1.8700  1.0923
  111OCTO   H13 2974   1.751   0.602   1.178 -0.9952  1.1510 -0.3545
  111OCTO    C2 2975   1.562   0.558   1.079 -0.6816  0.0631 -0.4560
  111OCTO   H21 2976   1.556   0.450   1.056 -0.0644 -0.1355  0.2665
  111OCTO   H22 2977   1.464   0.610   1.084 -0.5293  0.2409  2.3608
  111OCTO    C3 2978   1.631   0.604   0.943 -0.2619  0.3719  0.0782
  111OCTO   H31 2979   1.731   0.558   0.934  1.8266  3.9772  2.4690
  111OCTO   H32 2980   1.563   0.573   0.860 -1.0042  0.0502  0.7990
  111OCTO    C4 2981   1.649   0.754   0.929  0.1571  0.0015  0.0462
  111OCTO   H41 2982   1.546   0.796   0.922  1.2876  3.2158  0.8633
  111OCTO   H42 2983   1.685   0.802   1.023  0.5557  1.3617 -0.7754
  111OCTO    C5 2984   1.738   0.804   0.817  0.0606 -0.8350  0.2110
  111OCTO   H51 2985   1.838   0.757   0.824  0.5579  0.1280 -0.3642
  111OCTO   H52 2986   1.707   0.769   0.716 -1.1004 -1.1792  0.6608
  111OCTO    C6 2987   1.744   0.951   0.819 -0.8248 -0.3644 -0.2586
  111OCTO   H61 2988   1.641   0.993   0.820 -1.0889 -0.9897  0.8008
  111OCTO   H62 2989   1.796   0.988   0.910 -1.6195  0.5029 -0.1351
  111OCTO    C7 2990   1.825   0.995   0.693 -0.0176 -0.4366  0.4301
  111OCTO   H71 2991   1.926   0.950   0.691 -0.6523 -1.8898 -0.8449
  111OCTO   H72 2992   1.762   0.969   0.605 -1.6556  1.1315  1.0841
  111OCTO    C8 2993   1.844   1.148   0.668 -0.0297 -0.8062 -0.1003
  111OCTO   H81 2994   1.751   1.202   0.640  0.1240 -0.4246  0.1102
  111OCTO   H82 2995   1.909   1.152   0.578 -0.5454 -1.7462 -0.5274
  111OCTO    O1 2996   1.912   1.224   0.769  0.1684  0.2707 -0.5754
  111OCTO   HO1 2997   1.915   1.316   0.744  2.0086  0.6056  0.6977
  112OCTO    C1 2998   1.631   3.530   3.180 -0.0552  0.8558  0.4957
  112OCTO   H11 2999   1.620   3.485   3.282 -2.0607 -0.2229 -0.1384
  112OCTO   H12 3000   1.581   3.629   3.183  0.6171  1.2748 -1.2165
  112OCTO   H13 3001   1.587   3.464   3.103 -0.1817 -0.6631  1.8147
  112OCTO    C2 3002   1.780   3.558   3.159 -0.1896  0.3645  0.1746
  112OCTO   H21 3003   1.792   3.579   3.050 -1.9265  3.0010  0.4022
  112OCTO   H22 3004   1.805   3.649   3.218 -0.6406  0.7303 -0.1814
  112OCTO    C3 3005   1.877   3.449   3.183  0.1167 -1.1914  0.0190
  112OCTO   H31 3006   1.859   3.399   3.281 -0.4206 -0.0639  0.5231
  112OCTO   H32 3007   1.863   3.375   3.102 -0.2256 -0.1956 -0.8566
  112OCTO    C4 3008   2.021   3.511   3.179 -0.0674  0.3973  0.3468
  112OCTO   H41 3009   2.045   3.546   3.076  0.9052  2.1996  1.1368
  112OCTO   H42 3010   2.029   3.598   3.248 -1.7986  0.6858  0.2334
  112OCTO    C5 3011   2.133   3.412   3.211 -0.5641  0.5229  0.2812
  112OCTO   H51 3012   2.102   3.351   3.298  1.0678  0.0816  0.5989
  112OCTO   H52 3013   2.155   3.349   3.122 -3.4127  0.2972 -0.3574
  112OCTO    C6 3014   2.268   3.476   3.258 -0.2439  0.0700 -0.3652
  112OCTO   H61 3015   2.307   3.551   3.186 -2.3715  0.3121 -1.3453
  112OCTO   H62 3016   2.251   3.525   3.356 -1.1062  0.1770 -0.5603
  112OCTO    C7 3017   2.375   3.364   3.269 -0.2235  0.0957  0.3676
  112OCTO   H71 3018   2.348   3.275   3.331 -1.4566 -0.7157 -1.2783
  112OCTO   H72 3019   2.401   3.332   3.166  0.1833  0.9494  0.1937
  112OCTO    C8 3020   2.512   3.410   3.330 -0.1177 -0.8336  0.4520
  112OCTO   H81 3021   2.502   3.455   3.431  2.0272  1.3332 -0.2067
  112OCTO   H82 3022   2.537   3.490   3.257 -1.4593  0.6201  1.5282
  112OCTO    O1 3023   2.616   3.314   3.320 -0.1306 -0.1655 -0.3376
  112OCTO   HO1 3024   2.608   3.283   3.229  2.9630 -0.7212 -0.5233
  113OCTO    C1 3025   0.974   0.872   4.054  0.2395 -0.6028 -0.0134
  113OCTO   H11 3026   1.081   0.886   4.084  0.3726  2.8516 -1.6327
  113OCTO   H12 3027   0.941   0.949   3.982  2.2845  2.3999  2.0041
  113OCTO   H13 3028   0.913   0.897   4.143 -0.2643  0.6096 -0.6858
  113OCTO    C2 3029   0.957   0.727   3.996  0.1123  0.2693  0.3184
  113OCTO   H21 3030   1.027   0.718   3.911 -2.0425  1.4718 -1.7031
  113OCTO   H22 3031   0.995   0.654   4.070 -2.2552 -1.6180 -0.1921
  113OCTO    C3 3032   0.815   0.699   3.960  0.0776  0.1417  0.6565
  113OCTO   H31 3033   0.757   0.721   4.052  0.5709 -1.7157  1.4606
  113OCTO   H32 3034   0.798   0.775   3.881 -1.8830  1.0080  1.8391
  113OCTO    C4 3035   0.784   0.552   3.915  0.4479 -0.0439  0.1755
  113OCTO   H41 3036   0.832   0.521   3.820  1.0201  0.9525  0.1348
  113OCTO   H42 3037   0.817   0.472   3.984  0.3171  1.2042  1.7250
  113OCTO    C5 3038   0.634   0.531   3.886 -0.7152 -0.6181 -0.0324
  113OCTO   H51 3039   0.605   0.424   3.888 -0.3444 -0.7277 -0.4869
  113OCTO   H52 3040   0.577   0.581   3.967  1.0031  3.3675 -1.0643
  113OCTO    C6 3041   0.589   0.575   3.745  0.0337 -0.5887 -0.6056
  113OCTO   H61 3042   0.634   0.676   3.734  0.0187 -0.5550 -0.3760
  113OCTO   H62 3043   0.622   0.510   3.661 -1.2245 -0.4478 -1.2395
  113OCTO    C7 3044   0.436   0.591   3.732  0.4833  0.3803 -0.5901
  113OCTO   H71 3045   0.403   0.594   3.626 -2.1026  0.9830  0.1503
  113OCTO   H72 3046   0.402   0.497   3.780  0.2794 -0.0449 -1.5406
  113OCTO    C8 3047   0.380   0.717   3.802 -0.6046 -0.1036 -0.8716
  113OCTO   H81 3048   0.402   0.819   3.766 -0.9146  1.2935  2.5432
  113OCTO   H82 3049   0.414   0.712   3.908  0.3699 -2.2045 -1.2231
  113OCTO    O1 3050   0.238   0.703   3.791  0.4434 -0.1322 -0.0524
  113OCTO   HO1 3051   0.194   0.746   3.865  0.3330  1.2933 -0.9171
  114OCTO    C1 3052   3.196   4.154   2.793 -0.4134 -0.9417  0.1550
  114OCTO   H11 3053   3.181   4.230   2.713 -1.1069 -1.9133 -0.6607
  114OCTO   H12 3054   3.287   4.090   2.792 -0.1781 -0.6157  0.4759
  114OCTO   H13 3055   3.111   4.083   2.798  0.9948 -2.6406  2.2093
  114OCTO    C2 3056   3.217   4.213   2.931 -0.2653 -0.5071 -0.1466
  114OCTO   H21 3057   3.240   4.129   3.000  0.9531 -0.5287 -0.5462
  114OCTO   H22 3058   3.316   4.263   2.930  0.2973 -1.5618 -1.5851
  114OCTO    C3 3059   3.100   4.298   2.984 -0.0647 -0.8094  0.2019
  114OCTO   H31 3060   3.003   4.271   2.937 -1.5007  0.8395  2.0051
  114OCTO   H32 3061   3.087   4.275   3.092 -1.7553  0.2081  0.2468
  114OCTO    C4 3062   3.126   4.449   2.969  0.0118  0.8346 -0.4651
  114OCTO   H41 3063   3.223   4.479   3.014  0.2008 -0.6316  0.1412
  114OCTO   H42 3064   3.138   4.464   2.859  1.2680 -3.0211 -1.0011
  114OCTO    C5 3065   3.013   4.541   3.022  0.2863  0.5903  0.4933
  114OCTO   H51 3066   3.039   4.648   3.009  2.5360  0.0457  0.0418
  114OCTO   H52 3067   2.925   4.521   2.959  0.6823 -0.1028  0.1487
  114OCTO    C6 3068   2.993   4.533   3.174  0.0149  0.2984 -0.2043
  114OCTO   H61 3069   2.955   4.434   3.208 -1.8776  1.5747  1.6716
  114OCTO   H62 3070   3.080   4.560   3.237 -0.7028 -1.0370  1.4371
  114OCTO    C7 3071   2.880   4.627   3.216  0.6816  0.0657 -0.5425
  114OCTO   H71 3072   2.916   4.729   3.190  3.6291  0.3959  3.8418
  114OCTO   H72 3073   2.789   4.601   3.157  0.0368  2.3815 -0.6723
  114OCTO    C8 3074   2.849   4.633   3.367  0.3530 -0.7166  0.1026
  114OCTO   H81 3075   2.921   4.707   3.407  0.1044 -0.0406 -0.6671
  114OCTO   H82 3076   2.862   4.537   3.422  2.3224  0.0950  1.1641
  114OCTO    O1 3077   2.725   4.703   3.393  0.8866  0.1745  0.0470
  114OCTO   HO1 3078   2.725   4.784   3.341  2.7717  1.3843  1.7692
  115OCTO    C1 3079   0.576   0.990   4.064  0.8322  0.5334 -0.5614
  115OCTO   H11 3080   0.573   0.893   4.009 -0.3150  1.5107 -2.3222
  115OCTO   H12 3081   0.491   1.053   4.029  1.2291  1.3164 -0.1263
  115OCTO   H13 3082   0.673   1.039   4.045  1.0069  1.3709  2.1271
  115OCTO    C2 3083   0.570   0.949   4.215 -0.1749 -0.2498  0.1345
  115OCTO   H21 3084   0.655   0.879   4.229 -0.4856 -0.2887  2.0402
  115OCTO   H22 3085   0.582   1.045   4.269  1.1803 -0.3314  0.0177
  115OCTO    C3 3086   0.436   0.867   4.245  0.4543  1.1548  0.0127
  115OCTO   H31 3087   0.351   0.939   4.244 -2.4143 -1.9382  1.5564
  115OCTO   H32 3088   0.426   0.786   4.170 -1.4385  1.8856 -0.5909
  115OCTO    C4 3089   0.446   0.809   4.383 -0.4509  0.1887 -0.2275
  115OCTO   H41 3090   0.347   0.774   4.421 -0.9337  1.6138 -0.1270
  115OCTO   H42 3091   0.525   0.734   4.403 -1.0198 -1.3344 -3.1518
  115OCTO    C5 3092   0.461   0.924   4.487 -0.1742  0.4710  0.1220
  115OCTO   H51 3093   0.546   0.992   4.464 -0.0439  0.4224  0.4522
  115OCTO   H52 3094   0.369   0.985   4.495 -2.4308 -2.3476 -1.9894
  115OCTO    C6 3095   0.471   0.867   4.637 -0.2814 -0.4738 -0.1750
  115OCTO   H61 3096   0.395   0.791   4.665 -0.0752 -1.3651 -1.9126
  115OCTO   H62 3097   0.562   0.805   4.651  0.2436  0.7966  2.6287
  115OCTO    C7 3098   0.483   0.971   4.751 -0.0776  1.3527 -0.4709
  115OCTO   H71 3099   0.511   0.914   4.842  2.9432 -1.0385 -2.7045
  115OCTO   H72 3100   0.578   1.028   4.747  1.7286 -1.5033 -1.3548
  115OCTO    C8 3101   0.370   1.061   4.783 -0.0931 -0.0716  0.1784
  115OCTO   H81 3102   0.270   1.012   4.776 -0.4253  0.6265 -0.1111
  115OCTO   H82 3103   0.348   1.127   4.697 -0.4524 -1.5815 -0.9375
  115OCTO    O1 3104   0.390   1.125   4.913  0.5649 -0.0845  0.0934
  115OCTO   HO1 3105   0.478   1.164   4.910  0.1715  0.7418 -1.0591
  116OCTO    C1 3106   4.056   2.646   0.194 -0.1830 -0.2112 -0.3221
  116OCTO   H11 3107   4.122   2.609   0.275 -1.3859  0.2266  0.8946
  116OCTO   H12 3108   3.954   2.612   0.220  0.1731 -0.4815  0.7599
  116OCTO   H13 3109   4.086   2.580   0.110  0.1964 -1.1097  0.4947
  116OCTO    C2 3110   4.079   2.795   0.170 -0.1382 -0.1366  0.6019
  116OCTO   H21 3111   3.999   2.835   0.104  0.6743  1.5172  0.5728
  116OCTO   H22 3112   4.070   2.853   0.264  0.2382  0.5355  0.2317
  116OCTO    C3 3113   4.218   2.814   0.105 -0.6384  0.5744  0.0906
  116OCTO   H31 3114   4.285   2.782   0.188 -1.4041  0.2030  0.5755
  116OCTO   H32 3115   4.210   2.735   0.026  0.4141 -0.3089  0.8299
  116OCTO    C4 3116   4.263   2.943   0.046  0.8351 -0.2853 -0.0243
  116OCTO   H41 3117   4.367   2.942   0.007  0.9714  2.6887  0.0337
  116OCTO   H42 3118   4.193   2.973  -0.035  2.0155  0.1454 -0.9119
  116OCTO    C5 3119   4.260   3.067   0.142  0.1245 -0.0090  0.5324
  116OCTO   H51 3120   4.302   3.159   0.096 -0.2878  2.9092  5.3306
  116OCTO   H52 3121   4.154   3.076   0.173 -0.2007 -1.4044 -0.0620
  116OCTO    C6 3122   4.346   3.049   0.271  0.7118  0.6738  0.5548
  116OCTO   H61 3123   4.314   2.958   0.325 -0.8914  1.1920  0.5126
  116OCTO   H62 3124   4.456   3.044   0.252  0.6003 -0.0097  0.0508
  116OCTO    C7 3125   4.346   3.166   0.368 -0.4349 -0.0398 -0.5445
  116OCTO   H71 3126   4.400   3.140   0.461 -0.8594 -0.8914 -0.5262
  116OCTO   H72 3127   4.398   3.254   0.324 -1.2493  0.0846 -1.2937
  116OCTO    C8 3128   4.200   3.193   0.416 -0.6340 -0.5261 -0.1400
  116OCTO   H81 3129   4.164   3.095   0.455  1.9532 -0.3290  3.3723
  116OCTO   H82 3130   4.154   3.240   0.327  0.9280  0.6249 -0.3920
  116OCTO    O1 3131   4.197   3.289   0.524  0.0682 -0.4117  0.5147
  116OCTO   HO1 3132   4.240   3.366   0.487 -0.6454 -0.5405 -0.6193
  117OCTO    C1 3133   1.695   0.071   2.895 -0.0346 -0.5483  0.6378
  117OCTO   H11 3134   1.675   0.001   2.979 -0.9804  0.6739  1.4662
  117OCTO   H12 3135   1.684   0.014   2.800  0.8805  0.0077  0.1882
  117OCTO   H13 3136   1.803   0.083   2.915 -0.1112 -2.3681  2.5088
  117OCTO    C2 3137   1.610   0.197   2.905 -0.2279 -0.6100 -0.3676
  117OCTO   H21 3138   1.654   0.277   2.843  1.9214 -1.7201 -0.3648
  117OCTO   H22 3139   1.507   0.179   2.867  0.1649 -0.0754 -1.7075
  117OCTO    C3 3140   1.603   0.255   3.044  0.1940 -0.7079  0.7785
  117OCTO   H31 3141   1.574   0.172   3.111 -2.4393 -1.6248 -1.3200
  117OCTO   H32 3142   1.695   0.307   3.079 -0.6770  0.9869  0.7000
  117OCTO    C4 3143   1.489   0.363   3.057  0.2115  0.0420  0.3283
  117OCTO   H41 3144   1.393   0.308   3.065  0.1374  0.1374  0.1298
  117OCTO   H42 3145   1.500   0.419   3.152  0.0415  0.1674  0.2744
  117OCTO    C5 3146   1.501   0.471   2.950 -0.4006  0.5891  0.0901
  117OCTO   H51 3147   1.604   0.512   2.953  0.9736 -2.4023 -1.0927
  117OCTO   H52 3148   1.476   0.427   2.850 -0.2335  0.4615  0.1046
  117OCTO    C6 3149   1.398   0.587   2.952  0.2234 -0.0824 -0.2141
  117OCTO   H61 3150   1.298   0.549   2.983  0.4396 -0.2268  0.3235
  117OCTO   H62 3151   1.428   0.661   3.029 -0.6386  1.5631 -1.4136
  117OCTO    C7 3152   1.375   0.661   2.812 -0.2868 -0.6522  0.1852
  117OCTO   H71 3153   1.353   0.591   2.728 -1.1459  0.7732 -0.8092
  117OCTO   H72 3154   1.296   0.735   2.835  0.6699 -0.3281  2.8223
  117OCTO    C8 3155   1.506   0.728   2.761 -0.6677 -0.8517  0.1294
  117OCTO   H81 3156   1.582   0.650   2.738  1.1116  0.7117  0.4792
  117OCTO   H82 3157   1.555   0.805   2.823 -1.7461  0.5752 -0.7344
  117OCTO    O1 3158   1.473   0.789   2.633 -0.3598 -0.2718  0.1680
  117OCTO   HO1 3159   1.521   0.872   2.635 -0.0274 -0.4549 -0.1806
  118OCTO    C1 3160   0.960   3.879   2.928 -0.3397 -0.5615  0.3597
  118OCTO   H11 3161   1.003   3.979   2.952 -0.6758  0.2944 -2.3064
  118OCTO   H12 3162   0.849   3.871   2.937 -0.2224 -0.4137  2.3984
  118OCTO   H13 3163   0.997   3.802   2.999  0.1036 -2.7160 -2.0779
  118OCTO    C2 3164   1.004   3.837   2.790 -0.1473  0.0482  0.1534
  118OCTO   H21 3165   1.111   3.809   2.787 -0.4184 -0.9267 -1.0372
  118OCTO   H22 3166   0.943   3.748   2.762 -0.0555 -0.3708  1.2274
  118OCTO    C3 3167   0.977   3.940   2.676  1.0798 -0.1035 -0.2369
  118OCTO   H31 3168   1.040   4.029   2.701 -1.2364  1.2749  1.0656
  118OCTO   H32 3169   1.006   3.896   2.578 -2.1924 -1.8858 -0.5256
  118OCTO    C4 3170   0.832   3.978   2.675  0.0419  0.0971  0.4556
  118OCTO   H41 3171   0.775   3.883   2.678 -0.6588  0.4716 -0.6558
  118OCTO   H42 3172   0.794   4.029   2.766 -1.1336  0.2489 -0.0999
  118OCTO    C5 3173   0.773   4.055   2.554  0.0919 -0.1970  0.4960
  118OCTO   H51 3174   0.836   4.039   2.463 -1.3394  1.1004 -0.7881
  118OCTO   H52 3175   0.670   4.015   2.543 -0.0662 -0.1827  1.7930
  118OCTO    C6 3176   0.776   4.211   2.566  0.0171 -0.0320 -0.0119
  118OCTO   H61 3177   0.716   4.234   2.656  0.3546  0.2694  0.1389
  118OCTO   H62 3178   0.883   4.240   2.574 -0.3821  1.3599  0.7435
  118OCTO    C7 3179   0.700   4.277   2.454  0.2611  0.4411  0.3229
  118OCTO   H71 3180   0.757   4.269   2.359  0.2720 -0.2670  0.3872
  118OCTO   H72 3181   0.599   4.233   2.442  0.3287  0.7479 -1.6960
  118OCTO    C8 3182   0.666   4.426   2.492 -1.0247 -0.1270 -0.3439
  118OCTO   H81 3183   0.593   4.421   2.576 -0.6375 -1.5267 -0.0662
  118OCTO   H82 3184   0.605   4.475   2.413 -0.6932 -0.3626 -0.7505
  118OCTO    O1 3185   0.779   4.501   2.518 -0.1450  0.1961  0.3865
  118OCTO   HO1 3186   0.752   4.582   2.561 -0.9455 -0.8346  1.9419
  119OCTO    C1 3187   1.195   3.108   0.709 -0.3540  0.2020  0.7271
  119OCTO   H11 3188   1.289   3.166   0.699 -0.7563  0.6374 -0.7371
  119OCTO   H12 3189   1.171   3.060   0.806 -1.2827 -0.5776  0.1324
  119OCTO   H13 3190   1.214   3.036   0.627 -0.7719  0.3805  0.4691
  119OCTO    C2 3191   1.080   3.193   0.667 -0.1728  0.4848 -0.5547
  119OCTO   H21 3192   0.990   3.128   0.655  0.8384 -0.8719 -0.9551
  119OCTO   H22 3193   1.044   3.254   0.753 -1.1708  0.8283 -1.1987
  119OCTO    C3 3194   1.107   3.271   0.545  0.2217  0.2286  0.1833
  119OCTO   H31 3195   1.203   3.327   0.550  0.7988 -0.4486 -2.0277
  119OCTO   H32 3196   1.130   3.209   0.456  4.4164  1.9581 -0.2178
  119OCTO    C4 3197   1.001   3.373   0.513  0.3170 -0.0013 -0.4573
  119OCTO   H41 3198   0.914   3.308   0.490 -0.7237  0.8150  1.0174
  119OCTO   H42 3199   0.974   3.440   0.597 -0.3126 -1.4819  0.5770
  119OCTO    C5 3200   1.053   3.457   0.393  0.1638 -0.3459  0.6815
  119OCTO   H51 3201   0.981   3.541   0.376  0.6823  0.3335  1.7824
  119OCTO   H52 3202   1.147   3.509   0.421  0.0831 -0.4433  1.1397
  119OCTO    C6 3203   1.068   3.369   0.263 -0.2463 -0.6444  0.3340
  119OCTO   H61 3204   1.163   3.311   0.271 -0.1787 -0.4716  0.8110
  119OCTO   H62 3205   0.987   3.294   0.272 -0.8272 -0.2805 -1.5468
  119OCTO    C7 3206   1.052   3.439   0.125 -0.4940 -0.0796 -0.0357
  119OCTO   H71 3207   1.051   3.360   0.046 -0.9740 -2.6710  2.4154
  119OCTO   H72 3208   0.955   3.493   0.116 -1.4266 -1.4803  1.2528
  119OCTO    C8 3209   1.162   3.541   0.090  0.5292  0.1050 -0.1792
  119OCTO   H81 3210   1.261   3.492   0.074  1.4186  1.3312  1.2907
  119OCTO   H82 3211   1.164   3.611   0.176  0.8835  1.0059 -0.9083
  119OCTO    O1 3212   1.108   3.614  -0.021  0.3691  0.3789  0.5348
  119OCTO   HO1 3213   1.106   3.707   0.002  2.6337  0.4837  0.5586
  120OCTO    C1 3214   0.286   2.782   1.524  0.1691 -0.6872 -0.1423
  120OCTO   H11 3215   0.337   2.742   1.615 -0.5263  0.8867  0.9988
  120OCTO   H12 3216   0.272   2.691   1.463  0.5180 -1.5404  1.0185
  120OCTO   H13 3217   0.347   2.865   1.482 -1.1940  2.4071  3.3531
  120OCTO    C2 3218   0.147   2.844   1.566 -0.1856 -0.2505 -0.5155
  120OCTO   H21 3219   0.083   2.842   1.475  0.0855  1.3970 -0.7622
  120OCTO   H22 3220   0.093   2.782   1.642 -1.7542  0.1375 -1.2630
  120OCTO    C3 3221   0.159   2.984   1.630 -0.1123  0.0235  0.6125
  120OCTO   H31 3222   0.246   2.991   1.698  0.5932 -0.1715 -0.2608
  120OCTO   H32 3223   0.172   3.069   1.561  5.3121 -0.8133  0.2243
  120OCTO    C4 3224   0.041   3.018   1.720 -0.6839  0.2067 -0.0608
  120OCTO   H41 3225   0.004   2.926   1.771 -0.3840  0.6253  0.9313
  120OCTO   H42 3226   0.070   3.084   1.804  1.5533  3.1789 -2.9344
  120OCTO    C5 3227  -0.072   3.099   1.650  0.1968 -0.5192 -0.1339
  120OCTO   H51 3228  -0.027   3.191   1.609 -1.1749  1.5603  2.6764
  120OCTO   H52 3229  -0.084   3.027   1.566  0.8289 -0.8316  0.0376
  120OCTO    C6 3230  -0.199   3.110   1.737  0.0501  0.7005 -0.4581
  120OCTO   H61 3231  -0.236   3.005   1.742 -0.0417  0.7694  0.4356
  120OCTO   H62 3232  -0.191   3.143   1.843  1.2746 -0.4336 -0.1718
  120OCTO    C7 3233  -0.309   3.202   1.677 -1.1388  0.2951  0.8413
  120OCTO   H71 3234  -0.251   3.294   1.652  0.0717 -0.5449  0.4702
  120OCTO   H72 3235  -0.334   3.147   1.583  0.4113 -2.8176  2.1220
  120OCTO    C8 3236  -0.434   3.243   1.762 -0.2028 -0.4476 -0.2329
  120OCTO   H81 3237  -0.491   3.325   1.714  0.0033 -0.3268 -0.2723
  120OCTO   H82 3238  -0.390   3.270   1.860  0.3078  1.7910 -1.0350
  120OCTO    O1 3239  -0.518   3.125   1.776 -0.6099 -0.6383  0.2844
  120OCTO   HO1 3240  -0.572   3.112   1.697 -1.0293  0.8184  0.3104
  121OCTO    C1 3241   1.052   0.248   0.812  0.2620 -0.3988 -0.3270
  121OCTO   H11 3242   1.016   0.339   0.759  1.8790  1.1239  1.0656
  121OCTO   H12 3243   1.140   0.287   0.867 -0.3420 -0.0739  0.4250
  121OCTO   H13 3244   1.088   0.177   0.735  1.0027 -0.2032 -0.1629
  121OCTO    C2 3245   0.942   0.182   0.902  0.4185  0.2502  0.9851
  121OCTO   H21 3246   0.854   0.156   0.839  0.3055  1.0015  0.8254
  121OCTO   H22 3247   0.986   0.087   0.939 -0.1665 -0.1261  0.7217
  121OCTO    C3 3248   0.908   0.267   1.020  0.8211 -0.0669  0.0237
  121OCTO   H31 3249   0.999   0.314   1.062  0.4905  2.3075 -1.7374
  121OCTO   H32 3250   0.838   0.341   0.977 -2.4810 -1.5893  2.3476
  121OCTO    C4 3251   0.834   0.182   1.129  0.3136 -0.1783  0.0459
  121OCTO   H41 3252   0.748   0.129   1.083  1.1875 -1.5654 -0.0704
  121OCTO   H42 3253   0.902   0.099   1.157 -0.1725 -1.2001 -1.6411
  121OCTO    C5 3254   0.793   0.264   1.254  0.1853 -0.4036  0.3252
  121OCTO   H51 3255   0.773   0.182   1.326 -0.1869 -0.0525  0.6345
  121OCTO   H52 3256   0.876   0.326   1.294 -0.4890  1.5918 -1.1964
  121OCTO    C6 3257   0.672   0.355   1.225  0.1300 -0.8341 -0.3477
  121OCTO   H61 3258   0.692   0.404   1.128  2.0036  0.1696  0.4810
  121OCTO   H62 3259   0.587   0.288   1.205  0.5219 -0.4704 -3.7586
  121OCTO    C7 3260   0.637   0.463   1.337  0.3502  0.5203  0.7008
  121OCTO   H71 3261   0.726   0.517   1.376  0.5001 -0.4503  1.7522
  121OCTO   H72 3262   0.562   0.534   1.296 -0.5482  0.2665  1.8294
  121OCTO    C8 3263   0.568   0.399   1.453  0.9599  0.0704 -1.2332
  121OCTO   H81 3264   0.562   0.467   1.541  2.3897  1.2507 -1.9978
  121OCTO   H82 3265   0.615   0.310   1.499  1.7845  1.2343  0.2981
  121OCTO    O1 3266   0.438   0.357   1.416  0.5848 -0.2722 -0.0306
  121OCTO   HO1 3267   0.436   0.262   1.405  1.3660 -0.3329  0.2692
  122OCTO    C1 3268   3.848   3.873   3.665 -0.3332  0.6595  0.4766
  122OCTO   H11 3269   3.803   3.920   3.755  1.9370  3.0753  0.4434
  122OCTO   H12 3270   3.927   3.803   3.699 -1.7237 -2.0552 -1.3935
  122OCTO   H13 3271   3.901   3.937   3.593  2.0852 -0.3657  1.2540
  122OCTO    C2 3272   3.748   3.802   3.581  0.5615  0.3614  0.1855
  122OCTO   H21 3273   3.695   3.725   3.640 -1.6048 -0.4191 -2.5413
  122OCTO   H22 3274   3.671   3.869   3.536 -0.1213 -0.7772 -0.3780
  122OCTO    C3 3275   3.814   3.724   3.467 -0.0618 -0.2102  0.1637
  122OCTO   H31 3276   3.883   3.796   3.418 -0.3031  0.0459  0.1971
  122OCTO   H32 3277   3.871   3.637   3.507  0.6701 -0.9447 -2.2844
  122OCTO    C4 3278   3.720   3.663   3.364 -1.0942 -0.1388 -0.3902
  122OCTO   H41 3279   3.674   3.575   3.415  2.3331 -1.4471  0.7299
  122OCTO   H42 3280   3.643   3.738   3.336 -0.2807  1.1814  0.7875
  122OCTO    C5 3281   3.784   3.601   3.241 -0.2592  0.2060 -0.8619
  122OCTO   H51 3282   3.865   3.667   3.203  2.2050 -1.5539  1.0432
  122OCTO   H52 3283   3.847   3.513   3.267  1.6425  1.3737 -1.2978
  122OCTO    C6 3284   3.686   3.588   3.127 -0.1503  0.0486  0.1873
  122OCTO   H61 3285   3.606   3.515   3.152 -1.3213  0.7832 -1.2297
  122OCTO   H62 3286   3.630   3.684   3.123 -0.5827 -0.0993  1.8793
  122OCTO    C7 3287   3.758   3.561   2.996  0.4328  0.3408 -0.1081
  122OCTO   H71 3288   3.758   3.645   2.924  0.3472 -0.2370 -0.7972
  122OCTO   H72 3289   3.863   3.541   3.025  0.8400  0.9235 -1.1258
  122OCTO    C8 3290   3.719   3.424   2.937  0.3892 -0.7910 -0.2949
  122OCTO   H81 3291   3.610   3.429   2.919  0.5241  0.9869 -0.8122
  122OCTO   H82 3292   3.743   3.341   3.007  1.2728 -0.7363 -0.5123
  122OCTO    O1 3293   3.790   3.410   2.816  0.4432  0.6069  0.4211
  122OCTO   HO1 3294   3.810   3.318   2.803 -0.7529  0.0274  2.3054
  123OCTO    C1 3295   0.124   2.459   1.861 -0.9671  0.8252  0.3675
  123OCTO   H11 3296   0.040   2.530   1.851  0.3662  2.5689  0.9755
  123OCTO   H12 3297   0.094   2.354   1.841  1.2533  0.7645 -3.6555
  123OCTO   H13 3298   0.164   2.455   1.965  0.8436 -0.6694 -0.3217
  123OCTO    C2 3299   0.241   2.493   1.761  0.9582  0.0222  0.0149
  123OCTO   H21 3300   0.188   2.515   1.665 -0.1750  0.1958  0.6632
  123OCTO   H22 3301   0.271   2.591   1.803 -0.8934  0.4630  0.3947
  123OCTO    C3 3302   0.349   2.395   1.740  0.1583  0.5641 -0.4112
  123OCTO   H31 3303   0.403   2.387   1.837 -0.8822  1.1934  0.2372
  123OCTO   H32 3304   0.309   2.296   1.710  1.3591 -0.3436  0.8453
  123OCTO    C4 3305   0.468   2.428   1.647  0.1189 -0.9105  0.2727
  123OCTO   H41 3306   0.432   2.443   1.543  1.0186  2.6488  0.3375
  123OCTO   H42 3307   0.510   2.522   1.688 -0.0834  0.1707 -1.8941
  123OCTO    C5 3308   0.579   2.320   1.667  0.1669  0.3243 -0.0844
  123OCTO   H51 3309   0.602   2.319   1.776  1.4802  0.0061 -0.3518
  123OCTO   H52 3310   0.548   2.216   1.643  0.7143  0.2929 -0.6937
  123OCTO    C6 3311   0.709   2.341   1.587  0.6641  0.0916  0.0876
  123OCTO   H61 3312   0.747   2.436   1.631  0.1071 -0.5438  2.0516
  123OCTO   H62 3313   0.787   2.270   1.621 -1.0722 -1.0256  1.9964
  123OCTO    C7 3314   0.691   2.326   1.440  0.7461  0.0894 -0.5995
  123OCTO   H71 3315   0.625   2.243   1.407  3.3246 -1.5321 -2.0260
  123OCTO   H72 3316   0.654   2.427   1.413 -0.2259  1.1638  3.8584
  123OCTO    C8 3317   0.811   2.293   1.349 -0.6203 -0.1297 -0.3445
  123OCTO   H81 3318   0.831   2.184   1.349  1.4638  0.2055 -0.9020
  123OCTO   H82 3319   0.902   2.347   1.384  0.3184 -1.8479 -0.0344
  123OCTO    O1 3320   0.773   2.339   1.218  0.1629 -0.7791 -0.4698
  123OCTO   HO1 3321   0.845   2.379   1.169 -0.0156 -1.0345 -0.9475
  124OCTO    C1 3322   2.288   2.544   1.198  0.2875 -0.0746  0.5225
  124OCTO   H11 3323   2.315   2.561   1.305  1.5827 -1.5435  0.4571
  124OCTO   H12 3324   2.347   2.461   1.154  1.6617  1.9074 -1.5861
  124OCTO   H13 3325   2.325   2.630   1.138  0.7234  0.5526  1.6430
  124OCTO    C2 3326   2.138   2.539   1.183 -0.2013 -0.0718  0.0655
  124OCTO   H21 3327   2.111   2.447   1.238  1.3497 -2.1164 -2.3245
  124OCTO   H22 3328   2.086   2.619   1.238 -0.0182 -1.2609  2.0458
  124OCTO    C3 3329   2.091   2.519   1.039 -0.1057 -0.0212 -0.8336
  124OCTO   H31 3330   1.982   2.521   1.021 -0.4252 -0.4359  0.9571
  124OCTO   H32 3331   2.134   2.609   0.991 -0.6771  1.8554  1.9513
  124OCTO    C4 3332   2.140   2.388   0.974  0.1793  0.4571 -0.3481
  124OCTO   H41 3333   2.136   2.390   0.863 -1.2549 -0.4847 -0.3420
  124OCTO   H42 3334   2.248   2.377   1.001 -0.2823  0.0633  1.5102
  124OCTO    C5 3335   2.072   2.262   1.043 -0.2718  0.2113  0.6776
  124OCTO   H51 3336   2.088   2.258   1.153  0.5823 -1.9093  0.5210
  124OCTO   H52 3337   1.962   2.280   1.034 -0.5493 -1.7881 -0.4391
  124OCTO    C6 3338   2.113   2.131   0.972  0.1397 -0.4452  0.0621
  124OCTO   H61 3339   2.080   2.149   0.868 -2.6497 -1.3831  0.6826
  124OCTO   H62 3340   2.222   2.112   0.976  0.3227  0.7042  1.8497
  124OCTO    C7 3341   2.037   2.002   1.030 -0.3124 -0.2461  0.6556
  124OCTO   H71 3342   2.079   1.910   0.983  1.9897  0.1757  1.7392
  124OCTO   H72 3343   2.054   1.985   1.138  0.7092 -0.7925  0.4242
  124OCTO    C8 3344   1.885   2.013   0.998  0.1482  0.1071  0.4304
  124OCTO   H81 3345   1.867   2.025   0.889 -1.4381 -0.5241  0.5870
  124OCTO   H82 3346   1.835   2.100   1.045 -0.9180  0.3345 -1.0584
  124OCTO    O1 3347   1.817   1.899   1.046 -0.2682  0.3845 -0.1035
  124OCTO   HO1 3348   1.729   1.897   1.007  0.0507  1.1091 -0.8945
  125OCTO    C1 3349   0.794   3.050   0.281  0.4931  0.5569 -0.0722
  125OCTO   H11 3350   0.845   3.125   0.345 -1.6472  1.3739  0.7381
  125OCTO   H12 3351   0.824   3.076   0.177  1.5340 -0.7369 -0.1279
  125OCTO   H13 3352   0.684   3.042   0.294  0.6030 -1.6898 -0.0769
  125OCTO    C2 3353   0.851   2.913   0.313 -0.0646 -0.3238 -0.2519
  125OCTO   H21 3354   0.789   2.833   0.266  0.0723  0.6943 -2.2679
  125OCTO   H22 3355   0.954   2.895   0.276 -0.7974 -0.7083 -2.2363
  125OCTO    C3 3356   0.854   2.868   0.462  0.2486 -0.1132 -0.1293
  125OCTO   H31 3357   0.914   2.947   0.513 -2.1973  1.3040  0.7241
  125OCTO   H32 3358   0.756   2.866   0.514 -0.5076 -2.4274 -1.5000
  125OCTO    C4 3359   0.914   2.730   0.509 -0.9110 -1.1291 -0.7805
  125OCTO   H41 3360   0.857   2.649   0.458 -0.4002 -1.6888 -0.4752
  125OCTO   H42 3361   1.017   2.729   0.469 -0.5516  1.6566 -0.1155
  125OCTO    C5 3362   0.910   2.705   0.661 -0.6153  0.4312 -0.7609
  125OCTO   H51 3363   0.969   2.612   0.678 -0.9893  0.4735  0.9107
  125OCTO   H52 3364   0.967   2.777   0.724  0.3989 -0.1028 -1.0465
  125OCTO    C6 3365   0.770   2.673   0.723  0.2898 -0.7977  0.2552
  125OCTO   H61 3366   0.778   2.668   0.833 -0.4602  1.5096  0.4580
  125OCTO   H62 3367   0.707   2.765   0.717 -0.3647 -1.2064  0.7973
  125OCTO    C7 3368   0.700   2.552   0.674 -0.2234  0.4668 -0.5868
  125OCTO   H71 3369   0.656   2.555   0.572 -0.4834 -2.1339 -0.6135
  125OCTO   H72 3370   0.773   2.469   0.675 -1.7980 -1.0737  2.4717
  125OCTO    C8 3371   0.590   2.516   0.773  0.2103  0.2664 -0.4296
  125OCTO   H81 3372   0.507   2.589   0.771 -1.3981 -1.4877 -0.4154
  125OCTO   H82 3373   0.631   2.514   0.876 -0.4103  0.5348 -0.1742
  125OCTO    O1 3374   0.529   2.391   0.733  0.3199 -0.6512  0.5113
  125OCTO   HO1 3375   0.568   2.336   0.801  0.9007  0.2547  0.9150
  126OCTO    C1 3376   4.229   1.523   2.539 -0.0734 -0.6317 -0.3340
  126OCTO   H11 3377   4.189   1.537   2.436  2.0846  0.4901 -1.0930
  126OCTO   H12 3378   4.337   1.545   2.551 -0.3899  0.2792  0.9660
  126OCTO   H13 3379   4.210   1.418   2.570 -0.9380 -0.8384 -1.4689
  126OCTO    C2 3380   4.146   1.621   2.629  0.2218  0.0209  0.0622
  126OCTO   H21 3381   4.193   1.661   2.721 -2.9181  1.1565  1.2806
  126OCTO   H22 3382   4.125   1.708   2.563  1.2955 -1.7809 -2.8718
  126OCTO    C3 3383   4.010   1.563   2.659  0.1895  0.3393 -0.4737
  126OCTO   H31 3384   3.935   1.644   2.672 -1.0158 -1.0360  1.7586
  126OCTO   H32 3385   3.977   1.510   2.567  1.1742 -0.7243 -0.2368
  126OCTO    C4 3386   4.006   1.472   2.789 -0.4496  0.2081  0.7937
  126OCTO   H41 3387   4.077   1.391   2.765 -0.5706  0.4444 -0.4326
  126OCTO   H42 3388   4.047   1.540   2.867  0.5898 -0.4019  0.7914
  126OCTO    C5 3389   3.866   1.423   2.817  0.1468 -0.4734  0.2412
  126OCTO   H51 3390   3.807   1.495   2.878  1.6809 -1.0656  2.5484
  126OCTO   H52 3391   3.816   1.420   2.718 -1.5367 -0.2410  1.0360
  126OCTO    C6 3392   3.860   1.280   2.875 -0.5873 -0.2433  0.1851
  126OCTO   H61 3393   3.929   1.221   2.811 -0.4064  1.7482 -1.5727
  126OCTO   H62 3394   3.906   1.282   2.976 -1.4705  0.2548  0.5931
  126OCTO    C7 3395   3.725   1.214   2.903  0.6022 -0.0602 -0.1052
  126OCTO   H71 3396   3.741   1.128   2.971 -3.4014 -0.7343  0.2104
  126OCTO   H72 3397   3.679   1.295   2.964 -0.1955  0.5380 -1.4408
  126OCTO    C8 3398   3.632   1.190   2.792  0.2993  0.5266  0.0459
  126OCTO   H81 3399   3.691   1.134   2.716 -0.4380 -1.5185  0.8911
  126OCTO   H82 3400   3.600   1.289   2.753 -2.2057 -0.2222 -0.0051
  126OCTO    O1 3401   3.520   1.115   2.838  0.0988 -0.4250 -0.0615
  126OCTO   HO1 3402   3.441   1.140   2.789  1.6239  1.4687 -1.7582
  127OCTO    C1 3403   2.274   2.533   2.494 -0.3920  0.0816  0.4224
  127OCTO   H11 3404   2.285   2.459   2.576  0.6963 -1.4924 -1.0723
  127OCTO   H12 3405   2.332   2.626   2.513 -0.1190 -0.3000  1.5404
  127OCTO   H13 3406   2.165   2.545   2.475 -0.0967  0.2035 -1.3402
  127OCTO    C2 3407   2.331   2.475   2.365  0.2507  0.7831  1.5438
  127OCTO   H21 3408   2.298   2.544   2.284  0.0846 -1.3778 -0.3349
  127OCTO   H22 3409   2.440   2.459   2.379  0.1051 -0.8985  1.0320
  127OCTO    C3 3410   2.272   2.333   2.330 -0.3626 -0.0185  0.6125
  127OCTO   H31 3411   2.305   2.265   2.412 -2.4448 -1.7450  0.1248
  127OCTO   H32 3412   2.162   2.336   2.343 -0.1760 -0.4123  2.5954
  127OCTO    C4 3413   2.322   2.279   2.193 -0.0941  1.2416 -0.1142
  127OCTO   H41 3414   2.258   2.327   2.115  0.4501  1.5005 -0.4004
  127OCTO   H42 3415   2.428   2.307   2.181  0.3514 -0.7022 -1.2688
  127OCTO    C5 3416   2.322   2.127   2.167  0.4378  0.1182  0.6285
  127OCTO   H51 3417   2.219   2.085   2.175  1.4096 -2.6054  0.0972
  127OCTO   H52 3418   2.361   2.119   2.063 -0.9505  1.8448 -0.0658
  127OCTO    C6 3419   2.408   2.038   2.264 -0.1647  0.0792 -0.3265
  127OCTO   H61 3420   2.517   2.060   2.271 -0.1160 -0.4721  0.8333
  127OCTO   H62 3421   2.363   2.060   2.363 -1.5120 -1.2156 -0.6134
  127OCTO    C7 3422   2.376   1.891   2.231  0.0942  0.1094  0.2306
  127OCTO   H71 3423   2.272   1.870   2.263  1.2528 -1.5047  3.2536
  127OCTO   H72 3424   2.390   1.864   2.124 -2.4071 -2.3225  0.4069
  127OCTO    C8 3425   2.474   1.800   2.312  0.3906 -0.3002  0.6180
  127OCTO   H81 3426   2.574   1.818   2.266 -0.2335  1.0212 -0.2984
  127OCTO   H82 3427   2.450   1.692   2.306 -0.6096 -0.1262  1.1937
  127OCTO    O1 3428   2.465   1.839   2.450  0.3759 -0.2830 -0.1317
  127OCTO   HO1 3429   2.554   1.855   2.483 -0.0553  0.9865  0.4847
  128OCTO    C1 3430   3.879   0.358   0.849 -0.2750 -0.0628 -0.1363
  128OCTO   H11 3431   3.809   0.442   0.827  0.4692  0.6346  0.0969
  128OCTO   H12 3432   3.972   0.380   0.793  0.1635  2.6099  1.4793
  128OCTO   H13 3433   3.838   0.268   0.798  0.1190  0.6447 -1.7683
  128OCTO    C2 3434   3.878   0.327   0.990 -0.4287  0.2980  0.4984
  128OCTO   H21 3435   3.907   0.413   1.054  1.5680 -1.5452  2.2155
  128OCTO   H22 3436   3.778   0.291   1.022 -1.5079  1.8304 -0.9691
  128OCTO    C3 3437   3.990   0.217   1.019  0.5178 -0.0668  0.7783
  128OCTO   H31 3438   3.974   0.136   0.945  1.0406  0.1782  0.3950
  128OCTO   H32 3439   4.087   0.265   0.995  0.6901 -0.7120  0.1729
  128OCTO    C4 3440   3.989   0.160   1.159  0.6702  0.1636  0.2898
  128OCTO   H41 3441   3.909   0.194   1.228  1.5989 -1.3803  2.2655
  128OCTO   H42 3442   3.975   0.050   1.152  1.1999 -0.1106  2.5994
  128OCTO    C5 3443   4.113   0.210   1.242 -1.2085 -0.0764 -0.4258
  128OCTO   H51 3444   4.202   0.169   1.189  1.2876  1.3185  2.4071
  128OCTO   H52 3445   4.133   0.320   1.236  0.1214 -0.2905 -0.2883
  128OCTO    C6 3446   4.117   0.157   1.386  0.4627  0.4224  0.3593
  128OCTO   H61 3447   4.030   0.203   1.438  0.8136  1.1462  0.3139
  128OCTO   H62 3448   4.088   0.050   1.382 -0.7295  0.7695 -1.2217
  128OCTO    C7 3449   4.241   0.186   1.468 -0.1872  0.1437  0.5460
  128OCTO   H71 3450   4.249   0.297   1.469 -0.0623  0.1351  0.3306
  128OCTO   H72 3451   4.220   0.150   1.571  0.2431  0.3567  0.7125
  128OCTO    C8 3452   4.365   0.126   1.406 -0.1856 -0.4347  1.0412
  128OCTO   H81 3453   4.383   0.162   1.302 -1.2104 -1.5436  0.4509
  128OCTO   H82 3454   4.351   0.016   1.402  0.8518 -0.6297  2.2612
  128OCTO    O1 3455   4.476   0.159   1.494  0.0488  0.2086  0.8098
  128OCTO   HO1 3456   4.559   0.122   1.461  0.8774  1.4589  1.3980
  129OCTO    C1 3457   4.157   3.433   2.989 -0.1055 -0.6688 -0.6176
  129OCTO   H11 3458   4.229   3.353   2.963 -0.0249 -0.3832 -1.2919
  129OCTO   H12 3459   4.057   3.416   2.942  0.2789 -1.2950 -1.2244
  129OCTO   H13 3460   4.196   3.531   2.953  1.2262 -0.0856  2.1774
  129OCTO    C2 3461   4.143   3.447   3.139 -0.2726  0.5665  0.7120
  129OCTO   H21 3462   4.061   3.520   3.160  0.3075  0.9257  1.7706
  129OCTO   H22 3463   4.115   3.345   3.171  2.3600 -0.3047  0.4425
  129OCTO    C3 3464   4.268   3.476   3.222 -0.3177  0.7485  0.1037
  129OCTO   H31 3465   4.347   3.407   3.185 -0.6142  0.2571  0.3720
  129OCTO   H32 3466   4.294   3.584   3.217 -0.2352  0.8004  1.3314
  129OCTO    C4 3467   4.242   3.423   3.361 -0.5522  0.6859 -0.0466
  129OCTO   H41 3468   4.164   3.490   3.403  0.4200  1.3511  0.7437
  129OCTO   H42 3469   4.207   3.319   3.372  3.1340 -0.8898 -1.5924
  129OCTO    C5 3470   4.362   3.449   3.456  0.0055 -0.1925 -0.8014
  129OCTO   H51 3471   4.445   3.377   3.437 -0.8863 -1.9482  1.5094
  129OCTO   H52 3472   4.402   3.550   3.433 -1.1771  0.8475  1.3545
  129OCTO    C6 3473   4.341   3.451   3.608 -0.6593  0.1217 -0.5595
  129OCTO   H61 3474   4.300   3.352   3.638 -1.4798  0.2376 -1.2615
  129OCTO   H62 3475   4.440   3.470   3.655  0.0111 -2.7441 -0.5973
  129OCTO    C7 3476   4.251   3.560   3.670 -0.2139 -0.1912 -0.1067
  129OCTO   H71 3477   4.143   3.540   3.649  0.3669 -1.6391 -2.1267
  129OCTO   H72 3478   4.268   3.546   3.779 -0.3419 -1.3015 -0.2127
  129OCTO    C8 3479   4.297   3.698   3.623 -0.2909  0.0708 -0.2341
  129OCTO   H81 3480   4.297   3.711   3.513  0.6470  0.1025 -0.2377
  129OCTO   H82 3481   4.401   3.718   3.657 -0.7082  0.5871  0.7888
  129OCTO    O1 3482   4.211   3.801   3.669  0.7364 -0.3662  0.3654
  129OCTO   HO1 3483   4.212   3.867   3.599 -0.0452 -0.0715  0.6181
  130OCTO    C1 3484   3.078   2.847   2.198 -0.2793 -0.3304 -0.2041
  130OCTO   H11 3485   3.013   2.879   2.283 -2.1021 -1.2836 -1.1705
  130OCTO   H12 3486   3.015   2.869   2.109  1.2492  1.2053 -0.9658
  130OCTO   H13 3487   3.095   2.737   2.201  0.5469 -0.1929  0.2955
  130OCTO    C2 3488   3.204   2.935   2.179 -0.3218 -0.0267 -0.5514
  130OCTO   H21 3489   3.189   3.042   2.205  2.7878  0.4442 -0.2809
  130OCTO   H22 3490   3.283   2.905   2.252  1.0035 -0.3443 -2.0734
  130OCTO    C3 3491   3.278   2.915   2.041  0.6624  0.1523  0.4322
  130OCTO   H31 3492   3.286   2.807   2.019  2.6754  0.5322 -0.9567
  130OCTO   H32 3493   3.216   2.955   1.958 -0.9033 -0.6449  1.1820
  130OCTO    C4 3494   3.420   2.977   2.033 -0.3352  0.1853 -0.3763
  130OCTO   H41 3495   3.478   2.923   2.112 -1.3745  0.3721  0.5383
  130OCTO   H42 3496   3.471   2.942   1.941  0.9790 -1.2611  0.8353
  130OCTO    C5 3497   3.413   3.124   2.058 -0.6503  0.0248 -0.5656
  130OCTO   H51 3498   3.356   3.175   1.977 -0.9192 -0.4115 -0.6499
  130OCTO   H52 3499   3.358   3.159   2.148 -0.2185 -1.2364  0.2079
  130OCTO    C6 3500   3.548   3.198   2.053  1.2955  0.0956 -0.3881
  130OCTO   H61 3501   3.594   3.150   2.142 -1.9573  0.3293  1.5552
  130OCTO   H62 3502   3.607   3.177   1.961 -1.5316  0.0287 -2.3097
  130OCTO    C7 3503   3.540   3.347   2.077  0.5224  0.3363  0.3288
  130OCTO   H71 3504   3.469   3.388   2.002  0.7869  2.6452  1.2670
  130OCTO   H72 3505   3.493   3.384   2.171 -0.8669  2.5369 -1.1461
  130OCTO    C8 3506   3.669   3.410   2.042  0.7422 -0.2989  0.5526
  130OCTO   H81 3507   3.706   3.377   1.943  1.9004  0.5958  0.6641
  130OCTO   H82 3508   3.751   3.389   2.114  0.9667 -1.5644 -0.0518
  130OCTO    O1 3509   3.638   3.554   2.028  0.1196 -0.0227 -0.4493
  130OCTO   HO1 3510   3.683   3.589   1.951 -0.1215 -0.0809 -0.6161
  131OCTO    C1 3511   1.188   0.949   1.258 -0.2575 -0.0429  0.8481
  131OCTO   H11 3512   1.243   0.954   1.354  0.6574 -0.2789  0.3456
  131OCTO   H12 3513   1.085   0.988   1.275 -0.4043  0.4422 -0.9670
  131OCTO   H13 3514   1.183   0.846   1.215 -1.3391  0.5359 -0.5050
  131OCTO    C2 3515   1.252   1.053   1.151 -0.6550  0.3616 -0.0451
  131OCTO   H21 3516   1.194   1.051   1.056  0.1890 -1.3139 -0.5558
  131OCTO   H22 3517   1.250   1.153   1.201 -0.8449  0.4673 -0.2630
  131OCTO    C3 3518   1.400   1.022   1.123 -0.0464  0.1918 -0.4860
  131OCTO   H31 3519   1.454   0.992   1.215 -1.8074 -1.3599  0.1071
  131OCTO   H32 3520   1.408   0.930   1.060  1.2318  0.2523 -0.4262
  131OCTO    C4 3521   1.471   1.136   1.048 -0.2278 -0.5900 -0.7108
  131OCTO   H41 3522   1.449   1.230   1.104 -0.4481 -0.2551 -1.3471
  131OCTO   H42 3523   1.582   1.127   1.048 -0.1138 -0.6430  3.2484
  131OCTO    C5 3524   1.420   1.161   0.905  0.1951 -0.3413 -0.2817
  131OCTO   H51 3525   1.425   1.065   0.850 -1.0105 -0.3342 -0.4280
  131OCTO   H52 3526   1.315   1.196   0.920  0.2133 -0.0403 -0.8550
  131OCTO    C6 3527   1.503   1.265   0.823  0.1704 -0.5709  0.0734
  131OCTO   H61 3528   1.501   1.358   0.883 -0.2251 -1.6737  1.8340
  131OCTO   H62 3529   1.607   1.226   0.819 -0.2106 -1.5657 -0.5577
  131OCTO    C7 3530   1.449   1.293   0.686  0.6650  0.3488  0.4631
  131OCTO   H71 3531   1.370   1.370   0.693  0.8752  0.7316 -1.0907
  131OCTO   H72 3532   1.525   1.338   0.619 -0.2364 -0.0619 -0.9029
  131OCTO    C8 3533   1.391   1.177   0.608 -0.0940 -0.3192 -0.0465
  131OCTO   H81 3534   1.302   1.120   0.644  0.6791 -1.6837 -0.2322
  131OCTO   H82 3535   1.474   1.106   0.590 -0.3249 -0.9735  1.3379
  131OCTO    O1 3536   1.346   1.231   0.482 -0.3053 -0.4373 -0.3083
  131OCTO   HO1 3537   1.371   1.170   0.412  0.3980  0.8262 -1.2172
  132OCTO    C1 3538   0.263   2.739   0.873  0.0003  0.0299  0.0450
  132OCTO   H11 3539   0.363   2.705   0.836  0.7288 -0.0187  1.9839
  132OCTO   H12 3540   0.278   2.792   0.969 -1.1904  3.0065 -1.2666
  132OCTO   H13 3541   0.192   2.655   0.887 -2.4922  1.2831 -3.6017
  132OCTO    C2 3542   0.190   2.826   0.768 -0.9639  0.3438 -0.5513
  132OCTO   H21 3543   0.256   2.913   0.746  0.4034 -0.3316  0.7007
  132OCTO   H22 3544   0.181   2.765   0.676 -2.2089 -0.5488  0.1386
  132OCTO    C3 3545   0.049   2.881   0.813 -0.1349 -0.5863  0.3199
  132OCTO   H31 3546  -0.014   2.797   0.849  0.8711 -1.6412 -0.3352
  132OCTO   H32 3547   0.068   2.945   0.902  0.2599  0.6659 -0.6362
  132OCTO    C4 3548  -0.018   2.978   0.712 -0.4571 -0.1845 -0.2188
  132OCTO   H41 3549   0.054   3.061   0.693  1.8686 -1.7803  1.2373
  132OCTO   H42 3550  -0.028   2.920   0.618  0.7286  0.1422 -0.5665
  132OCTO    C5 3551  -0.155   3.028   0.752  0.3703 -0.4438 -0.2186
  132OCTO   H51 3552  -0.215   3.052   0.662 -0.9455  0.4579  0.8818
  132OCTO   H52 3553  -0.209   2.937   0.785 -0.6397  0.4968  0.7817
  132OCTO    C6 3554  -0.165   3.137   0.854  0.6380 -0.1978 -0.2909
  132OCTO   H61 3555  -0.149   3.111   0.961 -0.8101 -0.0780 -0.0343
  132OCTO   H62 3556  -0.098   3.222   0.828  0.1231  0.0327 -0.8795
  132OCTO    C7 3557  -0.313   3.195   0.853 -0.0142  0.0772  0.2476
  132OCTO   H71 3558  -0.342   3.191   0.746  1.7059 -0.0800 -0.2364
  132OCTO   H72 3559  -0.398   3.138   0.898  0.5806 -0.6565  0.4701
  132OCTO    C8 3560  -0.320   3.343   0.897  0.0429  0.2766 -0.0885
  132OCTO   H81 3561  -0.248   3.403   0.838 -1.4044  2.8097  0.5260
  132OCTO   H82 3562  -0.296   3.340   1.005  0.2030  0.7028 -0.1099
  132OCTO    O1 3563  -0.449   3.393   0.870  0.1081 -0.3913  0.0722
  132OCTO   HO1 3564  -0.464   3.471   0.923  1.8419 -0.7326  1.1520
  133OCTO    C1 3565   2.255   2.040   3.717  0.5298  0.7355 -0.2192
  133OCTO   H11 3566   2.310   2.038   3.621  1.3535 -3.2706  0.1542
  133OCTO   H12 3567   2.336   2.044   3.793  0.9109 -0.7523 -0.5153
  133OCTO   H13 3568   2.200   1.944   3.730 -1.5097  1.7563 -0.8708
  133OCTO    C2 3569   2.141   2.147   3.726  0.0653  0.4341  0.2612
  133OCTO   H21 3570   2.087   2.132   3.822 -1.0103 -1.6572 -0.5959
  133OCTO   H22 3571   2.192   2.246   3.727  0.3749  0.2803  1.7890
  133OCTO    C3 3572   2.026   2.132   3.624  0.2080  0.8500  0.0387
  133OCTO   H31 3573   1.966   2.043   3.652 -0.7887  1.0502 -1.3230
  133OCTO   H32 3574   1.968   2.227   3.626  1.5169  1.6978 -0.6073
  133OCTO    C4 3575   2.068   2.101   3.479  0.4952  0.4306  0.0132
  133OCTO   H41 3576   2.142   2.175   3.441 -0.1101  0.6845 -0.6990
  133OCTO   H42 3577   2.121   2.003   3.482 -0.7652 -0.2572  2.7875
  133OCTO    C5 3578   1.953   2.078   3.383  0.2170  0.1682  0.1312
  133OCTO   H51 3579   1.991   2.016   3.299 -0.9231 -0.9532  0.4038
  133OCTO   H52 3580   1.876   2.024   3.443  0.3175 -0.4295 -0.2682
  133OCTO    C6 3581   1.897   2.214   3.344  0.2688  0.4514  0.3945
  133OCTO   H61 3582   1.885   2.271   3.439  0.1196 -0.1843  0.7569
  133OCTO   H62 3583   1.979   2.261   3.285 -0.3091 -0.3408 -1.0830
  133OCTO    C7 3584   1.770   2.223   3.259  0.9654 -0.1423 -0.4226
  133OCTO   H71 3585   1.712   2.131   3.283  1.4541 -0.7332 -1.4139
  133OCTO   H72 3586   1.707   2.307   3.296  1.6921  0.2436 -0.0242
  133OCTO    C8 3587   1.793   2.245   3.106  0.5032 -0.2416 -0.7505
  133OCTO   H81 3588   1.865   2.164   3.082  1.5080 -0.1565  1.7098
  133OCTO   H82 3589   1.840   2.345   3.090  0.5065 -0.4772 -2.4316
  133OCTO    O1 3590   1.667   2.237   3.035 -0.5946  0.0643 -0.4801
  133OCTO   HO1 3591   1.679   2.262   2.943  1.5005 -1.3106 -0.6432
  134OCTO    C1 3592   0.797   0.722   1.091  0.2130 -0.7482 -0.1159
  134OCTO   H11 3593   0.759   0.619   1.107  0.3606 -0.7207  0.4508
  134OCTO   H12 3594   0.825   0.739   1.197  0.9850 -1.7014 -0.1598
  134OCTO   H13 3595   0.714   0.788   1.057  1.4294  0.3668 -1.0455
  134OCTO    C2 3596   0.911   0.728   0.989 -0.0938  0.3015 -0.0242
  134OCTO   H21 3597   0.886   0.697   0.885 -0.8251 -0.4337  0.3594
  134OCTO   H22 3598   0.948   0.832   0.977  1.2410 -0.0184  1.1380
  134OCTO    C3 3599   1.035   0.652   1.032  0.1549  0.1026 -0.2942
  134OCTO   H31 3600   1.063   0.675   1.137 -1.2206 -2.1575  0.6530
  134OCTO   H32 3601   1.016   0.542   1.028  1.6578 -0.1295 -1.7913
  134OCTO    C4 3602   1.158   0.687   0.950 -0.4305 -0.0991 -0.2621
  134OCTO   H41 3603   1.145   0.795   0.924 -0.1641 -0.1121 -0.4660
  134OCTO   H42 3604   1.240   0.672   1.024 -0.1425  1.7824 -0.1483
  134OCTO    C5 3605   1.174   0.607   0.819 -0.1785  0.0213  0.4167
  134OCTO   H51 3606   1.200   0.503   0.848 -0.5278 -0.0587  0.4394
  134OCTO   H52 3607   1.079   0.605   0.762  0.2787  2.1944 -0.5243
  134OCTO    C6 3608   1.288   0.655   0.719  0.9133 -0.0176  0.1920
  134OCTO   H61 3609   1.386   0.690   0.757  1.1806  0.9567 -1.2946
  134OCTO   H62 3610   1.301   0.579   0.640 -1.9764  1.9712 -2.4533
  134OCTO    C7 3611   1.227   0.767   0.630 -0.3881  0.2697 -0.0033
  134OCTO   H71 3612   1.134   0.731   0.582 -0.4778  1.0787 -0.4443
  134OCTO   H72 3613   1.190   0.848   0.697 -0.6607  0.2602 -0.1417
  134OCTO    C8 3614   1.324   0.819   0.523  0.1884  0.5523 -0.3031
  134OCTO   H81 3615   1.365   0.740   0.456 -0.1709 -0.3450  0.5140
  134OCTO   H82 3616   1.397   0.883   0.577 -1.0601  0.8637  1.0799
  134OCTO    O1 3617   1.261   0.921   0.447  0.1724  0.4226  0.4767
  134OCTO   HO1 3618   1.331   0.936   0.383 -0.6485  0.3429 -0.4796
  135OCTO    C1 3619   4.015   0.036   0.673 -0.2608  0.1920  0.2995
  135OCTO   H11 3620   4.016  -0.029   0.763  0.3831  0.7415  0.6940
  135OCTO   H12 3621   4.113   0.084   0.655  0.4568 -1.2496  0.1846
  135OCTO   H13 3622   3.936   0.114   0.679  0.5304  1.0289 -0.0511
  135OCTO    C2 3623   3.964  -0.050   0.553 -0.3723 -0.1942  0.0647
  135OCTO   H21 3624   3.879  -0.113   0.585  0.2328 -0.8315  0.4448
  135OCTO   H22 3625   3.926   0.012   0.468 -0.2984  2.2320  1.6909
  135OCTO    C3 3626   4.069  -0.151   0.510  0.4115 -0.0658 -0.3885
  135OCTO   H31 3627   4.166  -0.122   0.464 -0.3041  1.7458 -0.8214
  135OCTO   H32 3628   4.089  -0.218   0.597 -1.0598 -0.2895 -0.1914
  135OCTO    C4 3629   4.007  -0.261   0.411  0.2291  0.6889 -0.3749
  135OCTO   H41 3630   3.913  -0.295   0.459  1.3469 -2.0722  0.0592
  135OCTO   H42 3631   3.998  -0.229   0.305  2.3127  1.1346 -0.4587
  135OCTO    C5 3632   4.096  -0.385   0.393  0.8791 -0.1453 -0.8210
  135OCTO   H51 3633   4.189  -0.358   0.337  1.0594 -0.2095 -0.5562
  135OCTO   H52 3634   4.135  -0.413   0.493 -0.5358  2.0490  0.4294
  135OCTO    C6 3635   4.023  -0.497   0.319 -0.1478  0.1296  0.1660
  135OCTO   H61 3636   3.947  -0.538   0.389  1.5729 -2.2049  0.7837
  135OCTO   H62 3637   3.974  -0.448   0.232  0.5067  0.4830 -0.0108
  135OCTO    C7 3638   4.120  -0.623   0.287 -0.4813 -0.0665 -0.1690
  135OCTO   H71 3639   4.042  -0.696   0.255  0.0059 -0.1868 -1.1172
  135OCTO   H72 3640   4.191  -0.601   0.205 -0.0537 -1.1332 -0.1053
  135OCTO    C8 3641   4.213  -0.661   0.400 -0.3968  0.1806 -0.1650
  135OCTO   H81 3642   4.152  -0.662   0.493 -0.1232  2.9603  0.1292
  135OCTO   H82 3643   4.295  -0.592   0.427 -0.7672  1.6162 -2.4532
  135OCTO    O1 3644   4.260  -0.791   0.366  0.1406  0.3931 -0.0865
  135OCTO   HO1 3645   4.350  -0.777   0.335  0.4967 -0.1413  0.6803
  136OCTO    C1 3646   0.437   3.633   1.251 -0.5577 -0.7036  0.0996
  136OCTO   H11 3647   0.397   3.665   1.153  2.2061 -0.7078 -1.1149
  136OCTO   H12 3648   0.390   3.699   1.327  1.3892 -0.6357  1.3189
  136OCTO   H13 3649   0.547   3.645   1.261 -0.3868 -1.8965 -0.2060
  136OCTO    C2 3650   0.401   3.493   1.300  0.3771  0.0852 -0.0634
  136OCTO   H21 3651   0.458   3.422   1.236  0.8010  0.8580 -0.5570
  136OCTO   H22 3652   0.440   3.487   1.404 -0.7980  3.4585  0.6913
  136OCTO    C3 3653   0.250   3.462   1.297  0.9747 -0.0978 -0.1691
  136OCTO   H31 3654   0.227   3.441   1.190  0.2619  1.6852 -0.3875
  136OCTO   H32 3655   0.229   3.369   1.354  0.4076  0.9405  1.3731
  136OCTO    C4 3656   0.148   3.565   1.360  0.0557  0.6734  0.4004
  136OCTO   H41 3657   0.178   3.584   1.466 -0.2559  0.7754  0.4702
  136OCTO   H42 3658   0.162   3.658   1.302 -2.0981  0.7962 -0.0020
  136OCTO    C5 3659   0.007   3.516   1.355  0.2089  0.8831 -0.2781
  136OCTO   H51 3660  -0.026   3.496   1.251 -2.2969 -0.7081  0.7228
  136OCTO   H52 3661   0.003   3.421   1.413 -2.4134  0.0415 -1.6483
  136OCTO    C6 3662  -0.100   3.612   1.414 -0.5139 -0.4491 -0.5316
  136OCTO   H61 3663  -0.059   3.644   1.512  1.4010 -0.1951 -1.3736
  136OCTO   H62 3664  -0.103   3.698   1.344  2.6430 -0.2235 -0.5263
  136OCTO    C7 3665  -0.239   3.544   1.434  0.3820  0.2149 -0.0313
  136OCTO   H71 3666  -0.287   3.530   1.335 -1.2259  0.8117  0.6374
  136OCTO   H72 3667  -0.222   3.450   1.492 -0.3039 -0.2246 -0.5266
  136OCTO    C8 3668  -0.335   3.638   1.508 -0.0625 -0.6645  0.2247
  136OCTO   H81 3669  -0.369   3.714   1.435  0.6521 -1.4261 -0.9329
  136OCTO   H82 3670  -0.294   3.697   1.592 -1.0073  0.2507  0.0662
  136OCTO    O1 3671  -0.453   3.561   1.534  0.6606 -0.0642 -0.2175
  136OCTO   HO1 3672  -0.490   3.528   1.452 -1.0918 -0.5491  0.7106
  137OCTO    C1 3673   0.575   1.116   3.710  0.7695 -0.1450  0.2574
  137OCTO   H11 3674   0.536   1.176   3.625  1.0807 -0.7720 -0.3376
  137OCTO   H12 3675   0.621   1.022   3.672  0.6558  0.0945 -0.4707
  137OCTO   H13 3676   0.496   1.077   3.778 -0.0287 -2.0270 -1.6560
  137OCTO    C2 3677   0.690   1.194   3.776 -0.2540  0.4742 -0.2234
  137OCTO   H21 3678   0.661   1.269   3.852 -1.1534  0.0789 -0.1746
  137OCTO   H22 3679   0.755   1.123   3.833 -1.5730  0.2183  1.0070
  137OCTO    C3 3680   0.771   1.268   3.668 -0.0745  0.1589  0.7131
  137OCTO   H31 3681   0.800   1.186   3.599 -0.9247  0.4588 -0.0392
  137OCTO   H32 3682   0.705   1.339   3.613 -0.5116  1.5580  2.9491
  137OCTO    C4 3683   0.885   1.347   3.723  0.2461 -1.4158 -0.2686
  137OCTO   H41 3684   0.940   1.392   3.638 -2.4079  1.5100 -0.5943
  137OCTO   H42 3685   0.847   1.431   3.785  0.9255 -1.3189  0.0234
  137OCTO    C5 3686   0.996   1.268   3.806 -0.4447 -0.5340 -0.1451
  137OCTO   H51 3687   0.983   1.161   3.780 -1.1431 -0.3334 -0.6659
  137OCTO   H52 3688   1.094   1.305   3.769  0.1515 -0.2365  1.6443
  137OCTO    C6 3689   0.995   1.274   3.961  0.0581  0.0726  0.6029
  137OCTO   H61 3690   0.974   1.373   4.006  0.1148 -0.3932  1.6845
  137OCTO   H62 3691   0.919   1.208   4.008 -1.2894  1.6225  0.7108
  137OCTO    C7 3692   1.137   1.242   4.010  0.0681 -0.7079  0.5687
  137OCTO   H71 3693   1.133   1.225   4.120 -0.5784  0.6085  0.7762
  137OCTO   H72 3694   1.174   1.146   3.968  1.2000  0.3021 -0.8411
  137OCTO    C8 3695   1.243   1.347   3.981  0.3870  0.1000 -0.0439
  137OCTO   H81 3696   1.193   1.445   3.998  1.6533  0.6473  0.6510
  137OCTO   H82 3697   1.265   1.344   3.872 -0.6517  0.8427 -0.2850
  137OCTO    O1 3698   1.361   1.332   4.056 -0.3059 -0.1662 -0.1429
  137OCTO   HO1 3699   1.435   1.381   4.018  0.4823 -0.8631  0.4441
  138OCTO    C1 3700   1.976   2.288   1.924  0.1209 -0.3967 -0.5303
  138OCTO   H11 3701   1.906   2.373   1.917 -1.2894 -1.6193 -2.1948
  138OCTO   H12 3702   2.016   2.284   2.028 -1.3478 -0.8394  0.0473
  138OCTO   H13 3703   2.060   2.301   1.852 -1.0404 -1.2263 -2.0940
  138OCTO    C2 3704   1.897   2.154   1.903 -0.3703 -0.4308  0.0224
  138OCTO   H21 3705   1.831   2.137   1.990 -0.6713  0.3364 -0.0481
  138OCTO   H22 3706   1.842   2.168   1.808  0.5562  3.2019 -0.1337
  138OCTO    C3 3707   1.989   2.029   1.890 -0.4777 -0.3452 -0.1018
  138OCTO   H31 3708   2.003   1.980   1.988  1.6158 -1.9403 -1.1246
  138OCTO   H32 3709   1.932   1.958   1.827 -0.1825 -1.9982  1.4205
  138OCTO    C4 3710   2.128   2.055   1.832 -0.4982  0.3466  0.5227
  138OCTO   H41 3711   2.128   2.110   1.736  2.2347  0.9000  0.7549
  138OCTO   H42 3712   2.191   2.118   1.898  0.1903  0.9283 -0.6554
  138OCTO    C5 3713   2.200   1.928   1.791 -0.0099  0.6213 -0.2578
  138OCTO   H51 3714   2.233   1.871   1.880  2.9580 -1.6465 -2.5871
  138OCTO   H52 3715   2.142   1.865   1.721  0.2347 -0.9605  0.9092
  138OCTO    C6 3716   2.332   1.953   1.719  0.6847 -0.2112  0.0992
  138OCTO   H61 3717   2.299   1.972   1.614  1.3006  0.9855  0.0996
  138OCTO   H62 3718   2.373   2.048   1.759 -0.5073 -0.1652  1.2781
  138OCTO    C7 3719   2.430   1.842   1.726 -0.7160  0.8786  0.1658
  138OCTO   H71 3720   2.529   1.859   1.678  0.6038 -4.0181  0.5470
  138OCTO   H72 3721   2.444   1.813   1.832 -1.6030 -0.0702  0.0382
  138OCTO    C8 3722   2.381   1.713   1.656 -0.2792  0.3834  0.4500
  138OCTO   H81 3723   2.394   1.726   1.546  1.2475 -1.2800  0.3860
  138OCTO   H82 3724   2.276   1.690   1.684  0.3106  0.3032  2.7164
  138OCTO    O1 3725   2.457   1.599   1.690  0.2508  0.1034  0.3245
  138OCTO   HO1 3726   2.452   1.585   1.785 -0.1987  1.4131  0.5146
  139OCTO    C1 3727   1.605   0.137   0.133 -0.4439  0.2103  0.6505
  139OCTO   H11 3728   1.690   0.210   0.139  1.4176 -1.9427  2.5383
  139OCTO   H12 3729   1.559   0.135   0.234  1.9007 -2.2428  1.7913
  139OCTO   H13 3730   1.658   0.040   0.122  0.1203  0.6306 -0.5611
  139OCTO    C2 3731   1.514   0.157   0.010 -0.6284  0.3318  0.4196
  139OCTO   H21 3732   1.460   0.252  -0.013 -0.5184 -0.2049 -2.3656
  139OCTO   H22 3733   1.578   0.130  -0.077  1.1836  0.8960  1.5264
  139OCTO    C3 3734   1.413   0.049   0.000  0.3772  0.3676 -0.2691
  139OCTO   H31 3735   1.472  -0.045  -0.002  0.8947  0.6820 -0.0682
  139OCTO   H32 3736   1.350   0.059   0.091 -2.5755  0.7562 -2.2377
  139OCTO    C4 3737   1.306   0.047  -0.110  0.8150  0.3871 -0.9808
  139OCTO   H41 3738   1.263   0.148  -0.126 -0.6926 -0.1065 -0.2302
  139OCTO   H42 3739   1.334   0.006  -0.209 -1.1767  0.8228 -1.7835
  139OCTO    C5 3740   1.176  -0.033  -0.071 -0.0713 -0.1886 -0.2324
  139OCTO   H51 3741   1.195  -0.127  -0.016  0.4544  1.1547  1.9988
  139OCTO   H52 3742   1.124   0.040  -0.006  0.8498  1.7812 -1.6116
  139OCTO    C6 3743   1.084  -0.060  -0.189  0.7143 -0.2529  0.0409
  139OCTO   H61 3744   1.071   0.025  -0.260 -1.8436 -1.3723 -0.9334
  139OCTO   H62 3745   1.116  -0.151  -0.244 -2.0278 -1.3314  0.0922
  139OCTO    C7 3746   0.946  -0.098  -0.145  0.2701  0.0127 -1.0142
  139OCTO   H71 3747   0.958  -0.164  -0.057  3.0421  0.0608 -1.2612
  139OCTO   H72 3748   0.894  -0.005  -0.114 -1.6566 -0.7777 -1.7263
  139OCTO    C8 3749   0.862  -0.170  -0.242  0.3529  0.2676 -0.3070
  139OCTO   H81 3750   0.764  -0.196  -0.198  0.9353  1.0252  1.5440
  139OCTO   H82 3751   0.920  -0.260  -0.272 -1.0427 -1.4606  1.8546
  139OCTO    O1 3752   0.851  -0.095  -0.363 -0.1407  0.1101 -0.5509
  139OCTO   HO1 3753   0.943  -0.093  -0.390  0.5881 -1.4177  1.5611
  140OCTO    C1 3754   2.174   0.532   4.091  0.0541  0.3815  0.5561
  140OCTO   H11 3755   2.109   0.446   4.120 -1.2913  1.7610  1.8694
  140OCTO   H12 3756   2.117   0.600   4.024 -1.7918  0.6994  2.3104
  140OCTO   H13 3757   2.261   0.497   4.032 -0.6787  0.1963 -0.4435
  140OCTO    C2 3758   2.234   0.595   4.224  0.1263  0.6204 -0.0308
  140OCTO   H21 3759   2.147   0.585   4.293 -0.1867 -0.9080 -0.5916
  140OCTO   H22 3760   2.308   0.528   4.273 -0.0887 -0.8513 -1.6291
  140OCTO    C3 3761   2.280   0.739   4.207 -0.0845 -0.7207 -0.1680
  140OCTO   H31 3762   2.352   0.749   4.123  0.6442 -1.7504  0.3113
  140OCTO   H32 3763   2.195   0.807   4.185 -1.6033 -2.1811  0.9601
  140OCTO    C4 3764   2.350   0.792   4.337  0.6965  0.1884  0.0972
  140OCTO   H41 3765   2.274   0.772   4.416 -1.0861 -0.2273 -1.6408
  140OCTO   H42 3766   2.436   0.722   4.352 -1.1237 -1.9662  1.1047
  140OCTO    C5 3767   2.396   0.936   4.327 -0.2949 -0.7459  0.4416
  140OCTO   H51 3768   2.452   0.969   4.418 -0.8490  0.3982  0.3860
  140OCTO   H52 3769   2.461   0.944   4.237 -2.3309 -1.6092 -1.1886
  140OCTO    C6 3770   2.289   1.051   4.300  0.5621  0.0343 -0.1377
  140OCTO   H61 3771   2.335   1.143   4.342  2.1917 -0.8726  0.1566
  140OCTO   H62 3772   2.270   1.062   4.191 -0.9120  0.1552  0.1116
  140OCTO    C7 3773   2.157   1.032   4.378  0.1629  0.4497 -1.4958
  140OCTO   H71 3774   2.109   0.935   4.354  0.3584 -0.4185  1.2380
  140OCTO   H72 3775   2.189   1.032   4.484  0.6371  0.0898 -1.6360
  140OCTO    C8 3776   2.060   1.144   4.366  0.0200  0.1586 -1.0829
  140OCTO   H81 3777   2.011   1.145   4.266 -0.6468 -0.5132 -0.7661
  140OCTO   H82 3778   2.110   1.242   4.380 -0.9190  0.4564  0.3788
  140OCTO    O1 3779   1.954   1.123   4.460 -0.4331  0.2367  0.3965
  140OCTO   HO1 3780   1.869   1.143   4.420 -0.5244  1.5799  1.1834
  141OCTO    C1 3781   2.046   0.839   0.383  0.2181  0.1230  0.5649
  141OCTO   H11 3782   1.990   0.930   0.353  2.7979  1.8091  0.4897
  141OCTO   H12 3783   2.053   0.769   0.297 -1.3955  2.0889 -1.2901
  141OCTO   H13 3784   1.987   0.784   0.460  2.1609 -0.5136  1.6674
  141OCTO    C2 3785   2.182   0.889   0.433 -0.6950  0.3664 -0.0446
  141OCTO   H21 3786   2.211   0.984   0.384 -1.0094  0.6868  0.3826
  141OCTO   H22 3787   2.182   0.921   0.539  2.3934 -2.6956  1.0735
  141OCTO    C3 3788   2.285   0.774   0.421 -0.1272 -0.0540 -0.7751
  141OCTO   H31 3789   2.269   0.709   0.510 -0.0924  0.1189 -0.6430
  141OCTO   H32 3790   2.273   0.713   0.329 -0.2404  0.0386 -0.8205
  141OCTO    C4 3791   2.432   0.827   0.423  0.9225  0.9425  0.6423
  141OCTO   H41 3792   2.496   0.736   0.416 -0.2933  0.0731  0.6089
  141OCTO   H42 3793   2.437   0.889   0.330  0.4457 -0.4579 -0.3454
  141OCTO    C5 3794   2.471   0.906   0.545  0.3746 -0.5626 -0.1218
  141OCTO   H51 3795   2.420   1.004   0.530  1.1127  0.5892  3.6980
  141OCTO   H52 3796   2.445   0.846   0.635 -2.4312 -0.4441 -0.7566
  141OCTO    C6 3797   2.625   0.937   0.556 -0.3019  0.3382  0.0393
  141OCTO   H61 3798   2.677   0.839   0.554 -0.2209  0.3915 -0.8179
  141OCTO   H62 3799   2.655   0.990   0.463 -1.7082 -0.3742 -0.8539
  141OCTO    C7 3800   2.663   1.024   0.677 -0.0825 -0.5952 -1.1473
  141OCTO   H71 3801   2.599   1.115   0.676 -0.6290 -0.9832 -1.1005
  141OCTO   H72 3802   2.634   0.970   0.769  3.0430  0.0377  0.3689
  141OCTO    C8 3803   2.814   1.061   0.692 -0.1596 -0.3583  0.3201
  141OCTO   H81 3804   2.859   1.096   0.597 -2.9285  2.9133  0.0085
  141OCTO   H82 3805   2.867   0.974   0.736 -0.0982 -0.8134 -0.6338
  141OCTO    O1 3806   2.821   1.168   0.786 -0.9388 -0.3479 -0.2338
  141OCTO   HO1 3807   2.912   1.198   0.784  0.0713 -2.8394 -3.9237
  142OCTO    C1 3808   2.832   4.303   1.167  0.4058  0.6819 -0.0406
  142OCTO   H11 3809   2.908   4.311   1.248  0.4590  2.4449 -0.2133
  142OCTO   H12 3810   2.877   4.362   1.084  1.6750 -0.7911 -0.4368
  142OCTO   H13 3811   2.740   4.355   1.201 -0.7969 -0.3524 -1.5997
  142OCTO    C2 3812   2.799   4.164   1.131  0.0610 -0.1745 -0.6322
  142OCTO   H21 3813   2.742   4.165   1.036  0.2327  0.4442 -0.7327
  142OCTO   H22 3814   2.890   4.102   1.118 -0.1620 -0.6019 -0.1871
  142OCTO    C3 3815   2.724   4.078   1.231 -0.3580 -0.0891 -0.1117
  142OCTO   H31 3816   2.788   4.050   1.318  1.4236 -1.1210 -1.6824
  142OCTO   H32 3817   2.636   4.136   1.266 -2.0675 -2.5962  0.0152
  142OCTO    C4 3818   2.671   3.947   1.165  0.2449  0.6331 -0.4871
  142OCTO   H41 3819   2.622   3.876   1.235  0.5935 -1.5994 -2.3928
  142OCTO   H42 3820   2.588   3.978   1.098 -1.0157 -1.5657 -0.0636
  142OCTO    C5 3821   2.768   3.861   1.097  0.0351  0.6506 -0.0459
  142OCTO   H51 3822   2.814   3.923   1.016  0.5138 -0.2146 -0.4539
  142OCTO   H52 3823   2.849   3.822   1.162 -1.1563  1.0061  1.7024
  142OCTO    C6 3824   2.696   3.739   1.039  0.3816  0.3852 -0.6823
  142OCTO   H61 3825   2.776   3.667   1.012  0.4033 -0.0026  0.3703
  142OCTO   H62 3826   2.648   3.686   1.124 -0.8261  1.4535 -0.6597
  142OCTO    C7 3827   2.587   3.759   0.928 -0.6844  0.3052  0.0957
  142OCTO   H71 3828   2.510   3.833   0.957 -0.9043  0.3089 -0.4685
  142OCTO   H72 3829   2.635   3.797   0.834 -0.7388 -0.4328 -0.2389
  142OCTO    C8 3830   2.529   3.627   0.890  0.0513 -0.2349 -0.6533
  142OCTO   H81 3831   2.476   3.581   0.976  2.4446 -1.0115  0.4989
  142OCTO   H82 3832   2.615   3.570   0.851  0.6048  1.6609 -2.4042
  142OCTO    O1 3833   2.445   3.643   0.779  0.0955  0.0530 -0.4754
  142OCTO   HO1 3834   2.419   3.553   0.755 -1.2224 -0.7591  3.3483
  143OCTO    C1 3835   3.951   0.502   0.483  0.4258 -0.1097 -0.0182
  143OCTO   H11 3836   3.863   0.461   0.537 -1.3958  1.5094 -1.6030
  143OCTO   H12 3837   4.017   0.557   0.555 -1.4870  1.4396  0.6625
  143OCTO   H13 3838   3.916   0.581   0.413  3.4987  2.1600  0.7154
  143OCTO    C2 3839   4.030   0.396   0.405 -0.2470  0.7732 -0.4880
  143OCTO   H21 3840   4.115   0.442   0.351  0.4395 -0.3717 -0.4150
  143OCTO   H22 3841   4.072   0.324   0.479 -0.0869  1.1992 -0.1607
  143OCTO    C3 3842   3.937   0.315   0.321 -0.4199  0.5951  0.1398
  143OCTO   H31 3843   3.886   0.234   0.378  0.9887 -0.9415 -0.6710
  143OCTO   H32 3844   3.862   0.374   0.265 -1.1056  0.2700  0.6981
  143OCTO    C4 3845   4.024   0.232   0.213 -0.5819 -1.2059  0.1479
  143OCTO   H41 3846   4.106   0.197   0.280 -0.4401 -0.2698  0.4764
  143OCTO   H42 3847   3.953   0.152   0.183 -1.7101 -0.5266  0.9535
  143OCTO    C5 3848   4.062   0.322   0.099 -0.7556  0.5034  0.5980
  143OCTO   H51 3849   3.974   0.357   0.040 -1.1435 -1.8849 -0.3406
  143OCTO   H52 3850   4.127   0.400   0.144 -0.8260 -1.1580  3.8471
  143OCTO    C6 3851   4.157   0.253  -0.009  0.9545 -0.1742  0.0281
  143OCTO   H61 3852   4.101   0.176  -0.066  0.3300  0.9584 -0.9340
  143OCTO   H62 3853   4.192   0.326  -0.085  0.1238  1.0296  0.7804
  143OCTO    C7 3854   4.284   0.189   0.053 -0.9779 -0.0316 -0.4535
  143OCTO   H71 3855   4.323   0.258   0.131 -2.0335 -1.3504  1.3258
  143OCTO   H72 3856   4.259   0.097   0.110 -0.2790 -0.3809 -0.7012
  143OCTO    C8 3857   4.396   0.164  -0.052  0.5427  0.3137  0.1843
  143OCTO   H81 3858   4.420   0.260  -0.102  2.1369  0.0106  0.3118
  143OCTO   H82 3859   4.357   0.093  -0.129  1.7934  0.1361 -0.3114
  143OCTO    O1 3860   4.515   0.113   0.005 -0.0861  0.0084  0.3256
  143OCTO   HO1 3861   4.579   0.100  -0.065  1.0075  3.7633  0.3994
  144OCTO    C1 3862   0.348   3.097   1.181  0.1837  0.3431 -0.2615
  144OCTO   H11 3863   0.426   3.032   1.226 -0.7431 -1.4566 -1.1682
  144OCTO   H12 3864   0.381   3.109   1.075 -1.5287  0.0929 -0.8533
  144OCTO   H13 3865   0.348   3.196   1.231  0.1535  0.1425  0.1388
  144OCTO    C2 3866   0.215   3.024   1.196 -0.6419  0.1294  0.1489
  144OCTO   H21 3867   0.208   2.929   1.139 -2.9172  1.9527 -2.8782
  144OCTO   H22 3868   0.205   2.989   1.301 -2.2008 -0.8224 -0.2938
  144OCTO    C3 3869   0.092   3.107   1.179 -0.1002 -0.9348 -0.0634
  144OCTO   H31 3870   0.113   3.191   1.250  0.9804 -0.6777 -0.6585
  144OCTO   H32 3871   0.077   3.158   1.082 -1.3975 -1.4801 -0.1610
  144OCTO    C4 3872  -0.040   3.049   1.218 -0.5532  0.0484  0.7512
  144OCTO   H41 3873  -0.084   2.989   1.135  0.3874  0.9099 -0.4132
  144OCTO   H42 3874  -0.027   2.977   1.302  0.5294 -0.9117 -0.2021
  144OCTO    C5 3875  -0.143   3.158   1.256  0.6527 -0.3346  0.2880
  144OCTO   H51 3876  -0.109   3.214   1.346 -0.4481  1.5060 -0.4022
  144OCTO   H52 3877  -0.141   3.226   1.169 -0.2743 -0.0661  0.4740
  144OCTO    C6 3878  -0.277   3.096   1.270  0.5101  0.2362 -0.2163
  144OCTO   H61 3879  -0.306   3.052   1.172  0.7682  1.7065 -0.9856
  144OCTO   H62 3880  -0.288   3.016   1.346 -0.1964 -2.0337 -2.5859
  144OCTO    C7 3881  -0.375   3.212   1.300  0.3260  0.3549 -0.3481
  144OCTO   H71 3882  -0.350   3.258   1.398 -2.0068 -0.5883  0.7683
  144OCTO   H72 3883  -0.357   3.284   1.217 -0.9951  0.3613 -0.6612
  144OCTO    C8 3884  -0.516   3.165   1.319  0.9989  0.4997 -0.2454
  144OCTO   H81 3885  -0.514   3.078   1.387 -0.4263  0.8347  0.2760
  144OCTO   H82 3886  -0.550   3.125   1.221  0.2390 -2.1550  0.9958
  144OCTO    O1 3887  -0.593   3.266   1.378  0.1898 -0.5694 -0.5599
  144OCTO   HO1 3888  -0.618   3.220   1.458  1.0996 -1.6712 -0.8773
  145OCTO    C1 3889   3.795   0.848   2.657  0.0125  1.2141 -0.7366
  145OCTO   H11 3890   3.790   0.918   2.571 -3.4999  0.7575 -1.0372
  145OCTO   H12 3891   3.798   0.742   2.622  0.1708  0.4639  1.3555
  145OCTO   H13 3892   3.711   0.878   2.722 -0.2861  0.4446 -0.7537
  145OCTO    C2 3893   3.935   0.878   2.716  0.0429  0.0017 -0.3865
  145OCTO   H21 3894   3.948   0.979   2.760 -0.3763 -0.3128  0.4874
  145OCTO   H22 3895   3.963   0.818   2.805 -0.2258  0.6646  0.1619
  145OCTO    C3 3896   4.053   0.846   2.619  0.5309  0.1046  0.2446
  145OCTO   H31 3897   4.071   0.738   2.634 -0.4839  0.0950  1.5503
  145OCTO   H32 3898   4.012   0.870   2.519  1.7026 -0.2423 -0.3357
  145OCTO    C4 3899   4.188   0.925   2.643  0.0576  0.1522  0.4841
  145OCTO   H41 3900   4.172   1.032   2.619  2.0837 -0.2053 -3.3497
  145OCTO   H42 3901   4.212   0.928   2.751 -0.9204 -1.0282  0.7543
  145OCTO    C5 3902   4.301   0.860   2.554  0.8421  0.2696  0.2691
  145OCTO   H51 3903   4.400   0.905   2.580  0.9968  0.0187  0.1169
  145OCTO   H52 3904   4.304   0.753   2.585  0.4809  0.7016  1.8633
  145OCTO    C6 3905   4.292   0.863   2.403 -0.2989  0.1310  0.2207
  145OCTO   H61 3906   4.197   0.828   2.358  1.0825 -1.9053 -1.3468
  145OCTO   H62 3907   4.315   0.966   2.368 -0.2939  0.8847  2.2979
  145OCTO    C7 3908   4.388   0.760   2.336 -0.0753  0.4176 -0.3522
  145OCTO   H71 3909   4.487   0.763   2.386  0.3659 -0.9066 -1.0880
  145OCTO   H72 3910   4.348   0.658   2.355 -1.1447  0.8110 -0.3979
  145OCTO    C8 3911   4.415   0.775   2.183  0.2875  0.0989  0.1800
  145OCTO   H81 3912   4.479   0.865   2.176  0.0956  0.3458  1.3546
  145OCTO   H82 3913   4.319   0.787   2.129 -0.6813 -3.0341  1.0009
  145OCTO    O1 3914   4.483   0.665   2.129  0.2934  0.5490  0.4058
  145OCTO   HO1 3915   4.410   0.626   2.081  0.6647  2.8217 -2.2920
  146OCTO    C1 3916   4.015   1.914   1.512  0.6055  0.3704  0.1365
  146OCTO   H11 3917   3.994   1.975   1.602 -0.3108  0.4556 -0.1300
  146OCTO   H12 3918   4.020   1.808   1.544  1.7676  0.3176 -0.1494
  146OCTO   H13 3919   4.111   1.943   1.463  0.7895 -1.3637 -0.6024
  146OCTO    C2 3920   3.911   1.929   1.402  0.6641  0.0673 -0.0367
  146OCTO   H21 3921   3.830   1.866   1.445  0.3271  0.3614 -0.2295
  146OCTO   H22 3922   3.875   2.034   1.395  0.1880 -0.0594  0.4329
  146OCTO    C3 3923   3.916   1.868   1.266  0.4599  0.3983  0.2179
  146OCTO   H31 3924   4.002   1.902   1.204  2.3352 -1.8383  1.4566
  146OCTO   H32 3925   3.941   1.760   1.270  2.3573  0.8511  2.7439
  146OCTO    C4 3926   3.791   1.890   1.180 -0.9399 -0.1656  0.3546
  146OCTO   H41 3927   3.710   1.837   1.234 -0.3200 -1.5804 -0.0412
  146OCTO   H42 3928   3.775   2.000   1.175 -1.7875 -0.3027 -0.0424
  146OCTO    C5 3929   3.795   1.837   1.034 -0.7034 -0.0597  0.2075
  146OCTO   H51 3930   3.698   1.853   0.982 -0.3407 -1.9249 -1.1367
  146OCTO   H52 3931   3.870   1.894   0.974  1.5643 -2.1670  0.8609
  146OCTO    C6 3932   3.821   1.692   1.034 -1.2517  0.6311 -0.7934
  146OCTO   H61 3933   3.925   1.678   1.071 -2.0328 -1.2759  0.9066
  146OCTO   H62 3934   3.755   1.642   1.108 -2.5582 -1.9664 -3.5099
  146OCTO    C7 3935   3.803   1.623   0.902  0.6135  0.5917  0.5868
  146OCTO   H71 3936   3.822   1.514   0.916  0.5894  0.4781 -0.2382
  146OCTO   H72 3937   3.695   1.635   0.880 -0.1162 -1.5554  2.5231
  146OCTO    C8 3938   3.893   1.675   0.793 -0.2131  0.0694 -0.0801
  146OCTO   H81 3939   3.999   1.682   0.825 -0.3891 -0.0061  0.5218
  146OCTO   H82 3940   3.854   1.777   0.771  0.3229  0.1179 -0.8439
  146OCTO    O1 3941   3.876   1.598   0.674 -0.0521 -0.0741  0.1934
  146OCTO   HO1 3942   3.928   1.520   0.695  1.5835  0.8219 -0.3472
  147OCTO    C1 3943   4.281   2.564   0.562  0.0252  0.2304 -0.8221
  147OCTO   H11 3944   4.295   2.583   0.453 -2.9213  2.8001 -0.9010
  147OCTO   H12 3945   4.174   2.539   0.577  0.1236 -0.2799 -0.9645
  147OCTO   H13 3946   4.302   2.662   0.610  0.3476  0.4877 -1.4702
  147OCTO    C2 3947   4.353   2.441   0.625 -0.5450  0.3001 -0.6611
  147OCTO   H21 3948   4.313   2.346   0.582 -1.5962 -0.4078  1.7332
  147OCTO   H22 3949   4.462   2.439   0.603 -0.5390 -0.3785 -0.5800
  147OCTO    C3 3950   4.343   2.417   0.778 -0.2659 -0.5168  0.0687
  147OCTO   H31 3951   4.335   2.509   0.840 -1.0471  0.4144 -1.3752
  147OCTO   H32 3952   4.247   2.363   0.794  0.4552 -1.3636  1.7259
  147OCTO    C4 3953   4.455   2.330   0.839 -0.0177 -0.1258 -1.0928
  147OCTO   H41 3954   4.444   2.226   0.803 -0.9815 -0.2650 -0.4275
  147OCTO   H42 3955   4.555   2.372   0.815  0.0509  1.4157  1.5352
  147OCTO    C5 3956   4.442   2.320   0.996 -0.2371  0.4440 -0.2426
  147OCTO   H51 3957   4.442   2.424   1.035 -0.8401  0.1812  0.4830
  147OCTO   H52 3958   4.339   2.284   1.018 -0.3269  1.0842  0.4046
  147OCTO    C6 3959   4.544   2.235   1.058 -0.1053 -0.1347 -0.1723
  147OCTO   H61 3960   4.507   2.131   1.046  2.2479 -0.9959 -0.5205
  147OCTO   H62 3961   4.642   2.243   1.006 -0.7903  0.0488 -1.4591
  147OCTO    C7 3962   4.573   2.271   1.207 -0.1441  0.5201  0.1715
  147OCTO   H71 3963   4.606   2.377   1.215  0.0149  0.3784  1.5569
  147OCTO   H72 3964   4.486   2.253   1.273 -1.0802  1.7123 -0.6767
  147OCTO    C8 3965   4.685   2.185   1.268 -0.2923  0.0835  0.1081
  147OCTO   H81 3966   4.686   2.186   1.379  0.6187 -2.0000  0.1698
  147OCTO   H82 3967   4.783   2.226   1.235  1.3268 -1.1807  3.0459
  147OCTO    O1 3968   4.663   2.053   1.241  0.0859 -0.1554 -0.3857
  147OCTO   HO1 3969   4.577   2.030   1.277  1.3359 -2.8619  1.2824
  148OCTO    C1 3970   2.205   2.146   4.126 -0.0251  0.2524 -0.3592
  148OCTO   H11 3971   2.229   2.253   4.140 -1.1069  0.2165  2.3523
  148OCTO   H12 3972   2.284   2.092   4.069 -2.3790 -1.0036 -2.6528
  148OCTO   H13 3973   2.108   2.130   4.073 -1.7502  2.0520  2.0254
  148OCTO    C2 3974   2.188   2.079   4.266  0.1915 -0.0010  0.3810
  148OCTO   H21 3975   2.164   1.975   4.237  1.5201 -0.2653  0.1632
  148OCTO   H22 3976   2.285   2.075   4.320 -0.3528 -0.8970  1.3210
  148OCTO    C3 3977   2.072   2.127   4.358 -0.3029  0.4017  0.4470
  148OCTO   H31 3978   2.069   2.073   4.455  1.3092 -0.0580  0.2720
  148OCTO   H32 3979   2.092   2.232   4.388  0.3333  0.6241 -0.7020
  148OCTO    C4 3980   1.938   2.102   4.286  0.3031  0.4100  0.1253
  148OCTO   H41 3981   1.919   2.175   4.204 -0.0206  0.7068  0.4656
  148OCTO   H42 3982   1.949   2.002   4.239  1.6172  0.2195  0.7742
  148OCTO    C5 3983   1.825   2.079   4.382 -0.5855 -0.2003 -0.3350
  148OCTO   H51 3984   1.862   2.014   4.464  1.7590  0.5303 -0.7361
  148OCTO   H52 3985   1.807   2.174   4.436 -2.5675 -1.0229  0.5565
  148OCTO    C6 3986   1.696   2.035   4.314 -0.1197  0.6336 -0.1122
  148OCTO   H61 3987   1.673   2.108   4.233 -1.5370 -0.1801 -0.4789
  148OCTO   H62 3988   1.720   1.936   4.270  0.3872  0.8316 -0.2905
  148OCTO    C7 3989   1.573   2.021   4.404  0.4314 -0.1900  0.8762
  148OCTO   H71 3990   1.565   2.109   4.472  0.0396 -0.5679  1.3254
  148OCTO   H72 3991   1.482   2.033   4.340  1.1498 -0.9202 -0.3250
  148OCTO    C8 3992   1.568   1.892   4.483  0.4263 -0.4867 -0.3023
  148OCTO   H81 3993   1.655   1.893   4.553 -0.5294  1.2037  0.9448
  148OCTO   H82 3994   1.560   1.803   4.417  0.9901 -0.7686 -0.0033
  148OCTO    O1 3995   1.448   1.895   4.556  0.3714  0.5123 -0.2938
  148OCTO   HO1 3996   1.444   1.816   4.610 -0.5957  1.0904  0.5287
  149OCTO    C1 3997   3.038   0.722   3.829  0.4003 -0.5765  0.1885
  149OCTO   H11 3998   3.002   0.620   3.858 -1.4275  0.5320  2.0726
  149OCTO   H12 3999   3.137   0.706   3.781  1.0280  0.4097  1.1363
  149OCTO   H13 4000   3.045   0.789   3.917  3.2640  2.5912 -2.2137
  149OCTO    C2 4001   2.960   0.799   3.716  0.6428  0.1656 -0.5283
  149OCTO   H21 4002   2.984   0.735   3.628  1.0247 -0.2576 -0.1280
  149OCTO   H22 4003   2.850   0.786   3.723  0.8560 -1.7813  0.0134
  149OCTO    C3 4004   2.998   0.948   3.689  0.1591  1.2764  0.5644
  149OCTO   H31 4005   2.943   0.980   3.598  0.4068  0.1998  0.0153
  149OCTO   H32 4006   2.969   1.027   3.762 -1.1943  1.5092 -0.1951
  149OCTO    C4 4007   3.151   0.973   3.663 -0.8095  0.0252 -0.4749
  149OCTO   H41 4008   3.196   0.955   3.763 -1.2394 -0.4294 -0.3545
  149OCTO   H42 4009   3.188   0.890   3.599 -1.6136 -0.0638 -0.8400
  149OCTO    C5 4010   3.202   1.103   3.601 -0.0802  0.0642  0.0937
  149OCTO   H51 4011   3.311   1.097   3.579 -0.2633 -2.7935 -0.4274
  149OCTO   H52 4012   3.152   1.123   3.504 -0.7989  1.7717  0.7751
  149OCTO    C6 4013   3.175   1.226   3.675 -0.6012  0.1548 -0.1268
  149OCTO   H61 4014   3.070   1.255   3.652 -0.1067  0.3685 -2.2433
  149OCTO   H62 4015   3.178   1.205   3.784 -1.7711 -0.2381 -0.1504
  149OCTO    C7 4016   3.265   1.350   3.650 -0.4708 -0.1119 -0.2726
  149OCTO   H71 4017   3.368   1.320   3.680 -1.0951 -1.5714  0.5537
  149OCTO   H72 4018   3.259   1.375   3.542 -1.2272 -0.0582 -0.2276
  149OCTO    C8 4019   3.208   1.474   3.733 -0.1508  0.1469  0.8847
  149OCTO   H81 4020   3.199   1.429   3.834  1.4955  0.7504  1.3318
  149OCTO   H82 4021   3.113   1.507   3.687  0.1593  0.4820  0.4745
  149OCTO    O1 4022   3.311   1.572   3.722 -0.2886 -0.2624 -0.4277
  149OCTO   HO1 4023   3.300   1.646   3.781  1.9478 -1.4382  1.6529
  150OCTO    C1 4024   2.836   2.586   3.515  0.0310  0.2507  1.1284
  150OCTO   H11 4025   2.934   2.613   3.560 -0.6202  4.5752  0.3960
  150OCTO   H12 4026   2.767   2.591   3.602  1.2775  0.4060  2.1403
  150OCTO   H13 4027   2.833   2.485   3.468  3.5061 -0.0485  1.2470
  150OCTO    C2 4028   2.794   2.677   3.400 -0.7272 -0.3266 -0.4616
  150OCTO   H21 4029   2.798   2.785   3.424 -2.7291 -0.3017 -0.0429
  150OCTO   H22 4030   2.863   2.661   3.314  1.1104 -1.3900  1.1162
  150OCTO    C3 4031   2.652   2.639   3.349  0.2682  0.8992  0.7893
  150OCTO   H31 4032   2.650   2.537   3.305  2.8060 -0.1933  2.9413
  150OCTO   H32 4033   2.579   2.643   3.432 -0.6315 -0.2570  0.0790
  150OCTO    C4 4034   2.609   2.740   3.234 -0.4453 -0.1335 -0.7347
  150OCTO   H41 4035   2.638   2.840   3.272  0.5055 -1.1018  1.1926
  150OCTO   H42 4036   2.656   2.723   3.135  0.5015  1.5796 -0.6072
  150OCTO    C5 4037   2.453   2.720   3.203  0.2355 -0.2632 -0.0725
  150OCTO   H51 4038   2.437   2.615   3.170  0.8556 -0.6524  0.8260
  150OCTO   H52 4039   2.400   2.740   3.298  1.0630  0.3252  0.2734
  150OCTO    C6 4040   2.389   2.820   3.103 -0.3934 -0.3325 -0.0731
  150OCTO   H61 4041   2.280   2.838   3.114 -0.5417 -1.1813 -0.1006
  150OCTO   H62 4042   2.447   2.913   3.122 -3.1696  1.8472 -1.4901
  150OCTO    C7 4043   2.414   2.777   2.954 -0.2796  0.1132  0.2603
  150OCTO   H71 4044   2.519   2.743   2.938 -0.6642 -0.7258 -0.5085
  150OCTO   H72 4045   2.336   2.701   2.934 -0.3617 -0.1820  1.6261
  150OCTO    C8 4046   2.409   2.889   2.855 -0.3269  0.0956 -0.1439
  150OCTO   H81 4047   2.493   2.959   2.877 -0.3608 -0.5406  2.2542
  150OCTO   H82 4048   2.308   2.932   2.871 -2.6885 -4.6640 -0.5499
  150OCTO    O1 4049   2.423   2.833   2.721 -0.9061  0.2355  0.1862
  150OCTO   HO1 4050   2.392   2.901   2.660 -1.1757 -0.1261 -0.0881
  151OCTO    C1 4051   2.084   1.764   3.958 -0.1372  0.2719 -0.2319
  151OCTO   H11 4052   2.148   1.801   3.876 -0.2066  1.0660  0.0516
  151OCTO   H12 4053   2.142   1.760   4.053 -1.9288 -2.4162  0.8674
  151OCTO   H13 4054   2.057   1.659   3.935  1.8379 -0.0127 -1.4882
  151OCTO    C2 4055   1.966   1.863   3.967 -0.8064  0.0309 -0.0678
  151OCTO   H21 4056   1.910   1.836   4.059 -1.0328 -0.5963 -0.3842
  151OCTO   H22 4057   1.999   1.969   3.967  1.6529 -0.6784  0.0402
  151OCTO    C3 4058   1.862   1.824   3.854  0.0656  0.4326  0.1330
  151OCTO   H31 4059   1.914   1.832   3.756 -0.6635 -1.4729 -0.4409
  151OCTO   H32 4060   1.834   1.717   3.864 -2.4648  1.2116  2.2031
  151OCTO    C4 4061   1.731   1.911   3.840 -0.6210 -0.0922 -0.8743
  151OCTO   H41 4062   1.676   1.891   3.935  3.5208 -0.0674  1.8125
  151OCTO   H42 4063   1.765   2.016   3.837 -0.1118 -0.0614  2.3130
  151OCTO    C5 4064   1.645   1.878   3.722  0.5214  0.2935 -0.0089
  151OCTO   H51 4065   1.714   1.868   3.635  1.9765  2.5164  0.8188
  151OCTO   H52 4066   1.589   1.784   3.739 -0.0829  0.7435  0.5254
  151OCTO    C6 4067   1.564   2.000   3.687 -0.2077 -0.2100  0.3687
  151OCTO   H61 4068   1.523   2.043   3.781 -0.2108  2.4285 -0.7441
  151OCTO   H62 4069   1.623   2.087   3.650 -0.7478  1.8117  3.8407
  151OCTO    C7 4070   1.439   1.978   3.604  0.0372  0.0542  0.1062
  151OCTO   H71 4071   1.393   2.077   3.588 -1.1126 -0.3004  1.0906
  151OCTO   H72 4072   1.470   1.944   3.503 -1.1336 -0.7803  0.0119
  151OCTO    C8 4073   1.349   1.871   3.660  0.6581 -0.5109 -0.0140
  151OCTO   H81 4074   1.327   1.875   3.769 -2.1701 -1.7817 -0.4791
  151OCTO   H82 4075   1.399   1.782   3.618 -0.2822 -1.1607  0.2337
  151OCTO    O1 4076   1.214   1.886   3.598 -0.3779 -0.5931  0.1003
  151OCTO   HO1 4077   1.147   1.924   3.655 -1.2480 -1.2328 -0.4735
  152OCTO    C1 4078   2.171   2.977   1.349  0.0645 -0.6528  0.2832
  152OCTO   H11 4079   2.125   2.959   1.448  0.0547 -0.2615  0.3496
  152OCTO   H12 4080   2.177   3.087   1.335 -0.6567 -0.5976  0.3476
  152OCTO   H13 4081   2.115   2.928   1.266  0.2090  0.5794 -0.5639
  152OCTO    C2 4082   2.314   2.913   1.347  0.4979 -0.6205  0.0167
  152OCTO   H21 4083   2.306   2.807   1.378  0.8560 -0.2577  1.4075
  152OCTO   H22 4084   2.356   2.919   1.244 -1.5575  3.0936 -0.7871
  152OCTO    C3 4085   2.414   2.970   1.449  0.3439  0.2141 -0.1059
  152OCTO   H31 4086   2.476   3.049   1.402  1.8385 -0.5043  0.6049
  152OCTO   H32 4087   2.366   3.011   1.540  0.2993  0.3165 -0.1752
  152OCTO    C4 4088   2.516   2.872   1.495 -0.7347 -0.0852 -0.5235
  152OCTO   H41 4089   2.480   2.793   1.566 -0.2867  0.8546  0.7894
  152OCTO   H42 4090   2.548   2.816   1.405  3.1371  0.3683  0.3862
  152OCTO    C5 4091   2.641   2.926   1.569 -0.0825 -0.2247 -0.1967
  152OCTO   H51 4092   2.711   2.844   1.595  0.6008 -0.2232 -1.9178
  152OCTO   H52 4093   2.691   2.992   1.495 -0.9131  0.1812 -0.4098
  152OCTO    C6 4094   2.602   3.006   1.698  0.2225  0.3188  0.0043
  152OCTO   H61 4095   2.687   3.062   1.741  0.7475  0.9310 -1.7477
  152OCTO   H62 4096   2.530   3.080   1.658 -0.7107 -0.9701 -0.8023
  152OCTO    C7 4097   2.525   2.922   1.806 -0.0981  0.2987  0.3820
  152OCTO   H71 4098   2.436   2.871   1.763  0.8883 -0.9951 -0.2165
  152OCTO   H72 4099   2.596   2.843   1.838 -0.4981  0.5426  1.9579
  152OCTO    C8 4100   2.475   3.009   1.926  0.1219 -0.1512 -0.3892
  152OCTO   H81 4101   2.387   3.063   1.885 -0.0361 -1.2525 -1.5579
  152OCTO   H82 4102   2.560   3.075   1.953  0.5307 -0.8874  0.1594
  152OCTO    O1 4103   2.446   2.919   2.033  0.2780  0.3356 -0.3156
  152OCTO   HO1 4104   2.355   2.895   2.014  0.8491 -1.0727 -1.4429
  153OCTO    C1 4105   2.590   2.462   2.751  0.6009 -0.9587 -0.2813
  153OCTO   H11 4106   2.678   2.496   2.694  0.6577  1.3743  1.0642
  153OCTO   H12 4107   2.559   2.367   2.701 -1.0584  0.4324 -2.0500
  153OCTO   H13 4108   2.500   2.528   2.747 -0.1803 -1.9537  0.2870
  153OCTO    C2 4109   2.623   2.425   2.893 -0.5069  0.1783  0.0861
  153OCTO   H21 4110   2.651   2.519   2.945 -1.2703  1.0659 -1.0400
  153OCTO   H22 4111   2.534   2.387   2.948 -0.4818 -1.7245 -1.0791
  153OCTO    C3 4112   2.728   2.318   2.898 -0.3506 -0.3884  0.0244
  153OCTO   H31 4113   2.681   2.220   2.876  0.8260 -0.9676  0.0131
  153OCTO   H32 4114   2.799   2.334   2.813 -0.6825 -1.8778 -0.5659
  153OCTO    C4 4115   2.799   2.301   3.038 -0.2512 -0.7384 -0.4438
  153OCTO   H41 4116   2.809   2.406   3.073 -0.0191 -0.4924 -1.2254
  153OCTO   H42 4117   2.736   2.258   3.120  1.2515  1.0400  1.7628
  153OCTO    C5 4118   2.935   2.236   3.024  0.9319 -0.0793 -0.0430
  153OCTO   H51 4119   2.978   2.300   2.945 -0.3271 -1.7119 -2.1528
  153OCTO   H52 4120   2.993   2.263   3.115  1.0373  0.3643 -0.2386
  153OCTO    C6 4121   2.948   2.094   2.982 -0.0010  0.7478  0.2816
  153OCTO   H61 4122   2.905   2.088   2.880  0.2950 -1.7472  0.2355
  153OCTO   H62 4123   3.057   2.070   2.977 -0.6517 -2.3266 -1.8306
  153OCTO    C7 4124   2.871   1.996   3.075 -0.1287 -0.0330  0.7839
  153OCTO   H71 4125   2.899   2.024   3.179  0.6765 -1.3244  0.9416
  153OCTO   H72 4126   2.763   2.021   3.065 -0.4096 -1.5460 -0.4128
  153OCTO    C8 4127   2.886   1.848   3.050 -0.0012  0.1766  0.8876
  153OCTO   H81 4128   2.994   1.825   3.065  0.7110  2.7732  0.3518
  153OCTO   H82 4129   2.840   1.818   2.954  0.3243 -1.5969  1.2504
  153OCTO    O1 4130   2.819   1.767   3.147 -0.3424  0.5447  0.4170
  153OCTO   HO1 4131   2.844   1.677   3.126  1.8119  1.3330 -0.6870
  154OCTO    C1 4132   0.693   1.343   0.344 -0.1885 -0.0838 -0.0621
  154OCTO   H11 4133   0.652   1.402   0.259 -2.3559  0.5949  1.3769
  154OCTO   H12 4134   0.719   1.235   0.345  1.4249  0.2719 -0.0683
  154OCTO   H13 4135   0.618   1.358   0.424 -2.4860 -0.3680 -2.0350
  154OCTO    C2 4136   0.823   1.417   0.382 -0.4807 -0.0495  0.1610
  154OCTO   H21 4137   0.885   1.361   0.455  1.0033  1.0331 -0.2157
  154OCTO   H22 4138   0.890   1.428   0.294 -0.4226 -0.5672  0.1364
  154OCTO    C3 4139   0.798   1.555   0.437  0.2120  0.0118  0.5245
  154OCTO   H31 4140   0.729   1.613   0.372  0.8715  2.0713  1.5623
  154OCTO   H32 4141   0.741   1.541   0.532  1.6682  0.9721  1.5835
  154OCTO    C4 4142   0.921   1.636   0.479  0.7036 -0.0697  0.2487
  154OCTO   H41 4143   0.965   1.594   0.572  0.4132  1.1116  0.9294
  154OCTO   H42 4144   1.002   1.639   0.402  0.9080 -1.1108  0.4048
  154OCTO    C5 4145   0.876   1.779   0.521  0.1157 -0.0718  0.1762
  154OCTO   H51 4146   0.832   1.827   0.431 -3.1388  0.0966  1.7417
  154OCTO   H52 4147   0.800   1.783   0.601 -1.2438 -0.6477 -1.0506
  154OCTO    C6 4148   1.000   1.857   0.565 -0.1430 -0.2738 -0.0296
  154OCTO   H61 4149   1.054   1.801   0.644  1.3745 -2.0659 -2.1845
  154OCTO   H62 4150   1.064   1.870   0.475 -0.3152 -1.1291 -0.2849
  154OCTO    C7 4151   0.968   2.008   0.609  0.5361 -0.6185  0.3652
  154OCTO   H71 4152   0.932   2.002   0.714  2.0337  3.0516  1.2355
  154OCTO   H72 4153   1.065   2.061   0.625 -0.3482  0.8185  1.0891
  154OCTO    C8 4154   0.864   2.088   0.524 -0.5487  0.2509  0.3951
  154OCTO   H81 4155   0.767   2.034   0.527  0.3352 -1.3530  1.6282
  154OCTO   H82 4156   0.891   2.104   0.417  0.1255  4.4679  1.0368
  154OCTO    O1 4157   0.850   2.217   0.583  0.2809 -0.0588 -0.1272
  154OCTO   HO1 4158   0.772   2.260   0.548 -0.3776  0.0433  1.3953
  155OCTO    C1 4159   1.968   0.979   1.263 -0.6204 -0.0995  0.2640
  155OCTO   H11 4160   1.883   1.037   1.306  0.6991  1.8299  0.3786
  155OCTO   H12 4161   2.060   1.039   1.276 -0.6142 -0.2744  1.0926
  155OCTO   H13 4162   1.937   0.989   1.157 -1.2606 -1.3211  0.3090
  155OCTO    C2 4163   1.982   0.837   1.304 -0.2261  0.5068  0.0094
  155OCTO   H21 4164   1.895   0.778   1.267  0.6772 -1.0865  0.3351
  155OCTO   H22 4165   2.073   0.803   1.251 -0.7732 -0.1079 -0.5612
  155OCTO    C3 4166   1.989   0.810   1.456 -0.3004  0.5446 -0.4978
  155OCTO   H31 4167   2.034   0.713   1.483  0.7067  1.3684  0.8796
  155OCTO   H32 4168   2.067   0.874   1.501  0.3381 -0.4780 -0.1315
  155OCTO    C4 4169   1.863   0.826   1.538 -0.8376 -0.4967 -0.5389
  155OCTO   H41 4170   1.828   0.930   1.556 -0.9923 -0.5109 -0.7509
  155OCTO   H42 4171   1.774   0.781   1.488 -1.7644 -0.9369  1.4013
  155OCTO    C5 4172   1.881   0.762   1.680  0.1589  0.7389  0.2974
  155OCTO   H51 4173   1.984   0.788   1.713  0.6946 -0.2481 -0.5056
  155OCTO   H52 4174   1.812   0.809   1.753 -0.4700  2.2568 -1.2119
  155OCTO    C6 4175   1.862   0.602   1.688  0.3190  0.0277 -0.3171
  155OCTO   H61 4176   1.756   0.584   1.662 -0.7378  0.0185  3.4033
  155OCTO   H62 4177   1.925   0.548   1.615  0.8149 -0.8623  0.7298
  155OCTO    C7 4178   1.881   0.551   1.833  0.3859  0.7962  0.0880
  155OCTO   H71 4179   1.885   0.440   1.831 -1.9128  0.6644  0.7918
  155OCTO   H72 4180   1.982   0.578   1.870  0.3752  0.0041  0.7152
  155OCTO    C8 4181   1.782   0.598   1.941  0.1143  0.3175 -0.8778
  155OCTO   H81 4182   1.679   0.561   1.923  0.6494 -1.3681 -0.6237
  155OCTO   H82 4183   1.774   0.709   1.949  0.6859  0.4596 -2.0612
  155OCTO    O1 4184   1.816   0.551   2.074 -0.5615 -0.2058  0.0529
  155OCTO   HO1 4185   1.738   0.558   2.129 -0.7842 -0.1972 -0.2571
  156OCTO    C1 4186   1.788   0.246   0.938 -0.7873  0.1069 -0.5584
  156OCTO   H11 4187   1.829   0.205   1.033 -2.3484  1.1058  0.6068
  156OCTO   H12 4188   1.829   0.345   0.909 -0.7957  0.1283 -0.4976
  156OCTO   H13 4189   1.678   0.254   0.956 -0.3737  1.1944  2.0198
  156OCTO    C2 4190   1.816   0.163   0.825 -0.6962  0.7983 -0.1546
  156OCTO   H21 4191   1.754   0.179   0.734  0.5757 -0.2087 -1.2487
  156OCTO   H22 4192   1.921   0.181   0.791  0.0195 -1.2373  0.8183
  156OCTO    C3 4193   1.821   0.010   0.853  0.3686  0.0544  0.4437
  156OCTO   H31 4194   1.892  -0.005   0.937 -1.5308  2.0895  2.5928
  156OCTO   H32 4195   1.727  -0.027   0.899  0.3969 -0.6985 -0.0931
  156OCTO    C4 4196   1.849  -0.079   0.726 -0.4812  0.4442 -0.6070
  156OCTO   H41 4197   1.765  -0.058   0.656 -0.6388  1.4796 -0.1134
  156OCTO   H42 4198   1.946  -0.046   0.682 -0.3049 -0.9201 -1.3062
  156OCTO    C5 4199   1.876  -0.225   0.753 -0.2834  0.1320 -0.1235
  156OCTO   H51 4200   1.799  -0.273   0.817  0.9900 -1.1486  0.5226
  156OCTO   H52 4201   1.872  -0.272   0.652 -0.8193  2.1810 -1.0945
  156OCTO    C6 4202   2.016  -0.259   0.818 -0.0544 -0.3330  0.7679
  156OCTO   H61 4203   2.100  -0.250   0.746  1.3872 -1.4202  2.2677
  156OCTO   H62 4204   2.034  -0.187   0.900 -0.3157  1.4191 -0.6451
  156OCTO    C7 4205   2.025  -0.402   0.872  0.2431 -0.4867  0.3505
  156OCTO   H71 4206   1.977  -0.414   0.972 -0.7168  0.7443  0.0755
  156OCTO   H72 4207   1.981  -0.474   0.800 -3.4974  0.4232  1.5038
  156OCTO    C8 4208   2.170  -0.450   0.882 -0.1936 -0.0028 -1.1836
  156OCTO   H81 4209   2.210  -0.414   0.979  1.5393 -0.5339 -1.6689
  156OCTO   H82 4210   2.240  -0.414   0.804 -1.3693  1.8384 -1.4525
  156OCTO    O1 4211   2.172  -0.592   0.888 -0.7509 -0.4896  0.6741
  156OCTO   HO1 4212   2.261  -0.610   0.858 -0.5639  1.7236 -0.3009
  157OCTO    C1 4213   1.139   3.540   2.958  0.3377  0.4490 -0.3042
  157OCTO   H11 4214   1.193   3.616   3.018  0.4249  0.5160 -0.4664
  157OCTO   H12 4215   1.171   3.549   2.852  1.1341  0.3708 -0.0765
  157OCTO   H13 4216   1.031   3.551   2.979  0.5705 -0.9518  1.9458
  157OCTO    C2 4217   1.173   3.391   2.994 -0.3383 -0.0476 -0.6519
  157OCTO   H21 4218   1.277   3.363   2.968 -0.4832  0.1965 -1.5128
  157OCTO   H22 4219   1.166   3.377   3.104  1.7522 -1.9750 -0.6921
  157OCTO    C3 4220   1.069   3.297   2.928 -0.3033  0.4548 -0.3709
  157OCTO   H31 4221   0.968   3.336   2.953  0.2505  1.2058  0.7282
  157OCTO   H32 4222   1.084   3.303   2.818  1.8042  0.0233 -0.1434
  157OCTO    C4 4223   1.083   3.154   2.977 -0.5832  0.2029 -0.1600
  157OCTO   H41 4224   1.187   3.115   2.974 -0.6990 -0.0917 -0.3649
  157OCTO   H42 4225   1.063   3.146   3.086  2.3704 -1.1931  0.3905
  157OCTO    C5 4226   1.005   3.057   2.887  0.1806 -0.0774 -0.1016
  157OCTO   H51 4227   0.904   3.103   2.896 -0.1744 -1.0467  1.2150
  157OCTO   H52 4228   1.046   3.065   2.784  1.9908 -1.3167  0.4819
  157OCTO    C6 4229   1.010   2.913   2.947  0.1532  0.0436  0.3110
  157OCTO   H61 4230   1.113   2.873   2.940  1.0124  2.2043 -0.0621
  157OCTO   H62 4231   0.967   2.909   3.050  0.0410  2.1993  0.3953
  157OCTO    C7 4232   0.938   2.815   2.852 -0.4046 -0.3604 -0.2397
  157OCTO   H71 4233   0.829   2.835   2.847 -0.4398 -0.5924 -0.4366
  157OCTO   H72 4234   0.961   2.836   2.745  1.1950 -2.2724 -0.3184
  157OCTO    C8 4235   0.943   2.669   2.886  0.0066 -0.3716 -0.6224
  157OCTO   H81 4236   0.924   2.649   2.993 -1.2967  0.6332 -0.6406
  157OCTO   H82 4237   1.052   2.649   2.870  0.6598  1.5254  1.0109
  157OCTO    O1 4238   0.872   2.581   2.792  0.4346  0.0511 -0.6219
  157OCTO   HO1 4239   0.843   2.509   2.848  1.0166  1.2228  1.2946
  158OCTO    C1 4240   3.864   2.174   0.935 -0.0310  0.7616  0.3269
  158OCTO   H11 4241   3.955   2.169   0.999 -0.3062 -0.5438  0.6559
  158OCTO   H12 4242   3.772   2.168   0.998 -0.9042 -0.8470 -0.9982
  158OCTO   H13 4243   3.864   2.080   0.875  0.7790 -0.7048  2.5019
  158OCTO    C2 4244   3.861   2.302   0.852 -0.4986  0.1752 -0.0890
  158OCTO   H21 4245   3.939   2.308   0.773 -3.2099 -0.4091 -2.9690
  158OCTO   H22 4246   3.769   2.300   0.791 -0.7369 -2.0337  0.2862
  158OCTO    C3 4247   3.874   2.429   0.938  1.0124  0.1962 -0.3943
  158OCTO   H31 4248   3.781   2.423   0.998  2.3203 -0.7544  1.6388
  158OCTO   H32 4249   3.951   2.425   1.018  2.4072  1.1310 -1.6410
  158OCTO    C4 4250   3.901   2.563   0.864  0.0314  0.7241 -0.2581
  158OCTO   H41 4251   3.996   2.541   0.812 -0.7495 -4.1565 -0.0916
  158OCTO   H42 4252   3.823   2.572   0.785  0.0468 -1.4322 -0.5875
  158OCTO    C5 4253   3.901   2.681   0.962  0.2287  0.4621 -0.0663
  158OCTO   H51 4254   3.942   2.658   1.062 -1.3122 -0.8460  0.3079
  158OCTO   H52 4255   3.967   2.759   0.919  0.0146  2.1230  2.4588
  158OCTO    C6 4256   3.760   2.733   0.977 -0.5712 -0.0237 -0.6162
  158OCTO   H61 4257   3.715   2.759   0.879  0.5096  2.2167 -0.5605
  158OCTO   H62 4258   3.703   2.646   1.016  3.6474 -2.4367  0.7536
  158OCTO    C7 4259   3.747   2.856   1.065 -0.0677  0.3940  0.0600
  158OCTO   H71 4260   3.772   2.829   1.170  0.8340 -0.6179 -0.3933
  158OCTO   H72 4261   3.810   2.934   1.017 -2.5821  1.0407 -2.4668
  158OCTO    C8 4262   3.602   2.907   1.051  0.2774  0.6337  0.9216
  158OCTO   H81 4263   3.528   2.826   1.065 -0.6795  1.1557 -0.8603
  158OCTO   H82 4264   3.585   2.956   0.953  2.0570  0.3365  0.4317
  158OCTO    O1 4265   3.585   3.002   1.148 -0.0770  0.1779  0.1314
  158OCTO   HO1 4266   3.604   3.084   1.101 -1.6378  1.8439  2.2161
  159OCTO    C1 4267   3.434   2.577   2.948 -0.1346  0.2521  0.5910
  159OCTO   H11 4268   3.365   2.589   2.862 -0.3763  1.1076  0.9038
  159OCTO   H12 4269   3.516   2.652   2.943  0.0685  0.0543  0.9696
  159OCTO   H13 4270   3.475   2.474   2.940 -1.3498 -0.4292  2.5299
  159OCTO    C2 4271   3.347   2.582   3.074 -0.2544 -0.3530  0.3625
  159OCTO   H21 4272   3.409   2.591   3.165  0.3507 -1.2698  0.0550
  159OCTO   H22 4273   3.299   2.682   3.078  1.2816  0.3591  1.7430
  159OCTO    C3 4274   3.247   2.470   3.092 -0.0062  1.4264  0.0208
  159OCTO   H31 4275   3.160   2.517   3.143 -1.1761  0.0611 -0.6393
  159OCTO   H32 4276   3.197   2.436   3.000 -1.1619 -0.6335  1.3349
  159OCTO    C4 4277   3.298   2.348   3.168  0.3894 -0.7092 -0.2142
  159OCTO   H41 4278   3.234   2.268   3.125 -2.0981  1.3196 -0.5157
  159OCTO   H42 4279   3.401   2.323   3.135  0.6421  0.2191 -0.1767
  159OCTO    C5 4280   3.276   2.348   3.324  0.3380  0.1222 -0.0359
  159OCTO   H51 4281   3.167   2.353   3.344 -0.0736  0.5195 -2.1067
  159OCTO   H52 4282   3.317   2.249   3.353 -0.6952 -0.4966 -0.6453
  159OCTO    C6 4283   3.363   2.454   3.396 -0.6910  0.1756  0.3153
  159OCTO   H61 4284   3.469   2.454   3.363 -1.0263 -0.5916 -0.8163
  159OCTO   H62 4285   3.310   2.550   3.379 -0.7828  0.2363  0.8975
  159OCTO    C7 4286   3.357   2.434   3.551  0.0694  0.2667 -0.2204
  159OCTO   H71 4287   3.403   2.336   3.576  0.0561 -0.1056 -1.5791
  159OCTO   H72 4288   3.415   2.519   3.593  1.7313 -0.0144 -1.8169
  159OCTO    C8 4289   3.214   2.436   3.604 -0.0482 -0.5231  0.5269
  159OCTO   H81 4290   3.158   2.350   3.560  0.6435 -0.6743 -0.0807
  159OCTO   H82 4291   3.172   2.534   3.573  1.9083 -0.3148 -1.8123
  159OCTO    O1 4292   3.228   2.414   3.740 -0.1155  0.5379  0.2729
  159OCTO   HO1 4293   3.154   2.460   3.780 -0.1286 -0.1969  1.1445
  160OCTO    C1 4294   1.142   2.349   1.718  0.0987 -0.0733 -0.3355
  160OCTO   H11 4295   1.114   2.306   1.619 -0.3189 -0.8571  0.1107
  160OCTO   H12 4296   1.177   2.453   1.707  1.2052 -0.2590  1.1642
  160OCTO   H13 4297   1.217   2.286   1.772  1.4654  2.8207  1.3432
  160OCTO    C2 4298   1.027   2.366   1.814  0.3817 -0.0489  0.2006
  160OCTO   H21 4299   0.949   2.426   1.763 -1.8518 -1.1565  2.1197
  160OCTO   H22 4300   0.979   2.271   1.846 -1.5637  0.9034  0.2618
  160OCTO    C3 4301   1.063   2.444   1.939  0.2083  0.2040 -0.9677
  160OCTO   H31 4302   1.117   2.538   1.916  2.7335 -1.0202 -0.4473
  160OCTO   H32 4303   0.967   2.457   1.993 -0.4255 -1.1881 -1.6948
  160OCTO    C4 4304   1.159   2.357   2.029  0.3548 -0.3666  0.4849
  160OCTO   H41 4305   1.100   2.266   2.054 -0.5420  0.1287  0.2289
  160OCTO   H42 4306   1.247   2.339   1.965 -0.2885  2.1745 -1.2722
  160OCTO    C5 4307   1.202   2.425   2.157  0.1637 -0.1296 -0.1374
  160OCTO   H51 4308   1.288   2.368   2.199 -0.1528 -0.5136 -0.0023
  160OCTO   H52 4309   1.225   2.529   2.126  0.8096 -0.0343  0.6362
  160OCTO    C6 4310   1.086   2.437   2.259 -0.5060  0.4506  0.3250
  160OCTO   H61 4311   0.996   2.474   2.207 -0.9016  2.4423  2.2636
  160OCTO   H62 4312   1.067   2.336   2.301 -1.1608  0.4624  0.0605
  160OCTO    C7 4313   1.137   2.509   2.379 -0.1853 -0.2720 -0.2731
  160OCTO   H71 4314   1.211   2.443   2.430 -0.5510  0.7942  1.7345
  160OCTO   H72 4315   1.175   2.610   2.355 -1.8217  1.3026  3.1355
  160OCTO    C8 4316   1.014   2.547   2.470  1.0128 -0.1711  0.9055
  160OCTO   H81 4317   0.959   2.456   2.499  2.2006 -2.5888 -3.5489
  160OCTO   H82 4318   0.940   2.613   2.420  1.1125 -0.4035  0.4453
  160OCTO    O1 4319   1.072   2.625   2.572 -0.1602  0.5827 -1.1278
  160OCTO   HO1 4320   1.000   2.624   2.637 -0.7223 -0.4512 -1.7420
  161OCTO    C1 4321   2.435   1.699   3.605 -0.6732  0.4290  0.1589
  161OCTO   H11 4322   2.451   1.605   3.661 -1.1147 -0.7373 -1.5753
  161OCTO   H12 4323   2.499   1.779   3.649 -1.6205  1.9963 -1.1691
  161OCTO   H13 4324   2.333   1.741   3.620 -1.3816 -1.4468  0.8312
  161OCTO    C2 4325   2.456   1.695   3.451  0.6044 -0.8323 -0.5415
  161OCTO   H21 4326   2.546   1.631   3.431  0.8689 -1.3293  1.9419
  161OCTO   H22 4327   2.369   1.641   3.407 -0.7319  2.4473 -2.3068
  161OCTO    C3 4328   2.454   1.836   3.377  0.0834  0.1589  0.6092
  161OCTO   H31 4329   2.495   1.827   3.274 -0.3134 -0.3747  0.4931
  161OCTO   H32 4330   2.349   1.871   3.373 -0.7136 -2.1535 -1.6485
  161OCTO    C4 4331   2.538   1.945   3.441 -0.0452  0.2768 -0.4172
  161OCTO   H41 4332   2.515   1.962   3.549 -0.8773 -1.9744 -0.1905
  161OCTO   H42 4333   2.645   1.914   3.436 -0.4838 -1.2621 -0.6557
  161OCTO    C5 4334   2.519   2.078   3.369 -0.2161  0.2822  0.1273
  161OCTO   H51 4335   2.558   2.077   3.265 -0.8517 -0.9548 -0.1179
  161OCTO   H52 4336   2.409   2.094   3.366 -0.5283 -1.6689 -0.7190
  161OCTO    C6 4337   2.589   2.194   3.427 -0.6508 -0.8786 -0.0886
  161OCTO   H61 4338   2.700   2.184   3.418 -0.5064 -1.0955  1.6629
  161OCTO   H62 4339   2.548   2.275   3.363 -0.5082 -0.4477  0.3622
  161OCTO    C7 4340   2.556   2.231   3.573 -0.0370  0.6445 -0.1941
  161OCTO   H71 4341   2.446   2.246   3.578  0.0042  2.6808 -2.9649
  161OCTO   H72 4342   2.596   2.147   3.634 -1.4655  1.4816  2.0240
  161OCTO    C8 4343   2.618   2.358   3.633 -0.3261  0.4870 -0.6404
  161OCTO   H81 4344   2.588   2.453   3.583 -1.8929  0.9866  1.1255
  161OCTO   H82 4345   2.728   2.341   3.640 -0.6178 -0.8335  2.0528
  161OCTO    O1 4346   2.574   2.369   3.768  0.3780 -0.1254  0.6382
  161OCTO   HO1 4347   2.611   2.447   3.811 -1.0479 -0.5279  2.7531
  162OCTO    C1 4348   0.213   3.066   2.965  0.1861  0.3859 -0.0819
  162OCTO   H11 4349   0.266   3.162   2.946  1.1318  0.0563  0.7972
  162OCTO   H12 4350   0.273   3.000   3.030 -1.0776  0.4274  1.1745
  162OCTO   H13 4351   0.197   3.024   2.864 -0.9116 -0.7069  0.5229
  162OCTO    C2 4352   0.085   3.106   3.032  0.1494  0.3135  0.0751
  162OCTO   H21 4353   0.103   3.156   3.129  2.8990 -0.5890  0.1061
  162OCTO   H22 4354   0.025   3.173   2.967  0.7316  0.2953 -0.4941
  162OCTO    C3 4355  -0.005   2.987   3.042 -0.0743 -0.5251  0.0105
  162OCTO   H31 4356  -0.019   2.951   2.938 -0.9878  1.0848 -0.4730
  162OCTO   H32 4357   0.052   2.909   3.096  0.2780  0.0534  0.4995
  162OCTO    C4 4358  -0.151   3.013   3.102  0.1617  0.0787 -0.2948
  162OCTO   H41 4359  -0.134   3.031   3.210  1.5426  0.2430 -0.5202
  162OCTO   H42 4360  -0.190   3.104   3.051 -1.0401  0.0003  0.4489
  162OCTO    C5 4361  -0.251   2.903   3.094 -0.0328  0.7090 -0.2979
  162OCTO   H51 4362  -0.205   2.804   3.116 -2.5108 -0.0037  2.2942
  162OCTO   H52 4363  -0.332   2.904   3.170  1.7440 -0.6769  1.7549
  162OCTO    C6 4364  -0.302   2.856   2.952 -0.2824  0.7237  0.2461
  162OCTO   H61 4365  -0.232   2.776   2.923  1.7982  1.6896  2.2687
  162OCTO   H62 4366  -0.404   2.813   2.964 -0.0049 -0.4611 -1.3889
  162OCTO    C7 4367  -0.313   2.968   2.845  0.0141 -0.1497  0.2289
  162OCTO   H71 4368  -0.211   3.008   2.824 -1.2580  2.4416 -1.3699
  162OCTO   H72 4369  -0.350   2.924   2.750  0.4435 -0.3571  0.1507
  162OCTO    C8 4370  -0.406   3.080   2.883 -0.3826  0.0764  0.5720
  162OCTO   H81 4371  -0.363   3.149   2.959  0.3514 -1.4844  1.6437
  162OCTO   H82 4372  -0.504   3.049   2.925 -0.3816 -1.0422 -0.2070
  162OCTO    O1 4373  -0.431   3.153   2.764  0.7615 -0.4089  0.3166
  162OCTO   HO1 4374  -0.419   3.091   2.691 -2.0588 -1.0308  0.2384
  163OCTO    C1 4375   1.996   3.690   2.733  0.5417 -0.7330 -0.2552
  163OCTO   H11 4376   1.912   3.760   2.715  0.6624 -1.0839 -2.4115
  163OCTO   H12 4377   1.950   3.590   2.743  0.4012 -0.8498 -1.8914
  163OCTO   H13 4378   2.042   3.730   2.827 -2.5678  0.7386  0.7941
  163OCTO    C2 4379   2.096   3.711   2.620  0.8827  0.0668  0.4175
  163OCTO   H21 4380   2.139   3.612   2.594 -1.1975 -0.1112 -3.0134
  163OCTO   H22 4381   2.051   3.748   2.526 -2.1197 -3.7130  0.1397
  163OCTO    C3 4382   2.217   3.798   2.652 -0.3132 -0.2545  0.0993
  163OCTO   H31 4383   2.266   3.822   2.555 -3.0217  3.6524 -0.5171
  163OCTO   H32 4384   2.193   3.896   2.699  0.0205 -0.8931  1.6795
  163OCTO    C4 4385   2.306   3.726   2.747  0.5075 -0.2914 -0.1250
  163OCTO   H41 4386   2.256   3.697   2.841 -0.9539 -0.3774 -0.8920
  163OCTO   H42 4387   2.340   3.633   2.696 -1.4399 -1.5055  0.7030
  163OCTO    C5 4388   2.433   3.803   2.781 -0.2455  0.0524 -0.2477
  163OCTO   H51 4389   2.493   3.816   2.688  3.2018  0.0983  1.7964
  163OCTO   H52 4390   2.401   3.903   2.817 -3.5587 -0.7415 -0.6705
  163OCTO    C6 4391   2.513   3.730   2.894 -0.1067 -0.0827  1.0555
  163OCTO   H61 4392   2.449   3.742   2.984 -0.5326  1.8361  0.5409
  163OCTO   H62 4393   2.520   3.621   2.872 -1.0032  0.4694 -2.6898
  163OCTO    C7 4394   2.649   3.796   2.917  0.3196 -1.0513  0.4708
  163OCTO   H71 4395   2.696   3.820   2.819 -0.5001  0.7623  0.4704
  163OCTO   H72 4396   2.626   3.898   2.956  1.8986  0.1581 -1.5566
  163OCTO    C8 4397   2.738   3.715   3.007 -0.8651  0.1902 -0.5207
  163OCTO   H81 4398   2.749   3.609   2.975  0.6243  0.6580 -1.7248
  163OCTO   H82 4399   2.703   3.718   3.112  1.3938  0.2334  0.2869
  163OCTO    O1 4400   2.867   3.782   2.999 -0.3241 -0.2013  0.5221
  163OCTO   HO1 4401   2.866   3.846   3.070  0.6558  0.9691 -0.4666
  164OCTO    C1 4402   3.171   1.782   0.165 -0.1096 -0.5261  0.0686
  164OCTO   H11 4403   3.231   1.873   0.189 -0.8245 -0.3853  1.4236
  164OCTO   H12 4404   3.239   1.713   0.112 -0.4664 -1.3188  0.6251
  164OCTO   H13 4405   3.091   1.815   0.094  0.2820  0.1312 -0.0806
  164OCTO    C2 4406   3.113   1.727   0.295  0.5308  0.9369  0.4592
  164OCTO   H21 4407   3.057   1.634   0.270  0.5440  0.3453  2.4733
  164OCTO   H22 4408   3.187   1.699   0.373  0.0691  1.6678  1.1715
  164OCTO    C3 4409   3.012   1.810   0.350 -0.8074 -0.0543  0.0363
  164OCTO   H31 4410   3.051   1.913   0.365  1.4716 -0.8488 -0.0351
  164OCTO   H32 4411   2.931   1.826   0.276 -0.5463 -0.7730 -0.4284
  164OCTO    C4 4412   2.960   1.775   0.485 -0.2254  0.2223  0.2674
  164OCTO   H41 4413   3.040   1.742   0.555 -1.9235 -4.2937  0.3976
  164OCTO   H42 4414   2.910   1.867   0.522  0.4162  0.3993  0.7055
  164OCTO    C5 4415   2.851   1.663   0.483 -0.5674 -0.4101 -0.5442
  164OCTO   H51 4416   2.767   1.694   0.419  1.1965  0.3238 -2.6128
  164OCTO   H52 4417   2.904   1.578   0.435 -1.3646 -1.1480 -0.1426
  164OCTO    C6 4418   2.799   1.624   0.626  0.4754  0.1896 -0.6307
  164OCTO   H61 4419   2.891   1.591   0.678  0.0408  0.1805  0.1460
  164OCTO   H62 4420   2.762   1.712   0.683  0.2812 -0.2978  0.0072
  164OCTO    C7 4421   2.694   1.516   0.634 -0.7028 -0.1229  0.0909
  164OCTO   H71 4422   2.602   1.542   0.578 -1.5476  1.9379  2.2813
  164OCTO   H72 4423   2.724   1.415   0.596  1.5158  0.2894  0.6013
  164OCTO    C8 4424   2.657   1.479   0.777 -0.4956 -0.0041  0.5637
  164OCTO   H81 4425   2.613   1.571   0.821  2.3852  1.0622  1.3932
  164OCTO   H82 4426   2.746   1.465   0.841  0.7948  2.5653 -0.5326
  164OCTO    O1 4427   2.577   1.360   0.775  0.5641  0.5129  0.3836
  164OCTO   HO1 4428   2.644   1.291   0.782 -1.9401 -2.1275 -0.1010
  165OCTO    C1 4429   3.032   0.362   1.216 -0.4263  0.3762 -0.0046
  165OCTO   H11 4430   2.959   0.285   1.249  0.2310  0.5783  2.0673
  165OCTO   H12 4431   3.064   0.340   1.112  1.1377  1.0887  0.2972
  165OCTO   H13 4432   3.113   0.364   1.292 -1.1915 -1.3048  0.9064
  165OCTO    C2 4433   2.966   0.495   1.210  0.1270 -0.1292 -0.2107
  165OCTO   H21 4434   2.872   0.485   1.151  0.0267  0.2477 -0.1210
  165OCTO   H22 4435   2.941   0.529   1.312  2.5062 -1.0600  0.7516
  165OCTO    C3 4436   3.039   0.606   1.131 -0.4838 -0.7119  0.2786
  165OCTO   H31 4437   3.134   0.615   1.189 -1.0178  1.4087  0.9276
  165OCTO   H32 4438   3.089   0.577   1.036 -1.2433  1.6097 -0.8949
  165OCTO    C4 4439   2.966   0.741   1.123 -0.3936  0.0081 -0.1894
  165OCTO   H41 4440   2.869   0.734   1.070 -0.3805  1.6044 -0.4916
  165OCTO   H42 4441   2.940   0.764   1.229 -0.3218  1.1739 -0.4143
  165OCTO    C5 4442   3.051   0.850   1.063 -0.8626  0.4071 -0.1042
  165OCTO   H51 4443   3.148   0.853   1.117  0.8038  0.3765 -2.8933
  165OCTO   H52 4444   3.075   0.813   0.961  0.7608 -1.2311  0.8305
  165OCTO    C6 4445   2.973   0.977   1.066  0.8954 -0.4444 -0.4684
  165OCTO   H61 4446   3.022   1.052   1.000 -0.5963  0.7854 -0.2578
  165OCTO   H62 4447   2.873   0.957   1.022  0.9565 -0.0333 -0.8037
  165OCTO    C7 4448   2.944   1.032   1.205 -0.3916 -1.0858  0.0672
  165OCTO   H71 4449   2.914   0.952   1.277  1.5109 -1.1317  0.8759
  165OCTO   H72 4450   3.033   1.076   1.254 -1.1527  3.5321 -2.2069
  165OCTO    C8 4451   2.847   1.151   1.201  0.0942 -0.3824  0.1285
  165OCTO   H81 4452   2.821   1.173   1.306  2.1243 -0.6449  0.7280
  165OCTO   H82 4453   2.759   1.118   1.141  0.9970 -1.5215 -0.6173
  165OCTO    O1 4454   2.912   1.268   1.146  0.3291 -0.4056  0.0010
  165OCTO   HO1 4455   2.907   1.251   1.051  0.1376 -3.3163  0.4226
  166OCTO    C1 4456   1.369   0.063   3.530  0.4660 -0.2154 -0.1374
  166OCTO   H11 4457   1.267   0.035   3.566  0.9880 -0.4146  1.2304
  166OCTO   H12 4458   1.378   0.173   3.542 -0.4304 -0.2641  1.2558
  166OCTO   H13 4459   1.373   0.033   3.423 -2.6482 -0.7359 -0.2023
  166OCTO    C2 4460   1.468  -0.006   3.615  0.2900 -0.3343 -0.1094
  166OCTO   H21 4461   1.446  -0.115   3.616 -2.6964  0.1831  0.9884
  166OCTO   H22 4462   1.569  -0.004   3.567  1.4837 -0.9004  2.2152
  166OCTO    C3 4463   1.472   0.051   3.753 -0.1372  0.1505 -0.1715
  166OCTO   H31 4464   1.513   0.154   3.748  1.4541 -0.4247  0.6385
  166OCTO   H32 4465   1.368   0.057   3.793  0.6139  0.4747  1.8496
  166OCTO    C4 4466   1.564  -0.027   3.857  0.2074  0.8244  0.4385
  166OCTO   H41 4467   1.667  -0.037   3.817  0.2137 -2.0235  0.9842
  166OCTO   H42 4468   1.576   0.023   3.955  1.2796  1.1138  0.1739
  166OCTO    C5 4469   1.511  -0.168   3.886  0.4887  0.2258  0.5237
  166OCTO   H51 4470   1.405  -0.158   3.918  0.3575  2.0217 -0.3718
  166OCTO   H52 4471   1.507  -0.241   3.802  2.3433 -0.7983  1.2585
  166OCTO    C6 4472   1.572  -0.229   4.014 -0.4056  0.0109  0.0199
  166OCTO   H61 4473   1.648  -0.305   3.985 -1.1657 -0.8917  0.3566
  166OCTO   H62 4474   1.618  -0.156   4.084  3.0514 -1.8053 -0.1321
  166OCTO    C7 4475   1.469  -0.304   4.090  0.3784  0.0264  0.3328
  166OCTO   H71 4476   1.391  -0.231   4.120 -1.8653 -2.3873  0.7304
  166OCTO   H72 4477   1.415  -0.370   4.019  2.4964 -0.3088 -1.0578
  166OCTO    C8 4478   1.512  -0.376   4.210 -0.1759  0.4619 -0.0838
  166OCTO   H81 4479   1.549  -0.312   4.293 -1.3812 -0.3847  1.1456
  166OCTO   H82 4480   1.598  -0.439   4.178  0.2730  1.6623 -1.3151
  166OCTO    O1 4481   1.404  -0.445   4.265  0.6160 -0.2049 -0.0002
  166OCTO   HO1 4482   1.440  -0.526   4.301  0.1862  0.2959  1.6131
  167OCTO    C1 4483   1.809   0.793   3.592 -0.2573 -0.2005  0.6659
  167OCTO   H11 4484   1.736   0.872   3.565  1.0854  0.4263 -1.3760
  167OCTO   H12 4485   1.768   0.690   3.603  0.7749 -0.6882  0.1317
  167OCTO   H13 4486   1.853   0.817   3.691 -0.8686 -2.5903  1.5828
  167OCTO    C2 4487   1.899   0.802   3.470  0.1413  0.3723  0.8284
  167OCTO   H21 4488   1.858   0.724   3.402  2.4117 -0.1228 -0.0580
  167OCTO   H22 4489   1.890   0.900   3.419  2.8586  0.7561  0.9800
  167OCTO    C3 4490   2.048   0.776   3.499  0.3171  0.1298  0.1673
  167OCTO   H31 4491   2.075   0.830   3.592  2.4132  0.6724 -0.6827
  167OCTO   H32 4492   2.056   0.669   3.528  0.9839 -0.2547 -1.3174
  167OCTO    C4 4493   2.138   0.797   3.381  0.1854  0.2063  0.9737
  167OCTO   H41 4494   2.103   0.731   3.298  0.4772 -0.8645  1.6902
  167OCTO   H42 4495   2.142   0.905   3.353  1.4387 -0.1888 -0.5856
  167OCTO    C5 4496   2.288   0.760   3.405 -0.1337 -0.2650 -0.4595
  167OCTO   H51 4497   2.343   0.821   3.480 -0.2728 -0.0922 -0.4989
  167OCTO   H52 4498   2.285   0.653   3.435  0.9466  0.1858  1.4269
  167OCTO    C6 4499   2.381   0.775   3.286 -0.5790 -0.1790 -0.1097
  167OCTO   H61 4500   2.342   0.726   3.194 -1.7988  0.0189  0.2821
  167OCTO   H62 4501   2.405   0.879   3.255 -3.7025  1.2606  1.7904
  167OCTO    C7 4502   2.510   0.692   3.312  0.1825 -0.0960 -0.1386
  167OCTO   H71 4503   2.556   0.730   3.406 -1.5276  0.9014  0.3461
  167OCTO   H72 4504   2.463   0.595   3.337 -0.9131  0.3668 -0.3244
  167OCTO    C8 4505   2.598   0.698   3.193 -0.2244  0.5984 -0.4615
  167OCTO   H81 4506   2.619   0.798   3.150  0.8050 -0.3574 -2.3256
  167OCTO   H82 4507   2.544   0.647   3.110  1.5446  0.5166 -1.6055
  167OCTO    O1 4508   2.723   0.625   3.210 -0.3754  0.3794  0.2647
  167OCTO   HO1 4509   2.753   0.606   3.121  1.8826  1.5748  0.6678
  168OCTO    C1 4510   3.424   2.158   0.867 -0.0072  0.0360  0.6558
  168OCTO   H11 4511   3.500   2.212   0.927  2.1871 -2.1478 -0.0068
  168OCTO   H12 4512   3.354   2.219   0.806 -0.7326 -1.2028  0.2028
  168OCTO   H13 4513   3.365   2.094   0.937 -1.4541  0.3859 -0.2012
  168OCTO    C2 4514   3.500   2.059   0.773 -0.3839  0.2163 -0.2574
  168OCTO   H21 4515   3.565   2.112   0.701 -1.6945  1.8946 -0.2787
  168OCTO   H22 4516   3.569   1.990   0.826  0.2106 -0.6582 -2.0652
  168OCTO    C3 4517   3.411   1.953   0.703 -0.2723  0.0280 -0.1442
  168OCTO   H31 4518   3.318   1.995   0.659 -0.2958 -0.5579 -0.6513
  168OCTO   H32 4519   3.472   1.912   0.620 -0.3905  0.9431 -0.6952
  168OCTO    C4 4520   3.385   1.834   0.795  0.3870  0.3167  0.1872
  168OCTO   H41 4521   3.482   1.801   0.837  0.3756 -1.5793 -1.1745
  168OCTO   H42 4522   3.331   1.864   0.888  0.7798  1.0570  0.1798
  168OCTO    C5 4523   3.319   1.722   0.721  0.5008 -0.9182  0.2612
  168OCTO   H51 4524   3.217   1.741   0.681  0.4360 -2.1372 -0.1946
  168OCTO   H52 4525   3.374   1.705   0.626 -0.5356  1.4177 -0.8288
  168OCTO    C6 4526   3.332   1.580   0.801  0.4594 -0.4865  0.2973
  168OCTO   H61 4527   3.435   1.540   0.804  1.9168  2.8872 -0.2423
  168OCTO   H62 4528   3.302   1.609   0.904 -0.2957  3.0037 -0.7738
  168OCTO    C7 4529   3.229   1.478   0.743  0.8510 -0.3808  0.0244
  168OCTO   H71 4530   3.134   1.530   0.718  1.1030 -0.1809 -0.5130
  168OCTO   H72 4531   3.279   1.433   0.655 -0.4900 -2.2701  0.1843
  168OCTO    C8 4532   3.177   1.366   0.845 -0.4524  0.0373 -0.4689
  168OCTO   H81 4533   3.126   1.420   0.927 -1.7025  0.8923 -1.7708
  168OCTO   H82 4534   3.271   1.330   0.892 -0.3727  1.2080  0.3022
  168OCTO    O1 4535   3.097   1.268   0.786 -0.3145  0.0992 -0.2963
  168OCTO   HO1 4536   3.148   1.190   0.761 -1.0226  0.3160 -2.6671
  169OCTO    C1 4537   3.662   2.478   1.298  0.2868  0.0809  0.0417
  169OCTO   H11 4538   3.673   2.501   1.190 -0.9053  4.0285  0.5871
  169OCTO   H12 4539   3.554   2.473   1.323  0.2077 -0.1577 -0.3338
  169OCTO   H13 4540   3.701   2.571   1.344  1.3026 -0.3349  0.0470
  169OCTO    C2 4541   3.741   2.349   1.332  0.0952 -0.5336 -1.0494
  169OCTO   H21 4542   3.695   2.263   1.279 -1.0391  0.2646 -1.4013
  169OCTO   H22 4543   3.845   2.373   1.300  0.3728  0.3376  0.4039
  169OCTO    C3 4544   3.746   2.321   1.485  0.5080  0.3427 -0.5208
  169OCTO   H31 4545   3.801   2.226   1.505  1.4163  1.1992  1.3334
  169OCTO   H32 4546   3.811   2.399   1.530 -0.9897  0.5436  1.4041
  169OCTO    C4 4547   3.620   2.323   1.562  0.0152  0.1232  0.1480
  169OCTO   H41 4548   3.562   2.418   1.572 -1.5373 -0.8254  0.4770
  169OCTO   H42 4549   3.549   2.251   1.516  0.8337 -0.6291  0.0493
  169OCTO    C5 4550   3.637   2.269   1.710 -0.2485 -0.3241  0.1107
  169OCTO   H51 4551   3.726   2.317   1.756 -1.2005  1.9766 -0.3186
  169OCTO   H52 4552   3.562   2.320   1.774  2.4535  2.8484  1.0404
  169OCTO    C6 4553   3.638   2.121   1.731 -0.2067  0.7391 -0.0488
  169OCTO   H61 4554   3.556   2.066   1.679 -0.5510  0.0693  1.1616
  169OCTO   H62 4555   3.726   2.085   1.674 -0.2592  0.6509 -0.0751
  169OCTO    C7 4556   3.631   2.079   1.875 -0.9300  0.1571  0.4253
  169OCTO   H71 4557   3.529   2.088   1.920 -0.7953  1.9322  0.4480
  169OCTO   H72 4558   3.648   1.970   1.878  0.0395  0.2830 -0.0545
  169OCTO    C8 4559   3.725   2.144   1.976  0.2004  0.2104  0.7397
  169OCTO   H81 4560   3.708   2.253   1.968  0.0306  0.3666  2.7401
  169OCTO   H82 4561   3.832   2.129   1.949 -0.1438 -4.1240  0.9977
  169OCTO    O1 4562   3.691   2.110   2.110  0.3186  0.0549 -1.4034
  169OCTO   HO1 4563   3.757   2.136   2.175 -1.6223 -0.0475  0.7663
  170OCTO    C1 4564   4.116   1.190   2.362  0.1737 -0.9630  0.7132
  170OCTO   H11 4565   4.153   1.094   2.402 -0.8709 -2.1856 -1.0668
  170OCTO   H12 4566   4.168   1.218   2.268  0.4266  0.9175  1.3655
  170OCTO   H13 4567   4.123   1.270   2.439 -2.0661  0.1104 -0.0878
  170OCTO    C2 4568   3.964   1.168   2.340  0.0461  0.3149 -0.2060
  170OCTO   H21 4569   3.959   1.077   2.277 -0.1730 -1.0623  1.6834
  170OCTO   H22 4570   3.911   1.154   2.437 -0.9887  0.7520 -0.6973
  170OCTO    C3 4571   3.883   1.289   2.282  0.4170 -0.5403  1.3555
  170OCTO   H31 4572   3.780   1.249   2.270  0.3604 -0.0986  0.2058
  170OCTO   H32 4573   3.875   1.367   2.360 -0.3745  0.5124  0.2710
  170OCTO    C4 4574   3.944   1.341   2.151 -0.4225 -0.5538 -0.4764
  170OCTO   H41 4575   4.043   1.389   2.170 -0.2676 -1.3118  0.7181
  170OCTO   H42 4576   3.960   1.253   2.086  1.6490 -1.7063  1.4550
  170OCTO    C5 4577   3.853   1.441   2.079  0.1558  0.1734  0.5360
  170OCTO   H51 4578   3.899   1.478   1.986  0.0020  1.0987  0.8142
  170OCTO   H52 4579   3.755   1.389   2.069  0.0082  0.7024 -0.8897
  170OCTO    C6 4580   3.818   1.566   2.168  0.9609 -0.3762 -0.2615
  170OCTO   H61 4581   3.782   1.527   2.266  0.2622 -2.8366 -1.4024
  170OCTO   H62 4582   3.907   1.629   2.191  1.6869 -1.5906  0.3571
  170OCTO    C7 4583   3.712   1.656   2.101 -0.4442  0.1716 -0.1271
  170OCTO   H71 4584   3.739   1.686   1.998 -1.3389  0.3580 -0.3226
  170OCTO   H72 4585   3.626   1.586   2.100  1.6352 -2.4928 -1.0003
  170OCTO    C8 4586   3.663   1.778   2.181  0.1056 -0.5671 -0.1491
  170OCTO   H81 4587   3.746   1.845   2.212  0.1636 -0.1809 -1.1298
  170OCTO   H82 4588   3.596   1.758   2.268 -0.5177 -0.7394 -0.6558
  170OCTO    O1 4589   3.584   1.846   2.089  0.9731 -0.1911 -0.1316
  170OCTO   HO1 4590   3.611   1.938   2.099  2.3046 -0.2964 -2.0623
  171OCTO    C1 4591   3.266   3.219   0.032  0.1305  0.3682 -0.4426
  171OCTO   H11 4592   3.355   3.205   0.097 -2.2303  1.3445  3.3501
  171OCTO   H12 4593   3.294   3.187  -0.070  0.0867  0.1970 -0.4005
  171OCTO   H13 4594   3.240   3.328   0.030 -0.0948  0.4019  1.5388
  171OCTO    C2 4595   3.152   3.139   0.094 -0.3722 -0.0770 -0.2388
  171OCTO   H21 4596   3.194   3.042   0.129  2.3162  0.8240 -0.7242
  171OCTO   H22 4597   3.113   3.199   0.179  0.8077 -0.7618  0.8289
  171OCTO    C3 4598   3.033   3.116  -0.001 -0.2779 -0.2609  0.4545
  171OCTO   H31 4599   3.008   3.219  -0.036  1.4125 -0.1105 -0.3671
  171OCTO   H32 4600   3.072   3.052  -0.082  0.9162  0.3547  0.5236
  171OCTO    C4 4601   2.916   3.044   0.061  0.6178  0.5592 -0.0667
  171OCTO   H41 4602   2.949   2.962   0.128  0.8449  1.5527  1.0631
  171OCTO   H42 4603   2.854   3.123   0.108 -1.4402 -1.1880  0.2617
  171OCTO    C5 4604   2.816   2.981  -0.041 -1.3720 -0.1066 -0.2172
  171OCTO   H51 4605   2.877   2.914  -0.105  0.2209  1.6366 -0.6518
  171OCTO   H52 4606   2.746   2.920   0.020 -0.4160 -1.3222 -0.2913
  171OCTO    C6 4607   2.741   3.094  -0.120  0.0556  0.3285  0.4236
  171OCTO   H61 4608   2.686   3.159  -0.049 -0.1417 -0.0047  0.5773
  171OCTO   H62 4609   2.822   3.149  -0.173  0.3688  0.3802  0.9429
  171OCTO    C7 4610   2.628   3.031  -0.211  0.1399 -0.5081  0.3528
  171OCTO   H71 4611   2.667   2.971  -0.296 -3.6138 -0.5461 -1.5251
  171OCTO   H72 4612   2.568   2.957  -0.154  0.9123 -1.9557 -0.6521
  171OCTO    C8 4613   2.539   3.136  -0.273  0.8076 -0.3140 -1.1013
  171OCTO   H81 4614   2.612   3.202  -0.325  1.7403  0.0399  0.5735
  171OCTO   H82 4615   2.483   3.194  -0.197  2.3962  2.2478 -1.7888
  171OCTO    O1 4616   2.460   3.068  -0.367  0.1488  0.0328 -0.5342
  171OCTO   HO1 4617   2.399   3.130  -0.407 -1.3610 -0.0488  1.5006
  172OCTO    C1 4618   3.316   1.960   2.870  0.0032 -0.6127 -0.0627
  172OCTO   H11 4619   3.365   1.875   2.818  0.8036 -2.1345  2.9437
  172OCTO   H12 4620   3.324   1.927   2.976 -1.8882  0.4278  0.4542
  172OCTO   H13 4621   3.207   1.968   2.851 -0.0056  0.5325  0.3858
  172OCTO    C2 4622   3.402   2.089   2.848 -0.1245  0.2005  0.0021
  172OCTO   H21 4623   3.380   2.160   2.930  0.2467 -0.6133  0.8287
  172OCTO   H22 4624   3.507   2.055   2.855 -0.2887 -0.1648  0.8572
  172OCTO    C3 4625   3.362   2.142   2.709 -0.4958 -0.6618 -0.0387
  172OCTO   H31 4626   3.369   2.050   2.647  0.0354 -1.7116  1.5191
  172OCTO   H32 4627   3.253   2.165   2.709 -0.2604  0.5542  0.5870
  172OCTO    C4 4628   3.457   2.251   2.647 -0.7140 -0.0302 -0.1357
  172OCTO   H41 4629   3.423   2.318   2.565  2.0978  0.7915 -0.7593
  172OCTO   H42 4630   3.476   2.325   2.727  0.9821  1.3172 -1.6883
  172OCTO    C5 4631   3.598   2.194   2.615 -0.3022  0.3034  0.0728
  172OCTO   H51 4632   3.653   2.290   2.598  0.3683 -0.0724  0.0912
  172OCTO   H52 4633   3.654   2.156   2.703  2.4403  0.7561 -1.3537
  172OCTO    C6 4634   3.610   2.111   2.491  0.2621  0.0342  0.7797
  172OCTO   H61 4635   3.555   2.016   2.505  2.8133 -1.2994  2.5053
  172OCTO   H62 4636   3.548   2.164   2.415  0.4855 -1.2319 -0.3299
  172OCTO    C7 4637   3.747   2.071   2.440  0.1194  0.0854 -0.8240
  172OCTO   H71 4638   3.799   2.024   2.526 -0.9581  1.0721  0.4057
  172OCTO   H72 4639   3.739   2.001   2.354  2.7336  1.0263 -1.9423
  172OCTO    C8 4640   3.822   2.191   2.398 -0.5432 -0.4075 -0.0775
  172OCTO   H81 4641   3.853   2.260   2.479 -1.4099 -0.6641  0.4802
  172OCTO   H82 4642   3.759   2.257   2.334  0.1506  0.3338 -0.0218
  172OCTO    O1 4643   3.928   2.149   2.312  0.4231 -0.1325 -0.5281
  172OCTO   HO1 4644   3.978   2.228   2.293  0.8051  0.5892  2.7993
  173OCTO    C1 4645   1.316   3.927   2.392  0.4627 -0.0598  0.4178
  173OCTO   H11 4646   1.265   4.021   2.423 -0.3171 -0.1313 -0.5763
  173OCTO   H12 4647   1.319   3.860   2.480  2.1686 -0.3986  0.1379
  173OCTO   H13 4648   1.421   3.952   2.366  0.6405 -0.6495  0.5571
  173OCTO    C2 4649   1.239   3.861   2.281 -0.7210 -0.2813 -0.1609
  173OCTO   H21 4650   1.131   3.859   2.308 -1.4735 -3.1275 -2.7947
  173OCTO   H22 4651   1.255   3.923   2.191 -0.0584 -0.7916 -0.4056
  173OCTO    C3 4652   1.289   3.719   2.247  0.1202 -0.2599  0.5813
  173OCTO   H31 4653   1.392   3.721   2.206  0.3010  1.1716  1.0657
  173OCTO   H32 4654   1.284   3.670   2.346  2.9182  2.4246  2.2460
  173OCTO    C4 4655   1.186   3.635   2.165 -0.1929 -0.2534  0.9972
  173OCTO   H41 4656   1.086   3.645   2.212 -1.9839  0.3156 -2.5885
  173OCTO   H42 4657   1.180   3.678   2.062 -1.3506 -0.1259  1.1008
  173OCTO    C5 4658   1.232   3.490   2.152 -0.0495  0.1476  0.5180
  173OCTO   H51 4659   1.333   3.490   2.105 -0.8075  4.2875 -1.6785
  173OCTO   H52 4660   1.233   3.439   2.250  0.6736  0.9982  0.9743
  173OCTO    C6 4661   1.134   3.416   2.059  0.0824 -0.6060  0.3300
  173OCTO   H61 4662   1.038   3.405   2.114 -0.4958 -2.9197 -1.0225
  173OCTO   H62 4663   1.125   3.488   1.975 -0.0830  0.0831  0.9282
  173OCTO    C7 4664   1.187   3.276   2.012 -0.3465  0.4924 -0.7319
  173OCTO   H71 4665   1.280   3.283   1.952  0.3100 -0.1003  0.1870
  173OCTO   H72 4666   1.218   3.219   2.102 -0.9026 -1.5431 -1.7588
  173OCTO    C8 4667   1.092   3.200   1.927  0.1266 -0.7026 -1.0804
  173OCTO   H81 4668   1.067   3.261   1.838 -0.2517  2.9662  1.3362
  173OCTO   H82 4669   0.992   3.184   1.971  0.7300 -2.8675 -0.3633
  173OCTO    O1 4670   1.142   3.075   1.892  0.0823 -0.2113  0.7078
  173OCTO   HO1 4671   1.119   3.032   1.974 -2.0880  0.9895  0.8107
  174OCTO    C1 4672   0.447   1.797   3.038  0.0749 -0.3422  0.1040
  174OCTO   H11 4673   0.544   1.805   3.092 -2.1038  2.0511  4.1517
  174OCTO   H12 4674   0.367   1.743   3.093  0.3358 -1.0911 -0.2443
  174OCTO   H13 4675   0.483   1.734   2.954 -0.5806  0.6352 -0.9313
  174OCTO    C2 4676   0.401   1.942   3.013 -0.0899  0.0823 -0.2851
  174OCTO   H21 4677   0.470   1.990   2.941  3.2285  0.4017  2.8471
  174OCTO   H22 4678   0.295   1.939   2.980 -0.3450 -2.2745  0.5580
  174OCTO    C3 4679   0.402   2.037   3.138 -0.4297  0.4489  0.7006
  174OCTO   H31 4680   0.332   2.015   3.221 -1.0121 -0.1717  0.0683
  174OCTO   H32 4681   0.506   2.020   3.173 -0.7471 -0.9933  1.0444
  174OCTO    C4 4682   0.397   2.179   3.099  0.0761 -0.9309  0.1125
  174OCTO   H41 4683   0.455   2.189   3.005 -1.4558  1.5908 -0.6806
  174OCTO   H42 4684   0.290   2.195   3.073  0.0859  0.8482  1.0075
  174OCTO    C5 4685   0.428   2.282   3.206  0.8023  0.3437 -0.0104
  174OCTO   H51 4686   0.378   2.379   3.187  0.7752  1.1097  3.2647
  174OCTO   H52 4687   0.386   2.242   3.301 -0.5476  0.8280 -0.3869
  174OCTO    C6 4688   0.578   2.322   3.218 -0.6525 -0.0808  0.2231
  174OCTO   H61 4689   0.572   2.409   3.287  0.5043 -0.4823  0.8569
  174OCTO   H62 4690   0.640   2.257   3.283 -1.2184  0.4765  1.3476
  174OCTO    C7 4691   0.654   2.349   3.091 -0.4826 -0.1661  0.6564
  174OCTO   H71 4692   0.661   2.252   3.037  0.4381 -0.3774  1.1343
  174OCTO   H72 4693   0.610   2.426   3.024  0.5815  0.4486  0.6402
  174OCTO    C8 4694   0.800   2.388   3.118  0.2184  0.3793  0.3796
  174OCTO   H81 4695   0.834   2.308   3.187  0.5739 -0.1346 -0.3793
  174OCTO   H82 4696   0.825   2.485   3.165  2.1480  0.5367 -0.8764
  174OCTO    O1 4697   0.874   2.384   2.990  0.0558  0.1752  0.0485
  174OCTO   HO1 4698   0.961   2.350   3.015  0.1455 -0.5809 -1.1762
  175OCTO    C1 4699   4.273   1.873   0.948  0.2540 -0.2415 -0.0494
  175OCTO   H11 4700   4.285   1.906   1.054 -0.4028 -1.5895  0.4681
  175OCTO   H12 4701   4.183   1.916   0.899 -0.2827 -2.9166 -1.5913
  175OCTO   H13 4702   4.263   1.762   0.954  2.7503 -0.5073  0.3086
  175OCTO    C2 4703   4.402   1.899   0.873 -0.7511  0.0025  0.1143
  175OCTO   H21 4704   4.382   1.855   0.772  0.8363 -0.7770  0.1056
  175OCTO   H22 4705   4.410   2.010   0.872  0.4864 -0.0729 -0.2412
  175OCTO    C3 4706   4.530   1.847   0.933  0.2360  0.6368  0.4474
  175OCTO   H31 4707   4.524   1.876   1.040 -3.2919  0.0869  0.5145
  175OCTO   H32 4708   4.537   1.736   0.936  0.8256  0.6847  1.2372
  175OCTO    C4 4709   4.642   1.896   0.849  0.0357 -0.9148  0.5181
  175OCTO   H41 4710   4.631   1.870   0.741  2.2714  0.0530  0.0030
  175OCTO   H42 4711   4.639   2.007   0.855 -1.0349 -1.0044  2.2877
  175OCTO    C5 4712   4.783   1.855   0.894 -0.1062 -0.2047 -0.0464
  175OCTO   H51 4713   4.800   1.853   1.003  2.0197  0.0175 -0.3104
  175OCTO   H52 4714   4.780   1.748   0.866 -3.6240  0.3061 -2.2161
  175OCTO    C6 4715   4.912   1.922   0.825  0.3386 -0.4018 -0.1733
  175OCTO   H61 4716   4.996   1.888   0.889  0.6505  0.7287  0.0434
  175OCTO   H62 4717   4.911   1.876   0.724 -0.7660  0.2750 -0.4972
  175OCTO    C7 4718   4.907   2.082   0.838 -0.8268  0.3439  0.2924
  175OCTO   H71 4719   4.987   2.128   0.776 -0.5828 -1.0917 -0.4974
  175OCTO   H72 4720   4.809   2.122   0.802 -1.0854  0.2371  0.8748
  175OCTO    C8 4721   4.938   2.120   0.987  0.1639 -0.5759 -0.9696
  175OCTO   H81 4722   5.039   2.092   1.022 -0.0841  0.3931  0.6262
  175OCTO   H82 4723   4.852   2.082   1.047  0.9326 -0.1627  0.4404
  175OCTO    O1 4724   4.931   2.265   1.001  0.0284 -0.7365 -0.7997
  175OCTO   HO1 4725   4.960   2.301   1.085 -1.4742  0.0242 -0.5711
  176OCTO    C1 4726   0.463   1.576   1.665 -0.5660  0.7030 -0.1578
  176OCTO   H11 4727   0.360   1.604   1.696 -0.6138 -2.0287  2.7350
  176OCTO   H12 4728   0.520   1.668   1.690 -2.7205  1.7955  0.9249
  176OCTO   H13 4729   0.465   1.547   1.558  0.4188  0.6874 -0.1487
  176OCTO    C2 4730   0.524   1.461   1.754 -0.1967 -0.6471  0.6886
  176OCTO   H21 4731   0.499   1.481   1.860  1.1354  1.5870  0.6577
  176OCTO   H22 4732   0.484   1.360   1.730  0.7528 -0.9008  0.1234
  176OCTO    C3 4733   0.681   1.457   1.733  0.0333  0.3651  0.7643
  176OCTO   H31 4734   0.698   1.403   1.637 -1.5660  0.8557  0.1695
  176OCTO   H32 4735   0.728   1.557   1.720  0.2637  0.3994  1.8402
  176OCTO    C4 4736   0.759   1.387   1.843 -0.5944  0.1122 -0.1202
  176OCTO   H41 4737   0.869   1.400   1.835 -0.6901  1.2523  0.2424
  176OCTO   H42 4738   0.720   1.425   1.940  0.2228  2.2871 -0.5830
  176OCTO    C5 4739   0.726   1.238   1.844 -0.0103 -1.2297 -0.2265
  176OCTO   H51 4740   0.622   1.228   1.881 -0.6749 -0.6916 -1.8721
  176OCTO   H52 4741   0.739   1.198   1.741  0.6878 -0.3138 -0.5046
  176OCTO    C6 4742   0.824   1.166   1.942 -0.1943 -0.5935  0.7285
  176OCTO   H61 4743   0.848   1.233   2.026  2.3453  1.6237 -1.5959
  176OCTO   H62 4744   0.779   1.069   1.974 -0.6088 -1.1562 -1.4027
  176OCTO    C7 4745   0.959   1.124   1.875  0.0080  0.3248  0.2134
  176OCTO   H71 4746   1.010   1.218   1.847  1.1117 -0.2259  0.3441
  176OCTO   H72 4747   1.035   1.083   1.945  1.6642  1.0225 -1.1048
  176OCTO    C8 4748   0.955   1.034   1.745  0.0085  0.2156 -0.8251
  176OCTO   H81 4749   0.883   1.079   1.673 -0.4813 -0.4135 -0.7325
  176OCTO   H82 4750   0.920   0.931   1.767  1.3693 -0.2291 -0.6544
  176OCTO    O1 4751   1.081   1.022   1.687 -0.1944  0.4139 -0.5170
  176OCTO   HO1 4752   1.085   1.100   1.630 -1.2774 -0.8503 -2.4304
  177OCTO    C1 4753   3.183   1.905   3.316  0.0093 -0.4531 -0.5723
  177OCTO   H11 4754   3.225   1.900   3.213  2.1784 -0.9639  0.2735
  177OCTO   H12 4755   3.116   1.993   3.313  1.1770  0.4435 -1.9471
  177OCTO   H13 4756   3.274   1.929   3.376 -0.3301 -2.8501  1.0480
  177OCTO    C2 4757   3.120   1.779   3.359  0.4045 -0.5266  0.4402
  177OCTO   H21 4758   3.053   1.739   3.279 -0.1776 -0.0420  0.6789
  177OCTO   H22 4759   3.203   1.705   3.363  0.8581  0.0072  1.0632
  177OCTO    C3 4760   3.037   1.782   3.493 -0.3872  0.9200  0.5258
  177OCTO   H31 4761   3.012   1.675   3.510  2.1308  0.2181  0.2409
  177OCTO   H32 4762   3.099   1.809   3.582 -2.1345  2.0288  1.4611
  177OCTO    C4 4763   2.928   1.894   3.490 -0.6085 -0.0374  0.5472
  177OCTO   H41 4764   2.980   1.991   3.478 -1.5666  0.4712  0.3982
  177OCTO   H42 4765   2.859   1.863   3.408 -1.4069 -1.0029  1.5390
  177OCTO    C5 4766   2.848   1.911   3.621 -0.2407 -0.2781 -0.3430
  177OCTO   H51 4767   2.778   1.992   3.593 -1.3912 -1.7174 -1.8728
  177OCTO   H52 4768   2.781   1.827   3.650  0.2208 -1.1441 -1.6534
  177OCTO    C6 4769   2.934   1.965   3.732  0.3429 -0.2827  0.8928
  177OCTO   H61 4770   2.994   1.881   3.772 -2.0826 -1.3992  2.4735
  177OCTO   H62 4771   2.998   2.045   3.691 -0.0769 -0.1361  0.5096
  177OCTO    C7 4772   2.843   2.005   3.843  0.0424  0.4381  0.4654
  177OCTO   H71 4773   2.769   2.076   3.801  1.0409 -0.5389 -3.2776
  177OCTO   H72 4774   2.788   1.914   3.875 -1.6769  0.3935 -2.3070
  177OCTO    C8 4775   2.915   2.063   3.964 -0.0596  0.6060  0.3436
  177OCTO   H81 4776   2.984   2.146   3.938 -0.8715  1.0516 -0.4186
  177OCTO   H82 4777   2.968   1.983   4.020 -2.2560 -2.2089 -1.3274
  177OCTO    O1 4778   2.818   2.124   4.051 -0.2334 -0.2418  0.3082
  177OCTO   HO1 4779   2.768   2.192   4.004 -3.1781 -1.7753  0.9807
  178OCTO    C1 4780   3.350   0.075   4.201  0.5091 -0.0572 -0.1421
  178OCTO   H11 4781   3.360   0.167   4.262  5.1818  0.5458 -1.4129
  178OCTO   H12 4782   3.269   0.007   4.236 -0.5735  0.2454 -1.9566
  178OCTO   H13 4783   3.443   0.018   4.223 -0.5119 -1.9717 -0.5434
  178OCTO    C2 4784   3.336   0.112   4.052 -0.6217  0.0792  0.1636
  178OCTO   H21 4785   3.236   0.155   4.031 -1.4763 -1.3774  1.0561
  178OCTO   H22 4786   3.407   0.196   4.039 -0.6326 -0.0176 -0.5703
  178OCTO    C3 4787   3.347  -0.008   3.953  0.2387 -0.2150 -0.3763
  178OCTO   H31 4788   3.353   0.040   3.853 -2.3198 -1.5986 -1.2992
  178OCTO   H32 4789   3.441  -0.064   3.971  2.4361  3.1347 -0.6306
  178OCTO    C4 4790   3.229  -0.101   3.953 -0.1709 -0.6460 -0.3261
  178OCTO   H41 4791   3.208  -0.147   4.052  1.8424 -0.6472  0.1392
  178OCTO   H42 4792   3.139  -0.038   3.937  0.0348 -0.1080  0.5910
  178OCTO    C5 4793   3.227  -0.209   3.846 -0.3936 -0.2447 -0.0309
  178OCTO   H51 4794   3.292  -0.184   3.760  0.2162 -1.0233  0.1963
  178OCTO   H52 4795   3.269  -0.299   3.895 -0.7251 -0.9415 -1.0109
  178OCTO    C6 4796   3.088  -0.253   3.802  0.4090  0.6021 -1.4034
  178OCTO   H61 4797   3.048  -0.299   3.894 -1.1381  0.6872 -2.0082
  178OCTO   H62 4798   3.024  -0.166   3.774 -0.3089  1.3564  2.1578
  178OCTO    C7 4799   3.085  -0.360   3.691 -0.2483 -0.3684 -0.2263
  178OCTO   H71 4800   3.157  -0.330   3.613 -0.0885 -0.0361  0.0500
  178OCTO   H72 4801   3.112  -0.458   3.737  0.7274  0.0477  0.1162
  178OCTO    C8 4802   2.950  -0.365   3.621  0.7738  0.0574 -0.4119
  178OCTO   H81 4803   2.923  -0.265   3.579  0.5718  0.7756  1.3300
  178OCTO   H82 4804   2.872  -0.404   3.691  1.1732  0.7701  0.4605
  178OCTO    O1 4805   2.953  -0.437   3.502 -0.3545  0.3332  0.5153
  178OCTO   HO1 4806   2.971  -0.528   3.529  1.8151  1.1259  1.9474
  179OCTO    C1 4807   0.220   2.760   2.054  0.3232  0.6082  0.1329
  179OCTO   H11 4808   0.188   2.825   2.139 -0.7952 -0.0927  0.2645
  179OCTO   H12 4809   0.205   2.808   1.955 -0.6101  2.2840  1.0318
  179OCTO   H13 4810   0.151   2.672   2.054  0.5200  0.4525 -0.6961
  179OCTO    C2 4811   0.365   2.725   2.078  0.5637  0.3756  0.2524
  179OCTO   H21 4812   0.381   2.667   2.171 -0.1369 -0.5635 -0.2004
  179OCTO   H22 4813   0.390   2.652   1.998  1.0034  0.2844  0.4732
  179OCTO    C3 4814   0.451   2.850   2.077 -0.1909 -0.3671 -0.4340
  179OCTO   H31 4815   0.446   2.909   1.982  0.0662  3.7620  1.8884
  179OCTO   H32 4816   0.401   2.921   2.146  0.5778  0.9510 -1.1927
  179OCTO    C4 4817   0.598   2.821   2.112 -0.8092  0.4251  0.4778
  179OCTO   H41 4818   0.660   2.912   2.128 -0.5941  0.0473  1.8993
  179OCTO   H42 4819   0.595   2.769   2.210 -0.2255  0.2715  0.4184
  179OCTO    C5 4820   0.668   2.732   2.000 -0.1368 -0.6346 -0.2459
  179OCTO   H51 4821   0.606   2.640   1.993 -0.8927 -0.0350 -2.0868
  179OCTO   H52 4822   0.655   2.797   1.910 -1.3259  2.4152  1.9648
  179OCTO    C6 4823   0.809   2.706   2.029  0.3645 -0.6526  0.0191
  179OCTO   H61 4824   0.822   2.630   2.109 -0.7131 -0.6750  0.1923
  179OCTO   H62 4825   0.863   2.675   1.937 -0.1746 -0.3875 -0.3893
  179OCTO    C7 4826   0.895   2.829   2.069 -0.0373 -0.0416 -0.1128
  179OCTO   H71 4827   0.882   2.905   1.989 -1.2130 -1.5248 -1.4045
  179OCTO   H72 4828   0.848   2.854   2.166 -1.4572  0.3842 -0.8744
  179OCTO    C8 4829   1.041   2.794   2.093  0.2269 -0.2766 -0.2172
  179OCTO   H81 4830   1.083   2.766   1.994 -0.0977  1.6625 -0.9471
  179OCTO   H82 4831   1.057   2.718   2.172 -0.7418  1.1123  1.3922
  179OCTO    O1 4832   1.108   2.912   2.130 -0.0880  0.3989 -0.2958
  179OCTO   HO1 4833   1.179   2.882   2.188 -0.9852 -1.2561  0.0077
  180OCTO    C1 4834   0.433   2.627   2.822 -0.8276 -0.2817 -0.2471
  180OCTO   H11 4835   0.358   2.696   2.779  0.1232 -0.4902 -2.3640
  180OCTO   H12 4836   0.480   2.577   2.735  0.4947  0.5563 -0.0461
  180OCTO   H13 4837   0.393   2.552   2.893  0.6340  0.0757  1.0049
  180OCTO    C2 4838   0.531   2.712   2.903  0.5755 -0.1860 -0.7571
  180OCTO   H21 4839   0.608   2.646   2.947 -2.1746 -1.6436  2.2866
  180OCTO   H22 4840   0.573   2.801   2.852  1.6364  1.5746  2.8121
  180OCTO    C3 4841   0.446   2.782   3.008  0.1107 -0.5243 -0.5453
  180OCTO   H31 4842   0.357   2.825   2.957 -0.1364 -0.1225  0.2086
  180OCTO   H32 4843   0.408   2.710   3.084 -1.3805  2.8360  2.1811
  180OCTO    C4 4844   0.532   2.885   3.090  0.3057 -0.5085  0.0868
  180OCTO   H41 4845   0.565   2.951   3.006 -0.0368 -1.6520 -0.9719
  180OCTO   H42 4846   0.469   2.944   3.160  1.7181  0.7746  0.3455
  180OCTO    C5 4847   0.656   2.835   3.173  0.2497  0.1212 -1.0522
  180OCTO   H51 4848   0.738   2.788   3.113 -1.0081 -0.6302 -2.2342
  180OCTO   H52 4849   0.695   2.916   3.237  1.0532 -1.5867  0.7251
  180OCTO    C6 4850   0.611   2.721   3.273  0.1134 -0.6628  0.7833
  180OCTO   H61 4851   0.519   2.766   3.318  0.5522  1.1005 -0.0201
  180OCTO   H62 4852   0.583   2.631   3.214  2.1826 -1.3931  0.8396
  180OCTO    C7 4853   0.716   2.676   3.378 -0.5213  1.0274  0.5219
  180OCTO   H71 4854   0.678   2.576   3.407  1.1813  0.2202  0.1202
  180OCTO   H72 4855   0.815   2.652   3.332 -1.4161 -0.4197 -0.7401
  180OCTO    C8 4856   0.725   2.773   3.495  0.1652  0.4962 -0.3630
  180OCTO   H81 4857   0.623   2.812   3.517  0.3558  1.7709 -1.5877
  180OCTO   H82 4858   0.789   2.859   3.467 -0.3903  1.3248  0.8758
  180OCTO    O1 4859   0.774   2.699   3.609 -0.1172 -0.1602  0.4561
  180OCTO   HO1 4860   0.782   2.759   3.683  1.9431  0.6905 -0.3930
  181OCTO    C1 4861   2.420   0.112   4.066  0.5467 -0.4571  0.0027
  181OCTO   H11 4862   2.347   0.194   4.087 -0.1985 -1.1678  0.2589
  181OCTO   H12 4863   2.507   0.129   4.132 -0.0120  1.6637  0.2623
  181OCTO   H13 4864   2.443   0.094   3.959  2.3234 -0.8579  0.4238
  181OCTO    C2 4865   2.338  -0.011   4.129  0.1928 -0.4224 -0.2774
  181OCTO   H21 4866   2.310   0.017   4.233  1.1534  0.2889 -0.1983
  181OCTO   H22 4867   2.240  -0.032   4.080 -0.9157 -1.1407  2.0851
  181OCTO    C3 4868   2.413  -0.143   4.140 -0.1669  0.9143 -0.6543
  181OCTO   H31 4869   2.451  -0.188   4.046 -1.1788 -1.6235  0.0589
  181OCTO   H32 4870   2.501  -0.115   4.203 -1.9708  0.3724  2.2969
  181OCTO    C4 4871   2.340  -0.251   4.229 -0.2584  0.2870 -0.5145
  181OCTO   H41 4872   2.300  -0.213   4.326 -0.5301 -1.4744  0.1093
  181OCTO   H42 4873   2.255  -0.289   4.170 -0.9667  0.0519  0.6159
  181OCTO    C5 4874   2.432  -0.364   4.271  0.7848  0.0006  0.2943
  181OCTO   H51 4875   2.472  -0.429   4.190  0.2984  0.3732 -0.2549
  181OCTO   H52 4876   2.520  -0.312   4.312  0.5198  0.1693  0.6517
  181OCTO    C6 4877   2.362  -0.451   4.376 -0.2229  0.0161 -0.5755
  181OCTO   H61 4878   2.437  -0.530   4.398 -1.8464 -1.0401  1.5682
  181OCTO   H62 4879   2.355  -0.396   4.472 -0.3986  0.0659 -0.6162
  181OCTO    C7 4880   2.238  -0.530   4.326  0.0583  0.4442 -0.2611
  181OCTO   H71 4881   2.149  -0.464   4.332 -2.0143 -2.2380  0.7997
  181OCTO   H72 4882   2.262  -0.551   4.219  1.3818  0.3435  0.0515
  181OCTO    C8 4883   2.211  -0.656   4.399  0.0620 -0.0332  0.3892
  181OCTO   H81 4884   2.181  -0.649   4.506 -1.6421  0.7165 -0.0951
  181OCTO   H82 4885   2.310  -0.706   4.401  0.7689  1.3214  0.3219
  181OCTO    O1 4886   2.121  -0.735   4.321 -0.4155  0.3411  0.0648
  181OCTO   HO1 4887   2.111  -0.814   4.375 -0.5692  0.0927 -0.3184
  182OCTO    C1 4888   2.559   1.943   0.804  0.0145 -0.2466  0.1854
  182OCTO   H11 4889   2.642   1.895   0.860  1.2577  0.8699 -0.6319
  182OCTO   H12 4890   2.542   2.043   0.849  1.3463  1.7533 -3.3519
  182OCTO   H13 4891   2.472   1.874   0.797 -0.8351  0.4982  2.4874
  182OCTO    C2 4892   2.607   1.985   0.665  0.1333 -0.4477  1.0753
  182OCTO   H21 4893   2.574   2.089   0.644 -0.5561 -1.1426 -1.6693
  182OCTO   H22 4894   2.714   1.968   0.640 -0.4653 -1.4449 -1.0558
  182OCTO    C3 4895   2.541   1.903   0.563  0.6247 -0.3784  0.0812
  182OCTO   H31 4896   2.554   1.798   0.595  0.8811 -0.7141 -1.0626
  182OCTO   H32 4897   2.433   1.923   0.583  0.8788 -0.4051  1.5587
  182OCTO    C4 4898   2.582   1.928   0.412 -0.2878  0.5024 -0.7847
  182OCTO   H41 4899   2.683   1.881   0.401 -1.3389 -1.8107 -1.1381
  182OCTO   H42 4900   2.516   1.876   0.340 -0.0706  1.4302 -1.6806
  182OCTO    C5 4901   2.582   2.073   0.367  0.6777  0.0249 -0.4237
  182OCTO   H51 4902   2.482   2.121   0.378 -0.7493 -3.0688  1.8485
  182OCTO   H52 4903   2.655   2.133   0.426 -0.1880  1.5472 -0.8533
  182OCTO    C6 4904   2.628   2.100   0.221 -0.1019 -0.2664 -0.4396
  182OCTO   H61 4905   2.737   2.123   0.216 -0.2796  0.7002 -0.0580
  182OCTO   H62 4906   2.621   2.009   0.158 -1.0171  0.9302 -2.1516
  182OCTO    C7 4907   2.548   2.206   0.144 -0.4460 -0.5125 -0.4660
  182OCTO   H71 4908   2.439   2.189   0.149 -0.6331  0.6396 -0.1383
  182OCTO   H72 4909   2.572   2.310   0.175 -0.0065 -0.0378 -2.2811
  182OCTO    C8 4910   2.572   2.189  -0.009 -0.8024  0.4766  0.4966
  182OCTO   H81 4911   2.525   2.089  -0.025 -0.1437  0.0667  1.0231
  182OCTO   H82 4912   2.681   2.193  -0.029 -0.8533  0.4007  0.2089
  182OCTO    O1 4913   2.523   2.287  -0.089 -0.6312 -0.5832  0.5843
  182OCTO   HO1 4914   2.540   2.255  -0.178 -0.2101  0.2508  0.3528
  183OCTO    C1 4915   0.523   0.204   2.873 -0.4521 -0.4748 -0.0349
  183OCTO   H11 4916   0.621   0.255   2.857 -1.0327  1.3314  1.8058
  183OCTO   H12 4917   0.536   0.100   2.908 -1.0251 -0.5576 -0.0684
  183OCTO   H13 4918   0.482   0.206   2.770  1.9202 -0.3612 -1.0487
  183OCTO    C2 4919   0.441   0.286   2.973 -0.3244  0.2734  0.2335
  183OCTO   H21 4920   0.445   0.397   2.966 -0.7274  0.2858  0.1334
  183OCTO   H22 4921   0.333   0.260   2.966 -0.2620  0.1593 -0.4174
  183OCTO    C3 4922   0.507   0.269   3.116  0.2410 -0.4301 -0.0448
  183OCTO   H31 4923   0.516   0.159   3.125  2.0703 -0.3261 -0.1428
  183OCTO   H32 4924   0.610   0.311   3.123 -0.0729  0.1477  1.4685
  183OCTO    C4 4925   0.423   0.334   3.235 -0.4886  0.1901 -0.8742
  183OCTO   H41 4926   0.416   0.443   3.215 -2.6788  0.1407 -0.6738
  183OCTO   H42 4927   0.317   0.301   3.231 -0.4582 -0.0222 -0.0495
  183OCTO    C5 4928   0.481   0.324   3.377  0.5339 -0.4123 -0.3410
  183OCTO   H51 4929   0.581   0.371   3.383 -0.1412  1.3986 -2.0836
  183OCTO   H52 4930   0.406   0.383   3.435  1.2323  0.8932 -0.7166
  183OCTO    C6 4931   0.488   0.187   3.433  0.4294 -0.0177  0.0226
  183OCTO   H61 4932   0.389   0.138   3.418  0.8668 -1.4311  1.4922
  183OCTO   H62 4933   0.554   0.124   3.368 -0.3879  1.0397 -1.9310
  183OCTO    C7 4934   0.525   0.169   3.583 -0.2232  1.2123 -0.2637
  183OCTO   H71 4935   0.626   0.215   3.594  0.1857  0.6922 -1.6330
  183OCTO   H72 4936   0.462   0.224   3.656 -1.3715 -0.3806 -0.0100
  183OCTO    C8 4937   0.527   0.020   3.625  0.3520 -0.3254 -0.7358
  183OCTO   H81 4938   0.611  -0.031   3.574  0.1881 -1.5022  0.1307
  183OCTO   H82 4939   0.427  -0.020   3.599 -0.8124  2.0154 -0.1262
  183OCTO    O1 4940   0.531   0.011   3.772 -0.3758 -0.7886  0.2576
  183OCTO   HO1 4941   0.540  -0.083   3.789  0.5749 -0.3726  2.4661
  184OCTO    C1 4942   4.223   4.182   1.113  0.9152 -0.0654  0.6102
  184OCTO   H11 4943   4.285   4.275   1.114 -0.4214  0.8470  1.0413
  184OCTO   H12 4944   4.134   4.194   1.179  1.0207 -1.0400  0.9422
  184OCTO   H13 4945   4.282   4.107   1.170  0.2631 -1.4367 -0.4805
  184OCTO    C2 4946   4.204   4.145   0.966 -0.1672  0.0945 -0.5209
  184OCTO   H21 4947   4.145   4.053   0.951  0.2997 -0.2228 -0.4471
  184OCTO   H22 4948   4.151   4.227   0.914 -0.7524 -0.0735 -0.1933
  184OCTO    C3 4949   4.335   4.127   0.899 -0.2012  0.5763 -0.1928
  184OCTO   H31 4950   4.402   4.205   0.941 -1.2327  1.3146  0.1299
  184OCTO   H32 4951   4.381   4.029   0.922  3.5007  1.5040 -2.6447
  184OCTO    C4 4952   4.340   4.148   0.746  0.0139  0.0051 -0.2611
  184OCTO   H41 4953   4.362   4.054   0.691  1.4598  0.1678 -0.0062
  184OCTO   H42 4954   4.243   4.197   0.722 -0.0507  0.2400  0.4294
  184OCTO    C5 4955   4.453   4.250   0.705  0.4683 -0.3208 -0.0452
  184OCTO   H51 4956   4.436   4.349   0.753  0.5802  0.1130 -0.8936
  184OCTO   H52 4957   4.550   4.214   0.747 -0.1584  1.0835  2.8340
  184OCTO    C6 4958   4.453   4.277   0.556  0.2509 -0.1341  0.9557
  184OCTO   H61 4959   4.455   4.184   0.496 -1.3610  0.0897  0.5102
  184OCTO   H62 4960   4.360   4.325   0.517  0.7500 -0.0833 -0.2111
  184OCTO    C7 4961   4.566   4.379   0.518  0.4722 -0.0861  0.0699
  184OCTO   H71 4962   4.550   4.468   0.583 -1.8424 -0.7809  0.5650
  184OCTO   H72 4963   4.665   4.335   0.542  2.0835  4.0450  1.9358
  184OCTO    C8 4964   4.554   4.431   0.370 -0.2681  0.1529 -0.7480
  184OCTO   H81 4965   4.643   4.496   0.359  0.9795 -1.3205  0.2185
  184OCTO   H82 4966   4.458   4.487   0.367  0.1819  0.9616 -0.5230
  184OCTO    O1 4967   4.550   4.333   0.277  0.1005  0.0900 -0.6598
  184OCTO   HO1 4968   4.543   4.380   0.194  1.0759  2.6732  0.6162
  185OCTO    C1 4969   3.357   2.862   3.438 -0.9830 -0.4751 -0.4236
  185OCTO   H11 4970   3.443   2.798   3.408  0.0858 -0.2459  1.8654
  185OCTO   H12 4971   3.397   2.959   3.475 -0.3007 -1.3998  1.3840
  185OCTO   H13 4972   3.304   2.810   3.521 -2.1470  0.4666 -0.5555
  185OCTO    C2 4973   3.262   2.899   3.329 -0.0537 -0.2458 -0.1363
  185OCTO   H21 4974   3.312   2.976   3.267 -0.9148 -2.8735 -4.4824
  185OCTO   H22 4975   3.241   2.815   3.260  0.8027  1.0348 -2.0500
  185OCTO    C3 4976   3.123   2.950   3.375 -0.6880 -0.2724  0.2543
  185OCTO   H31 4977   3.067   2.863   3.417 -0.3315  0.3051  2.0210
  185OCTO   H32 4978   3.126   3.017   3.464  1.1316 -1.1271  0.9041
  185OCTO    C4 4979   3.041   3.020   3.271  0.1209 -0.5208  0.0951
  185OCTO   H41 4980   2.944   3.055   3.313 -0.0167 -0.4818 -0.2547
  185OCTO   H42 4981   3.096   3.106   3.227 -1.7679  1.0412  0.6326
  185OCTO    C5 4982   3.003   2.929   3.151  0.0654  0.4975 -0.5980
  185OCTO   H51 4983   3.100   2.903   3.104 -0.4099 -1.4927 -0.5379
  185OCTO   H52 4984   2.957   2.836   3.190  2.6614 -1.0002 -0.8409
  185OCTO    C6 4985   2.916   3.006   3.042  0.3622 -0.5548 -0.3052
  185OCTO   H61 4986   2.980   3.089   3.005 -1.9465  1.0292 -0.9333
  185OCTO   H62 4987   2.889   2.942   2.956 -0.9854 -2.1784  1.2453
  185OCTO    C7 4988   2.780   3.069   3.096 -0.4103 -0.4486 -0.3145
  185OCTO   H71 4989   2.713   2.983   3.117 -0.4740 -0.8238 -1.9612
  185OCTO   H72 4990   2.801   3.139   3.180  0.0907 -0.5420 -0.3576
  185OCTO    C8 4991   2.698   3.137   2.991  0.4130  0.4752  0.3011
  185OCTO   H81 4992   2.695   3.067   2.905 -0.3270 -0.5958  1.1792
  185OCTO   H82 4993   2.764   3.223   2.965  1.3492 -0.4944 -0.6481
  185OCTO    O1 4994   2.575   3.179   3.035 -0.6100 -0.4514 -0.2507
  185OCTO   HO1 4995   2.545   3.241   2.968 -0.5469 -0.7287 -0.5362
  186OCTO    C1 4996   1.945   2.601   0.684  0.0252 -0.0322 -0.2663
  186OCTO   H11 4997   1.888   2.685   0.640  0.2667 -1.3192 -3.2590
  186OCTO   H12 4998   1.967   2.622   0.791  1.2744 -1.0292 -0.3069
  186OCTO   H13 4999   2.040   2.591   0.628  1.4944  1.5411  1.8050
  186OCTO    C2 5000   1.874   2.468   0.656 -0.2285  0.6653  0.5957
  186OCTO   H21 5001   1.938   2.380   0.682  0.3535  0.3504 -1.7242
  186OCTO   H22 5002   1.782   2.452   0.716 -0.0025 -2.7800  0.2367
  186OCTO    C3 5003   1.816   2.455   0.515 -0.4054  0.7090  0.2107
  186OCTO   H31 5004   1.719   2.508   0.501  0.3114  1.6220 -1.6609
  186OCTO   H32 5005   1.895   2.484   0.442 -0.2994 -0.6092 -0.2201
  186OCTO    C4 5006   1.781   2.309   0.484 -0.6029  0.5001  0.1201
  186OCTO   H41 5007   1.736   2.312   0.383  1.3787  0.6066 -0.8154
  186OCTO   H42 5008   1.884   2.266   0.483 -1.1489 -0.8475  0.3964
  186OCTO    C5 5009   1.685   2.241   0.574 -0.8384  0.0797  0.4186
  186OCTO   H51 5010   1.732   2.205   0.668 -0.5188  1.8392  0.9621
  186OCTO   H52 5011   1.619   2.321   0.614 -1.9975 -0.4480 -0.3618
  186OCTO    C6 5012   1.601   2.123   0.513  0.5915  0.5061 -0.8542
  186OCTO   H61 5013   1.533   2.151   0.429 -0.9243  0.3729  0.2973
  186OCTO   H62 5014   1.660   2.037   0.474 -1.6955 -1.3681 -0.3954
  186OCTO    C7 5015   1.505   2.069   0.617  0.3047 -0.1217 -0.4121
  186OCTO   H71 5016   1.579   2.025   0.688  0.2293 -0.6798 -0.6679
  186OCTO   H72 5017   1.443   2.142   0.673 -2.1492 -1.8012 -0.7578
  186OCTO    C8 5018   1.419   1.945   0.576 -0.0690  0.2081  0.5467
  186OCTO   H81 5019   1.494   1.882   0.523  1.0935  1.4343  0.6950
  186OCTO   H82 5020   1.338   1.962   0.502  1.3211  0.6412 -0.9405
  186OCTO    O1 5021   1.374   1.876   0.692 -0.1826  0.6091  0.1051
  186OCTO   HO1 5022   1.327   1.797   0.664  0.6913  0.4815 -1.0851
  187OCTO    C1 5023   3.464   2.980   2.963 -0.2141 -0.5116  0.5711
  187OCTO   H11 5024   3.492   2.993   3.070 -0.7558  0.1887  0.6307
  187OCTO   H12 5025   3.380   2.908   2.948 -2.0357  1.3056  1.5621
  187OCTO   H13 5026   3.552   2.947   2.905  0.4254 -0.9408  1.7511
  187OCTO    C2 5027   3.426   3.122   2.924 -0.0845  0.3854  0.1347
  187OCTO   H21 5028   3.520   3.182   2.926  0.5183 -0.5592  0.9697
  187OCTO   H22 5029   3.404   3.118   2.815  3.0045 -1.0894 -0.5596
  187OCTO    C3 5030   3.323   3.197   3.003  0.2162 -0.8236  0.0515
  187OCTO   H31 5031   3.240   3.123   3.005 -0.3479 -0.3159 -2.0970
  187OCTO   H32 5032   3.353   3.224   3.107 -1.3628 -0.2158  0.3783
  187OCTO    C4 5033   3.282   3.327   2.931 -0.3486 -0.0391  0.3980
  187OCTO   H41 5034   3.364   3.401   2.938 -1.7526  1.7282 -1.0055
  187OCTO   H42 5035   3.257   3.306   2.825  1.3144  0.1839 -0.0748
  187OCTO    C5 5036   3.159   3.395   2.999  0.4520  0.4985  0.4470
  187OCTO   H51 5037   3.132   3.484   2.938 -0.6564 -1.6011 -2.2881
  187OCTO   H52 5038   3.070   3.328   2.998  1.6834 -1.2260  1.6667
  187OCTO    C6 5039   3.177   3.428   3.150  0.1603 -0.2825  0.6228
  187OCTO   H61 5040   3.203   3.343   3.218  1.3647  0.1960  0.7904
  187OCTO   H62 5041   3.267   3.491   3.161  0.7031 -1.1713  1.4697
  187OCTO    C7 5042   3.057   3.509   3.199  0.2204  0.7241 -0.1130
  187OCTO   H71 5043   3.088   3.570   3.287  2.4273 -1.1310  0.4713
  187OCTO   H72 5044   3.015   3.576   3.121 -0.4609  0.4007 -0.0370
  187OCTO    C8 5045   2.945   3.415   3.232 -0.3524  0.2563  0.9962
  187OCTO   H81 5046   2.992   3.327   3.280  2.1234  1.4833  0.9567
  187OCTO   H82 5047   2.902   3.376   3.137  0.3362 -1.8559  1.4826
  187OCTO    O1 5048   2.848   3.482   3.315  0.0413 -0.7486 -0.0051
  187OCTO   HO1 5049   2.781   3.420   3.346 -0.1006  0.0832  1.4204
  188OCTO    C1 5050   4.115   1.368   4.213 -0.0217  0.8514  0.3662
  188OCTO   H11 5051   4.026   1.308   4.183 -1.1548  1.6098  2.0508
  188OCTO   H12 5052   4.166   1.388   4.116  1.3883  1.4263  1.1946
  188OCTO   H13 5053   4.177   1.299   4.275 -0.3401 -0.2245 -0.4876
  188OCTO    C2 5054   4.078   1.495   4.280 -0.0440 -0.8182  0.4005
  188OCTO   H21 5055   4.030   1.558   4.202  2.5437  0.0203 -0.6042
  188OCTO   H22 5056   3.993   1.475   4.349  1.5527 -1.5644  2.2268
  188OCTO    C3 5057   4.184   1.566   4.359  0.1352 -0.0228  0.0439
  188OCTO   H31 5058   4.228   1.494   4.431 -1.1151 -1.6013 -0.6925
  188OCTO   H32 5059   4.262   1.596   4.287  0.7139 -2.5093 -0.4578
  188OCTO    C4 5060   4.134   1.706   4.430 -0.2320  0.7591  0.3483
  188OCTO   H41 5061   4.075   1.686   4.521 -0.6019 -1.8675 -0.3970
  188OCTO   H42 5062   4.227   1.762   4.456 -1.1604  1.6769  1.8267
  188OCTO    C5 5063   4.044   1.795   4.344 -0.7661  0.4981 -0.8909
  188OCTO   H51 5064   3.966   1.730   4.298 -0.9857  0.6344 -0.7108
  188OCTO   H52 5065   3.992   1.858   4.419  1.7947  1.1488  0.4224
  188OCTO    C6 5066   4.127   1.879   4.244  0.2827 -0.1086 -0.1842
  188OCTO   H61 5067   4.196   1.951   4.294  1.5027 -0.5063 -1.2391
  188OCTO   H62 5068   4.190   1.814   4.180  1.6009  1.3266 -0.4206
  188OCTO    C7 5069   4.031   1.958   4.153  0.9073  0.6592  1.2091
  188OCTO   H71 5070   4.090   2.039   4.105  1.8367 -1.2840 -1.1495
  188OCTO   H72 5071   3.990   1.889   4.077  1.7334  0.5606  0.8452
  188OCTO    C8 5072   3.914   2.015   4.229  0.0164 -0.0031  0.6735
  188OCTO   H81 5073   3.952   2.052   4.327  1.7157 -1.4299  0.6082
  188OCTO   H82 5074   3.834   1.940   4.246 -0.5699  0.6796  0.9680
  188OCTO    O1 5075   3.862   2.126   4.162  0.2048 -0.4093 -0.0526
  188OCTO   HO1 5076   3.906   2.195   4.212  2.2192 -0.3595 -1.7821
  189OCTO    C1 5077   3.331   2.325   2.023  0.4023 -0.6363 -0.0530
  189OCTO   H11 5078   3.431   2.277   2.024  1.1871  0.7107 -3.1807
  189OCTO   H12 5079   3.320   2.369   1.922  0.9087 -3.9459 -1.6625
  189OCTO   H13 5080   3.322   2.404   2.101 -0.6670 -1.1682  0.3905
  189OCTO    C2 5081   3.228   2.214   2.024 -0.1860 -0.1043 -0.3893
  189OCTO   H21 5082   3.136   2.255   1.977  0.2482  0.0369 -1.1298
  189OCTO   H22 5083   3.256   2.124   1.965 -1.8974 -2.3283  1.9377
  189OCTO    C3 5084   3.206   2.145   2.162  0.6899  0.4246  0.2432
  189OCTO   H31 5085   3.181   2.205   2.252  2.6364  1.5694  0.0788
  189OCTO   H32 5086   3.115   2.084   2.144 -0.2736  1.9865 -0.4844
  189OCTO    C4 5087   3.329   2.059   2.186  0.2865  1.1752  0.0740
  189OCTO   H41 5088   3.338   1.984   2.104 -1.6466  0.4238  0.5019
  189OCTO   H42 5089   3.420   2.122   2.194  1.1763 -0.1939  1.2586
  189OCTO    C5 5090   3.317   1.980   2.314  0.2833  0.3670  0.5480
  189OCTO   H51 5091   3.405   1.913   2.323 -1.2404 -1.5457  2.4395
  189OCTO   H52 5092   3.319   2.049   2.402 -1.8489  0.9208  0.2216
  189OCTO    C6 5093   3.197   1.891   2.324 -0.0587  0.7260 -0.1299
  189OCTO   H61 5094   3.101   1.933   2.287 -1.7562 -2.3138  0.4712
  189OCTO   H62 5095   3.221   1.802   2.261 -0.8089 -0.2491  0.9120
  189OCTO    C7 5096   3.173   1.831   2.465  0.8600  0.3191 -0.4371
  189OCTO   H71 5097   3.262   1.769   2.489  0.0509 -0.2407  1.3107
  189OCTO   H72 5098   3.182   1.916   2.537  0.0500  0.2695 -0.2673
  189OCTO    C8 5099   3.045   1.756   2.482  0.3273  0.5166  0.3428
  189OCTO   H81 5100   3.060   1.653   2.443  1.5383  0.8567 -0.1433
  189OCTO   H82 5101   2.967   1.805   2.419  0.2862 -0.3786 -0.3329
  189OCTO    O1 5102   3.003   1.769   2.612 -1.0537  0.0757  0.2485
  189OCTO   HO1 5103   3.028   1.686   2.653  1.6636  1.2240  1.1546
  190OCTO    C1 5104   4.218   0.590   2.913  0.2837 -0.0937 -0.1238
  190OCTO   H11 5105   4.228   0.693   2.873  2.4330 -0.6722 -1.2021
  190OCTO   H12 5106   4.116   0.559   2.946  0.9196 -2.0275  0.1646
  190OCTO   H13 5107   4.270   0.583   3.011 -1.3941 -0.8929  0.7462
  190OCTO    C2 5108   4.268   0.482   2.815 -0.8086  0.2943  0.4663
  190OCTO   H21 5109   4.273   0.384   2.868 -0.9457 -1.2338 -2.1622
  190OCTO   H22 5110   4.178   0.469   2.752  0.7371  0.2704 -1.8836
  190OCTO    C3 5111   4.395   0.503   2.732 -0.1071  0.2961  0.0183
  190OCTO   H31 5112   4.379   0.595   2.672 -0.8107 -0.1341 -0.4648
  190OCTO   H32 5113   4.477   0.522   2.805 -0.3955 -0.7189  0.6391
  190OCTO    C4 5114   4.446   0.385   2.637  0.2991  0.0321  0.2952
  190OCTO   H41 5115   4.469   0.296   2.699 -1.0187 -0.1538  0.5463
  190OCTO   H42 5116   4.365   0.362   2.563  0.3917 -0.7537  0.4312
  190OCTO    C5 5117   4.571   0.438   2.561  0.1196  0.5510 -0.1555
  190OCTO   H51 5118   4.535   0.529   2.508  1.8276  2.6159  1.9781
  190OCTO   H52 5119   4.645   0.474   2.636 -1.2427 -0.7035  1.8924
  190OCTO    C6 5120   4.631   0.329   2.474 -0.5263 -0.4105  0.0952
  190OCTO   H61 5121   4.717   0.367   2.416 -0.8896  1.0788  0.4745
  190OCTO   H62 5122   4.671   0.247   2.538 -0.4493  1.2871  2.3769
  190OCTO    C7 5123   4.534   0.251   2.378 -0.3402 -0.3196  0.6739
  190OCTO   H71 5124   4.598   0.194   2.307  1.1168  2.7848 -0.7075
  190OCTO   H72 5125   4.465   0.183   2.433 -2.2226  1.5043  0.6974
  190OCTO    C8 5126   4.447   0.343   2.294 -0.7955  0.5520  0.7651
  190OCTO   H81 5127   4.525   0.406   2.247 -0.9419 -0.0324 -0.3100
  190OCTO   H82 5128   4.373   0.409   2.344 -0.0722  1.1029  1.1211
  190OCTO    O1 5129   4.382   0.278   2.183 -0.3534  0.1863 -0.0626
  190OCTO   HO1 5130   4.308   0.238   2.229 -0.2093  1.3815  1.2608
  191OCTO    C1 5131   1.550   2.188   1.066  0.4312  0.5996 -0.5209
  191OCTO   H11 5132   1.591   2.232   1.159 -0.5277 -0.0072  0.2039
  191OCTO   H12 5133   1.439   2.199   1.075  0.3573  1.0006 -1.6753
  191OCTO   H13 5134   1.564   2.079   1.050 -1.3793  0.2546  0.0299
  191OCTO    C2 5135   1.599   2.260   0.945 -0.4193  0.3508  0.0240
  191OCTO   H21 5136   1.706   2.238   0.930 -0.3684  1.7155 -1.8831
  191OCTO   H22 5137   1.550   2.223   0.852 -0.0202  1.7106 -0.7464
  191OCTO    C3 5138   1.578   2.414   0.947  0.3738 -0.7613 -0.1664
  191OCTO   H31 5139   1.613   2.443   1.049 -1.8859  0.8247  0.2403
  191OCTO   H32 5140   1.643   2.477   0.884 -1.8655  2.2215  0.2782
  191OCTO    C4 5141   1.434   2.467   0.928  0.3219 -0.5984 -0.3157
  191OCTO   H41 5142   1.395   2.419   0.836 -0.9308  0.0355 -0.1351
  191OCTO   H42 5143   1.375   2.420   1.009  1.8803 -1.7055  0.2392
  191OCTO    C5 5144   1.426   2.619   0.906  0.5245  0.5004  0.5695
  191OCTO   H51 5145   1.525   2.661   0.876 -1.2915  2.8978 -2.6735
  191OCTO   H52 5146   1.367   2.638   0.814  1.1355 -1.0539 -0.1921
  191OCTO    C6 5147   1.376   2.709   1.021 -0.3353  0.4618 -0.6106
  191OCTO   H61 5148   1.441   2.691   1.109 -0.3176 -0.2395 -0.7584
  191OCTO   H62 5149   1.393   2.815   0.995 -1.2991  1.1919  1.5923
  191OCTO    C7 5150   1.230   2.694   1.066 -0.6767 -0.0194 -0.6181
  191OCTO   H71 5151   1.202   2.587   1.081  1.2860 -0.5970 -0.7614
  191OCTO   H72 5152   1.218   2.763   1.152 -0.0066  1.7667 -1.8865
  191OCTO    C8 5153   1.136   2.729   0.949  0.2373  0.5045 -0.5141
  191OCTO   H81 5154   1.151   2.652   0.869 -1.2251 -1.7189  1.2396
  191OCTO   H82 5155   1.153   2.829   0.904 -2.9548  0.9814 -0.8684
  191OCTO    O1 5156   1.004   2.712   1.002 -0.3411 -0.4021  0.4339
  191OCTO   HO1 5157   0.958   2.785   0.958  0.5173 -1.2126 -1.9267
  192OCTO    C1 5158   3.998   1.862   2.872 -0.2216 -0.8070  0.5470
  192OCTO   H11 5159   4.045   1.949   2.923 -1.2951 -0.3712  0.8098
  192OCTO   H12 5160   4.051   1.772   2.910  0.3207 -0.1863  1.2985
  192OCTO   H13 5161   4.027   1.866   2.764 -0.6959 -0.5730  0.4268
  192OCTO    C2 5162   3.852   1.846   2.899  0.4011  0.1275  0.6333
  192OCTO   H21 5163   3.800   1.944   2.888  1.1249  0.4698  0.2126
  192OCTO   H22 5164   3.809   1.765   2.836  2.0427 -0.3030  0.0218
  192OCTO    C3 5165   3.834   1.801   3.049  0.2593 -0.8304  0.4520
  192OCTO   H31 5166   3.898   1.713   3.070  2.0042 -0.1000 -1.4150
  192OCTO   H32 5167   3.887   1.879   3.108 -0.4752  0.9275 -1.1182
  192OCTO    C4 5168   3.687   1.784   3.085 -0.2537 -0.6766 -0.0862
  192OCTO   H41 5169   3.673   1.774   3.195 -0.8882 -0.4235 -0.1397
  192OCTO   H42 5170   3.639   1.882   3.066  0.3292 -0.5010 -0.6869
  192OCTO    C5 5171   3.612   1.677   3.020  0.5464 -0.2990  0.0965
  192OCTO   H51 5172   3.608   1.706   2.913  2.1412 -0.3082  0.0085
  192OCTO   H52 5173   3.667   1.582   3.035  4.5143  1.8592  0.7991
  192OCTO    C6 5174   3.464   1.660   3.074  0.3935 -0.8174  0.1807
  192OCTO   H61 5175   3.473   1.650   3.185  2.2968 -0.9551  0.0468
  192OCTO   H62 5176   3.414   1.758   3.059  2.0262  0.3308  1.8717
  192OCTO    C7 5177   3.395   1.550   2.997  0.0858 -0.8559 -0.3707
  192OCTO   H71 5178   3.425   1.569   2.892  1.9417  2.3915  0.6388
  192OCTO   H72 5179   3.443   1.455   3.029  2.6969  0.5817  0.2635
  192OCTO    C8 5180   3.240   1.562   3.003 -0.0547  0.0450  0.4830
  192OCTO   H81 5181   3.206   1.498   2.918  1.6815 -0.2290 -0.0590
  192OCTO   H82 5182   3.198   1.664   2.990 -1.1287 -0.1242  2.2957
  192OCTO    O1 5183   3.191   1.510   3.124  0.0940 -0.3835  0.1494
  192OCTO   HO1 5184   3.251   1.435   3.134  0.0636 -0.2249  1.7660
  193OCTO    C1 5185   0.817   1.977   2.186 -0.4645  0.3537  0.3081
  193OCTO   H11 5186   0.808   2.086   2.166 -3.5169  0.5343  1.9554
  193OCTO   H12 5187   0.926   1.962   2.179 -0.3839  1.1253 -0.3350
  193OCTO   H13 5188   0.771   1.922   2.101  1.6686 -2.9087  1.1061
  193OCTO    C2 5189   0.762   1.935   2.317  0.7775 -0.4362 -0.2389
  193OCTO   H21 5190   0.651   1.923   2.315  1.0031 -3.5986  0.0472
  193OCTO   H22 5191   0.794   1.832   2.344  0.4957 -0.4693 -0.0198
  193OCTO    C3 5192   0.792   2.048   2.425  0.0636 -0.1851  0.1157
  193OCTO   H31 5193   0.749   2.144   2.387 -2.4245 -1.6950 -1.1080
  193OCTO   H32 5194   0.732   2.017   2.512  0.3006 -1.0545 -0.0215
  193OCTO    C4 5195   0.945   2.059   2.454 -0.1651  0.1711  0.4510
  193OCTO   H41 5196   1.002   1.964   2.446  1.8272  1.3777 -0.6339
  193OCTO   H42 5197   0.988   2.122   2.373  0.8184 -0.5788  0.3793
  193OCTO    C5 5198   0.963   2.141   2.584  0.6541  0.2871  1.1171
  193OCTO   H51 5199   0.907   2.238   2.586 -0.1730 -0.1851  1.2483
  193OCTO   H52 5200   0.910   2.079   2.659 -2.7897 -0.6192 -1.8008
  193OCTO    C6 5201   1.112   2.169   2.623  0.6929 -0.3453  0.2722
  193OCTO   H61 5202   1.180   2.082   2.638  0.5023 -0.3948  0.9057
  193OCTO   H62 5203   1.160   2.222   2.538 -0.7115  3.6538  1.7428
  193OCTO    C7 5204   1.111   2.268   2.740 -0.7540 -0.2990  0.6257
  193OCTO   H71 5205   1.053   2.356   2.705 -0.3633 -0.2336  0.1298
  193OCTO   H72 5206   1.071   2.223   2.833  4.2584 -0.6629  2.8974
  193OCTO    C8 5207   1.248   2.332   2.793 -0.2756 -0.0979 -0.2854
  193OCTO   H81 5208   1.284   2.397   2.710 -0.9564  2.1878  1.0967
  193OCTO   H82 5209   1.317   2.247   2.811  2.0106  1.6765 -0.1350
  193OCTO    O1 5210   1.228   2.423   2.902  0.1526  0.3877 -0.0451
  193OCTO   HO1 5211   1.296   2.393   2.963  1.0967  0.5990 -0.9568
  194OCTO    C1 5212   3.109   4.308   3.487 -1.2483 -0.3917 -0.0561
  194OCTO   H11 5213   3.070   4.223   3.548 -2.9952  0.0370 -0.5166
  194OCTO   H12 5214   3.046   4.395   3.514 -1.0088 -0.3911  0.5204
  194OCTO   H13 5215   3.078   4.290   3.382 -0.0927 -1.0112 -0.3033
  194OCTO    C2 5216   3.256   4.350   3.495 -0.3416  0.7978 -0.4041
  194OCTO   H21 5217   3.288   4.358   3.601 -0.8797 -1.1420 -0.0551
  194OCTO   H22 5218   3.315   4.264   3.456  1.2440  1.6074  0.1125
  194OCTO    C3 5219   3.291   4.489   3.429 -0.5097  0.5100 -0.1063
  194OCTO   H31 5220   3.285   4.491   3.318 -2.3848  1.9461 -0.0278
  194OCTO   H32 5221   3.216   4.566   3.456 -0.8784  0.7147 -1.6166
  194OCTO    C4 5222   3.435   4.531   3.475  0.1055 -0.3490 -0.0434
  194OCTO   H41 5223   3.422   4.543   3.585 -0.2030 -0.3988 -0.0733
  194OCTO   H42 5224   3.508   4.452   3.450  0.3748  0.1871 -1.0118
  194OCTO    C5 5225   3.492   4.653   3.406 -0.3610 -0.2984  0.1319
  194OCTO   H51 5226   3.597   4.661   3.441 -0.7970 -1.4008  1.8054
  194OCTO   H52 5227   3.504   4.645   3.296 -1.0310 -1.3842  0.1240
  194OCTO    C6 5228   3.420   4.777   3.453 -0.7689 -0.0860 -0.0883
  194OCTO   H61 5229   3.318   4.771   3.412 -0.4670 -2.1180 -0.6514
  194OCTO   H62 5230   3.400   4.771   3.562 -3.6511 -1.2834 -0.6034
  194OCTO    C7 5231   3.484   4.909   3.410  0.4402 -0.7587 -0.0177
  194OCTO   H71 5232   3.594   4.916   3.411  0.4309 -0.6888  0.4110
  194OCTO   H72 5233   3.454   4.914   3.303 -3.1152  0.4467  0.8873
  194OCTO    C8 5234   3.418   5.034   3.469 -0.1087 -0.3587 -0.0928
  194OCTO   H81 5235   3.434   5.054   3.577 -0.7925  1.0888 -0.2380
  194OCTO   H82 5236   3.308   5.028   3.461 -0.3836  1.6801  1.3398
  194OCTO    O1 5237   3.469   5.143   3.393  0.4764  0.0635 -0.2655
  194OCTO   HO1 5238   3.557   5.164   3.426  0.5377  1.5528 -1.2688
  195OCTO    C1 5239   2.717   0.786   0.125 -0.5606  0.4302 -0.2841
  195OCTO   H11 5240   2.730   0.817   0.019  0.2266  1.9147  0.2233
  195OCTO   H12 5241   2.627   0.723   0.142  0.7870 -1.7503 -0.7381
  195OCTO   H13 5242   2.702   0.881   0.180  2.6404  1.7800 -1.4931
  195OCTO    C2 5243   2.841   0.717   0.186 -0.5861 -0.2050  0.9733
  195OCTO   H21 5244   2.851   0.631   0.117  0.6228 -0.9818  2.0760
  195OCTO   H22 5245   2.929   0.783   0.169  0.2780 -1.3674  0.8721
  195OCTO    C3 5246   2.828   0.667   0.332  0.3449 -0.1509  0.3059
  195OCTO   H31 5247   2.930   0.650   0.373 -0.3830  0.3627  2.4637
  195OCTO   H32 5248   2.800   0.754   0.395  1.3173  0.0728  0.4461
  195OCTO    C4 5249   2.742   0.540   0.349  0.1757  0.0347  0.0965
  195OCTO   H41 5250   2.649   0.554   0.291  1.2142  0.2496 -1.5592
  195OCTO   H42 5251   2.796   0.448   0.317 -0.1205 -0.1275  0.0589
  195OCTO    C5 5252   2.710   0.522   0.496 -0.3196  0.1758 -0.0788
  195OCTO   H51 5253   2.796   0.472   0.545 -0.8953 -0.1418  0.6335
  195OCTO   H52 5254   2.700   0.622   0.544  1.6466  0.3536  0.0420
  195OCTO    C6 5255   2.602   0.423   0.528  0.8214  0.2650  0.0207
  195OCTO   H61 5256   2.555   0.459   0.622 -3.1586 -0.0834 -1.6292
  195OCTO   H62 5257   2.518   0.437   0.457 -0.5735  0.3325  1.6001
  195OCTO    C7 5258   2.644   0.283   0.551  0.4098 -1.1762 -0.5903
  195OCTO   H71 5259   2.697   0.238   0.464 -0.6865 -0.8630 -1.4483
  195OCTO   H72 5260   2.706   0.271   0.642 -2.0817 -1.0631  1.2160
  195OCTO    C8 5261   2.530   0.180   0.563  0.2919 -0.2240  0.2851
  195OCTO   H81 5262   2.461   0.197   0.478 -1.1251 -1.3144  1.1769
  195OCTO   H82 5263   2.484   0.192   0.663 -2.2349 -0.1050 -0.8099
  195OCTO    O1 5264   2.581   0.049   0.542 -0.2603 -0.2493 -0.3671
  195OCTO   HO1 5265   2.511  -0.007   0.578 -0.3760  0.0476 -0.1263
  196OCTO    C1 5266   1.218   1.967   2.108 -0.5903  0.2926 -0.1783
  196OCTO   H11 5267   1.226   2.060   2.048 -0.0545  1.3761  1.4997
  196OCTO   H12 5268   1.136   1.900   2.073  0.1101  0.3184 -1.9819
  196OCTO   H13 5269   1.189   2.007   2.208  1.7999  0.5211  0.4857
  196OCTO    C2 5270   1.347   1.888   2.124 -0.0973  0.6032 -0.4251
  196OCTO   H21 5271   1.314   1.799   2.182  2.2554  0.2215  0.4129
  196OCTO   H22 5272   1.373   1.857   2.021 -2.6515  2.4421 -1.7321
  196OCTO    C3 5273   1.466   1.969   2.181  0.0632  0.5738 -0.1734
  196OCTO   H31 5274   1.464   2.044   2.099 -0.7517 -0.2309 -0.9128
  196OCTO   H32 5275   1.442   2.004   2.283 -0.7155 -1.1176  0.2604
  196OCTO    C4 5276   1.581   1.876   2.187 -0.9456 -0.2110 -0.3824
  196OCTO   H41 5277   1.566   1.789   2.254  2.2939 -3.3690 -3.3069
  196OCTO   H42 5278   1.590   1.830   2.086  2.1474 -0.8533  0.0702
  196OCTO    C5 5279   1.707   1.956   2.223 -0.0291  0.0659 -0.1341
  196OCTO   H51 5280   1.721   2.039   2.150  0.8585  0.6316  0.6657
  196OCTO   H52 5281   1.682   2.005   2.319  2.2909 -0.0485  0.5825
  196OCTO    C6 5282   1.834   1.869   2.231 -0.1242 -0.0752 -1.2258
  196OCTO   H61 5283   1.803   1.791   2.304  1.2531 -0.5995 -1.1646
  196OCTO   H62 5284   1.851   1.838   2.126  1.5129 -1.4704 -0.6170
  196OCTO    C7 5285   1.956   1.938   2.298 -0.2044 -0.9887  0.2303
  196OCTO   H71 5286   2.035   1.865   2.326  1.5284  1.0101  0.7760
  196OCTO   H72 5287   2.002   2.013   2.231 -1.3828  1.9551  2.4958
  196OCTO    C8 5288   1.910   2.012   2.422  0.2129 -0.1343 -0.5749
  196OCTO   H81 5289   1.855   1.940   2.486 -1.5573  1.6565  0.0419
  196OCTO   H82 5290   1.847   2.103   2.408 -1.2373 -1.1536 -0.8589
  196OCTO    O1 5291   2.023   2.060   2.482 -0.1542 -0.1611  0.4729
  196OCTO   HO1 5292   2.077   1.986   2.509  1.5865  1.1741  0.8284
  197OCTO    C1 5293   0.191   3.469   0.610 -0.1378  0.6315 -0.1915
  197OCTO   H11 5294   0.292   3.425   0.627 -0.9872 -0.7014  1.7495
  197OCTO   H12 5295   0.125   3.384   0.582  2.4905 -1.4224 -0.5936
  197OCTO   H13 5296   0.214   3.525   0.517  1.0017  0.8003  0.1770
  197OCTO    C2 5297   0.148   3.575   0.718 -0.1765  0.1637 -0.6350
  197OCTO   H21 5298   0.238   3.633   0.749  0.6016 -1.6463  0.6653
  197OCTO   H22 5299   0.090   3.654   0.666  0.5384 -0.9263 -3.2470
  197OCTO    C3 5300   0.067   3.523   0.839  0.6204 -0.4853 -0.1384
  197OCTO   H31 5301  -0.026   3.479   0.796  0.4505 -0.9578  0.7008
  197OCTO   H32 5302   0.128   3.446   0.890 -1.0786 -1.9254 -0.1686
  197OCTO    C4 5303   0.042   3.629   0.942  0.2845 -0.2397 -0.2693
  197OCTO   H41 5304   0.007   3.576   1.033  2.0016 -0.1260  0.4932
  197OCTO   H42 5305   0.141   3.670   0.973  0.5253 -1.5609  0.8318
  197OCTO    C5 5306  -0.037   3.753   0.904  0.0505  0.3345  0.3173
  197OCTO   H51 5307  -0.040   3.811   0.998 -0.8086  1.6609 -0.5033
  197OCTO   H52 5308   0.015   3.809   0.823  1.3188 -0.8889  0.2455
  197OCTO    C6 5309  -0.177   3.708   0.856 -0.0521 -0.1023  0.1453
  197OCTO   H61 5310  -0.156   3.673   0.753 -2.6033 -1.3206 -0.0417
  197OCTO   H62 5311  -0.215   3.630   0.925 -0.0341 -0.5486 -0.3410
  197OCTO    C7 5312  -0.272   3.831   0.845 -0.4108 -0.0328  0.0181
  197OCTO   H71 5313  -0.309   3.866   0.943 -1.1079 -1.2376  0.2024
  197OCTO   H72 5314  -0.216   3.915   0.799  1.9004 -0.6088  1.5943
  197OCTO    C8 5315  -0.385   3.803   0.752 -0.6787  0.0871  0.2789
  197OCTO   H81 5316  -0.442   3.713   0.782 -2.2635  0.8839 -0.2557
  197OCTO   H82 5317  -0.341   3.787   0.651 -0.6939  1.8937 -0.0453
  197OCTO    O1 5318  -0.471   3.913   0.743 -0.1490  0.0888 -0.4894
  197OCTO   HO1 5319  -0.559   3.880   0.724 -1.0401  0.7456  2.1829
  198OCTO    C1 5320   3.613   0.148   0.193  0.2853 -0.1791 -0.3786
  198OCTO   H11 5321   3.556   0.234   0.232 -0.0719  0.0289 -1.3380
  198OCTO   H12 5322   3.711   0.189   0.158  0.9567 -1.5890 -0.2394
  198OCTO   H13 5323   3.552   0.109   0.109 -0.5098  1.7086 -0.7306
  198OCTO    C2 5324   3.632   0.039   0.303  0.0957 -0.3707  0.7358
  198OCTO   H21 5325   3.714  -0.023   0.263  0.2908 -0.5280  1.3780
  198OCTO   H22 5326   3.659   0.084   0.401 -1.0049  0.0754  0.8493
  198OCTO    C3 5327   3.509  -0.051   0.321  0.1052 -0.6035  0.1258
  198OCTO   H31 5328   3.422   0.004   0.365 -1.6727 -3.8246  0.9298
  198OCTO   H32 5329   3.482  -0.083   0.218  2.2771 -2.3971  0.0472
  198OCTO    C4 5330   3.535  -0.178   0.398  0.3636 -0.0484 -0.0367
  198OCTO   H41 5331   3.644  -0.178   0.421  0.9202  1.6647 -2.3328
  198OCTO   H42 5332   3.489  -0.178   0.499  1.7867 -0.1546  0.6405
  198OCTO    C5 5333   3.508  -0.311   0.320 -0.3865  0.0714  0.2366
  198OCTO   H51 5334   3.412  -0.339   0.369 -0.4424  1.5498  1.0185
  198OCTO   H52 5335   3.500  -0.285   0.213 -2.6410 -0.4287  0.2331
  198OCTO    C6 5336   3.629  -0.414   0.342  0.2684  0.3919 -0.0675
  198OCTO   H61 5337   3.622  -0.507   0.282 -0.8480  0.3938  0.0265
  198OCTO   H62 5338   3.718  -0.357   0.310  0.4046  0.7517  0.9027
  198OCTO    C7 5339   3.638  -0.460   0.488 -0.1246  0.2990 -0.6579
  198OCTO   H71 5340   3.733  -0.518   0.497  0.9715  2.0832 -0.1591
  198OCTO   H72 5341   3.659  -0.371   0.550 -2.3215  3.0572 -3.5412
  198OCTO    C8 5342   3.512  -0.533   0.543  0.7340 -0.4651 -0.5068
  198OCTO   H81 5343   3.504  -0.627   0.484  1.7050  0.5755 -2.3953
  198OCTO   H82 5344   3.424  -0.467   0.532  0.4012 -1.0479 -1.4497
  198OCTO    O1 5345   3.538  -0.573   0.681 -0.5139  0.2421 -0.1112
  198OCTO   HO1 5346   3.608  -0.638   0.672 -0.0441  0.8061 -0.5567
  199OCTO    C1 5347   2.392   3.386   1.640 -0.0600 -0.3611  0.5323
  199OCTO   H11 5348   2.398   3.306   1.717  1.0810  0.6086  1.4893
  199OCTO   H12 5349   2.392   3.486   1.689 -0.8886 -0.4014  0.6338
  199OCTO   H13 5350   2.297   3.367   1.585  0.3981 -1.3340  0.0601
  199OCTO    C2 5351   2.524   3.375   1.557  0.5977  0.0363  0.2588
  199OCTO   H21 5352   2.613   3.385   1.623  0.3439 -2.0280  1.0217
  199OCTO   H22 5353   2.528   3.273   1.512  0.2778  1.4162 -3.1630
  199OCTO    C3 5354   2.541   3.476   1.453  0.1340 -0.2151 -0.2329
  199OCTO   H31 5355   2.451   3.493   1.390  0.8559  2.0263 -0.7433
  199OCTO   H32 5356   2.550   3.579   1.495  0.2369 -0.4460  0.3133
  199OCTO    C4 5357   2.665   3.447   1.364 -0.5382 -0.5398 -0.7346
  199OCTO   H41 5358   2.680   3.538   1.303  0.7476  0.3841  0.8611
  199OCTO   H42 5359   2.761   3.445   1.421 -0.7480  1.4937 -0.2168
  199OCTO    C5 5360   2.652   3.315   1.284  0.0195  0.0744  0.2173
  199OCTO   H51 5361   2.742   3.309   1.219 -0.4794  1.0845 -0.6064
  199OCTO   H52 5362   2.648   3.223   1.346 -1.3058 -0.3982 -0.5467
  199OCTO    C6 5363   2.521   3.304   1.213  0.1899 -0.8594 -0.2079
  199OCTO   H61 5364   2.434   3.279   1.277 -1.2733  0.0155 -1.7551
  199OCTO   H62 5365   2.494   3.396   1.156 -1.5908 -0.6316  0.9225
  199OCTO    C7 5366   2.520   3.197   1.102  0.2304 -0.0422 -0.9501
  199OCTO   H71 5367   2.589   3.231   1.022  2.5305  0.4270  1.1055
  199OCTO   H72 5368   2.548   3.095   1.136  1.4932  0.3831 -0.6741
  199OCTO    C8 5369   2.375   3.190   1.046  0.1848  0.2117 -0.2417
  199OCTO   H81 5370   2.302   3.164   1.125 -1.3758  0.9933 -1.3606
  199OCTO   H82 5371   2.380   3.114   0.964  2.8785  0.0740 -0.0331
  199OCTO    O1 5372   2.330   3.307   0.986 -0.1624 -0.7006  0.0392
  199OCTO   HO1 5373   2.330   3.372   1.057 -1.1574  0.4582 -0.9669
  200OCTO    C1 5374   3.443   0.285   2.768  0.8209 -0.5646 -0.3339
  200OCTO   H11 5375   3.349   0.306   2.823  1.8297 -1.5878  1.8957
  200OCTO   H12 5376   3.433   0.188   2.715  0.9282 -0.4844 -0.5024
  200OCTO   H13 5377   3.530   0.293   2.836  0.7629  2.3430 -0.4718
  200OCTO    C2 5378   3.453   0.392   2.647 -0.0727 -0.1292 -0.4017
  200OCTO   H21 5379   3.499   0.487   2.681 -0.4909 -0.2082  0.4219
  200OCTO   H22 5380   3.518   0.356   2.564 -1.5509 -1.8047 -0.9077
  200OCTO    C3 5381   3.321   0.427   2.579  0.4890  0.3198  0.4303
  200OCTO   H31 5382   3.339   0.504   2.501  1.4546  1.1675  1.4578
  200OCTO   H32 5383   3.266   0.340   2.536 -1.7764  1.2646  1.2730
  200OCTO    C4 5384   3.217   0.487   2.676 -0.5263 -0.0577 -0.0441
  200OCTO   H41 5385   3.182   0.409   2.746 -0.9205 -0.0454 -0.2229
  200OCTO   H42 5386   3.280   0.568   2.718  2.0433 -2.3560  0.8378
  200OCTO    C5 5387   3.096   0.561   2.617 -0.0754  0.6922 -0.4655
  200OCTO   H51 5388   3.118   0.645   2.548  1.3728  1.5981  1.0453
  200OCTO   H52 5389   3.040   0.494   2.547 -1.9076  2.7724 -1.0991
  200OCTO    C6 5390   2.987   0.612   2.709 -0.1138 -0.3482 -0.1725
  200OCTO   H61 5391   2.947   0.525   2.765  1.6958 -2.2290 -1.6499
  200OCTO   H62 5392   3.030   0.692   2.773 -2.4903  1.4595 -0.6973
  200OCTO    C7 5393   2.872   0.687   2.630  0.2694  0.0621  0.1710
  200OCTO   H71 5394   2.851   0.624   2.542  3.7486 -2.6046  1.0664
  200OCTO   H72 5395   2.786   0.697   2.701  0.7420 -0.0792  0.7721
  200OCTO    C8 5396   2.923   0.821   2.578  0.6992 -0.4277  0.1546
  200OCTO   H81 5397   3.013   0.807   2.514  2.7609  1.4892  2.3804
  200OCTO   H82 5398   2.956   0.888   2.661 -1.2914  0.4418  0.2901
  200OCTO    O1 5399   2.825   0.883   2.507  0.2838  0.1567  0.4172
  200OCTO   HO1 5400   2.856   0.966   2.471  1.1179 -0.7027 -0.9129
  201OCTO    C1 5401   1.971   0.006   3.281 -0.4106  0.1643  0.1811
  201OCTO   H11 5402   2.056  -0.026   3.344 -2.0654 -0.4054  2.2528
  201OCTO   H12 5403   1.968  -0.072   3.201  0.0072  0.3078  0.0237
  201OCTO   H13 5404   1.993   0.095   3.218  2.0189 -1.1410 -0.9509
  201OCTO    C2 5405   1.840   0.006   3.359  0.5518 -0.1816  0.3307
  201OCTO   H21 5406   1.846   0.072   3.448 -2.1427  0.2446  0.2956
  201OCTO   H22 5407   1.755   0.040   3.296  0.4323 -0.7799  0.1607
  201OCTO    C3 5408   1.805  -0.135   3.413 -0.4115 -0.2066 -0.3321
  201OCTO   H31 5409   1.711  -0.131   3.472  0.2960 -0.7385  0.8664
  201OCTO   H32 5410   1.775  -0.197   3.326 -0.6379  1.3328 -1.3896
  201OCTO    C4 5411   1.910  -0.217   3.499  0.0503  0.1639 -0.1386
  201OCTO   H41 5412   1.882  -0.323   3.480 -1.2729  0.3809  0.5189
  201OCTO   H42 5413   2.017  -0.201   3.474 -0.0234 -1.7863 -1.9721
  201OCTO    C5 5414   1.880  -0.187   3.646  0.1453  0.0448 -0.3762
  201OCTO   H51 5415   1.904  -0.081   3.672  2.4128 -0.8589  1.7350
  201OCTO   H52 5416   1.774  -0.218   3.645  0.6925 -1.9225 -0.8018
  201OCTO    C6 5417   1.963  -0.278   3.729 -0.0312 -0.8266 -0.3956
  201OCTO   H61 5418   1.937  -0.384   3.709 -4.0846  0.0287 -0.4505
  201OCTO   H62 5419   2.071  -0.260   3.710 -0.3052  0.8069 -0.5269
  201OCTO    C7 5420   1.933  -0.253   3.878  0.2583 -0.3080  0.4832
  201OCTO   H71 5421   1.984  -0.162   3.917  1.1569 -1.1411  1.3322
  201OCTO   H72 5422   1.823  -0.242   3.888  0.0696 -2.3701  1.1609
  201OCTO    C8 5423   1.963  -0.367   3.972 -0.3192  1.2275  0.1603
  201OCTO   H81 5424   2.071  -0.394   3.976 -0.6492 -0.7459 -2.1092
  201OCTO   H82 5425   1.914  -0.462   3.940 -1.6832  0.5382  3.7939
  201OCTO    O1 5426   1.912  -0.340   4.103 -0.0025  0.1052 -0.6765
  201OCTO   HO1 5427   1.919  -0.417   4.160  1.1040 -0.2216 -1.2348
  202OCTO    C1 5428   1.562   3.721   2.767 -0.2086  0.4509 -0.1942
  202OCTO   H11 5429   1.666   3.759   2.782 -0.4608  1.0106  0.1526
  202OCTO   H12 5430   1.526   3.761   2.670  1.6082 -2.2138 -2.1010
  202OCTO   H13 5431   1.523   3.747   2.868  0.0689  0.3815 -0.0679
  202OCTO    C2 5432   1.579   3.570   2.751  0.2699  0.3317  0.1919
  202OCTO   H21 5433   1.660   3.544   2.680 -0.1847 -1.1437  0.1774
  202OCTO   H22 5434   1.606   3.515   2.844 -0.0582  0.6371  0.4708
  202OCTO    C3 5435   1.446   3.526   2.684 -0.6665  0.1361 -0.1285
  202OCTO   H31 5436   1.356   3.532   2.749 -1.0630 -2.3376 -0.3266
  202OCTO   H32 5437   1.432   3.591   2.595  1.3365 -0.3726 -0.8668
  202OCTO    C4 5438   1.443   3.375   2.647  0.0799  0.0972  0.1744
  202OCTO   H41 5439   1.530   3.348   2.583 -0.5707  1.6763 -1.4527
  202OCTO   H42 5440   1.442   3.322   2.745  1.3497  1.1035  0.7710
  202OCTO    C5 5441   1.315   3.350   2.571 -0.2928 -0.9264 -0.1685
  202OCTO   H51 5442   1.229   3.370   2.638  1.3934 -1.0916  2.1663
  202OCTO   H52 5443   1.314   3.428   2.492 -0.7223 -1.1818 -0.4194
  202OCTO    C6 5444   1.288   3.211   2.500  0.0889 -0.5722 -0.4023
  202OCTO   H61 5445   1.362   3.203   2.418 -0.1930 -1.3396 -0.5829
  202OCTO   H62 5446   1.314   3.134   2.576  1.7217  1.2249  0.9574
  202OCTO    C7 5447   1.146   3.203   2.448 -0.0981  0.0866  0.1830
  202OCTO   H71 5448   1.070   3.252   2.512 -1.8457 -1.5658 -0.5120
  202OCTO   H72 5449   1.141   3.267   2.358  0.4231  0.6806  0.5674
  202OCTO    C8 5450   1.093   3.062   2.439 -0.3888 -0.3054  0.0330
  202OCTO   H81 5451   1.091   3.024   2.544 -0.2754 -0.1889  0.0780
  202OCTO   H82 5452   1.175   2.998   2.401 -1.2122 -1.8344  0.7436
  202OCTO    O1 5453   0.972   3.059   2.364  0.7815 -0.4683 -0.1821
  202OCTO   HO1 5454   1.001   3.020   2.281  1.9503  0.1928 -0.1089
  203OCTO    C1 5455   3.110   0.125   1.608  0.1380 -0.0264  0.2346
  203OCTO   H11 5456   3.114   0.101   1.716  1.6920  0.1428  0.2309
  203OCTO   H12 5457   3.214   0.147   1.576 -0.5326  0.8561 -1.4970
  203OCTO   H13 5458   3.055   0.221   1.600  1.0068  0.7558  2.8749
  203OCTO    C2 5459   3.041   0.017   1.529  0.0078 -0.5127  1.0127
  203OCTO   H21 5460   2.934   0.032   1.551 -0.0599 -1.3299  1.2804
  203OCTO   H22 5461   3.066   0.029   1.422 -0.0802 -3.7734  0.5128
  203OCTO    C3 5462   3.083  -0.128   1.564  0.0675  0.3548  0.9725
  203OCTO   H31 5463   3.187  -0.131   1.524 -0.8751  2.0843 -1.9002
  203OCTO   H32 5464   3.080  -0.155   1.672 -1.8596  0.7805  1.0535
  203OCTO    C4 5465   3.000  -0.230   1.488 -0.0810 -0.0908  0.1325
  203OCTO   H41 5466   2.893  -0.205   1.501  0.2307  1.3731  0.0844
  203OCTO   H42 5467   3.013  -0.223   1.377 -0.9003 -1.1235 -0.0461
  203OCTO    C5 5468   3.026  -0.373   1.533 -0.3094  0.0418 -0.2546
  203OCTO   H51 5469   3.134  -0.388   1.511 -0.4324  0.6489 -1.3326
  203OCTO   H52 5470   3.009  -0.380   1.643 -1.7738  0.2011 -0.4471
  203OCTO    C6 5471   2.940  -0.483   1.472 -1.1235 -0.5276 -0.0829
  203OCTO   H61 5472   2.910  -0.458   1.368  0.6732  1.4289 -0.2169
  203OCTO   H62 5473   3.011  -0.568   1.464 -1.1996 -0.4006 -3.5946
  203OCTO    C7 5474   2.830  -0.520   1.575 -0.2619  0.3166 -0.2815
  203OCTO   H71 5475   2.779  -0.608   1.532  0.9479 -0.4730 -0.1432
  203OCTO   H72 5476   2.876  -0.554   1.670 -2.3993  1.5291  1.2569
  203OCTO    C8 5477   2.727  -0.409   1.593 -0.7290 -0.3368  0.7747
  203OCTO   H81 5478   2.697  -0.373   1.493  1.6601  2.5490  0.9725
  203OCTO   H82 5479   2.774  -0.324   1.646 -0.5975  0.6353 -0.8595
  203OCTO    O1 5480   2.609  -0.453   1.661 -0.0872  0.2339 -0.0855
  203OCTO   HO1 5481   2.629  -0.451   1.755 -0.4920 -0.1279  0.0076
  204OCTO    C1 5482   0.643   2.388   2.299  0.1552  0.2147 -0.2044
  204OCTO   H11 5483   0.656   2.488   2.252  0.5621  0.3917  0.2797
  204OCTO   H12 5484   0.575   2.395   2.387  0.8341 -0.1408  0.3623
  204OCTO   H13 5485   0.747   2.359   2.325  0.5356  0.0901 -1.7666
  204OCTO    C2 5486   0.587   2.288   2.201  0.1327  0.7876 -0.2183
  204OCTO   H21 5487   0.658   2.275   2.116 -3.5144  0.5720 -3.5354
  204OCTO   H22 5488   0.596   2.187   2.247  1.3523  0.6024 -0.8276
  204OCTO    C3 5489   0.443   2.320   2.157  0.6099  1.1442 -0.4838
  204OCTO   H31 5490   0.430   2.430   2.152 -2.3769  1.0890  2.3543
  204OCTO   H32 5491   0.426   2.276   2.057 -1.1393  1.7072 -0.4681
  204OCTO    C4 5492   0.350   2.238   2.248  0.0379 -0.4042 -0.1805
  204OCTO   H41 5493   0.380   2.138   2.209  2.4217 -0.5296  1.7908
  204OCTO   H42 5494   0.387   2.242   2.352  1.1393 -0.2990 -0.5560
  204OCTO    C5 5495   0.207   2.272   2.206 -0.1900 -0.4731 -0.5221
  204OCTO   H51 5496   0.180   2.377   2.232 -0.5582 -0.2961 -1.5612
  204OCTO   H52 5497   0.196   2.272   2.095  0.1987  1.4965 -0.6041
  204OCTO    C6 5498   0.104   2.181   2.277  0.1698  0.1933 -0.2959
  204OCTO   H61 5499   0.128   2.077   2.250  2.2613  0.3054  0.9490
  204OCTO   H62 5500   0.134   2.207   2.381  2.4008  0.3308 -0.9323
  204OCTO    C7 5501  -0.048   2.214   2.253 -0.7034  0.9756  0.6773
  204OCTO   H71 5502  -0.073   2.201   2.145  2.0772  0.2053  0.0421
  204OCTO   H72 5503  -0.108   2.152   2.323  1.3890  0.9559  2.5559
  204OCTO    C8 5504  -0.089   2.351   2.294  0.2571 -0.2847 -0.1750
  204OCTO   H81 5505  -0.045   2.433   2.233 -1.1424  0.4423 -0.2444
  204OCTO   H82 5506  -0.064   2.373   2.400 -0.8460  1.8889 -0.3144
  204OCTO    O1 5507  -0.232   2.367   2.278  0.0013  0.4980  0.2790
  204OCTO   HO1 5508  -0.251   2.453   2.316  1.8665  1.4773 -0.8480
  205OCTO    C1 5509   2.276   1.547   4.195  1.2546  0.5335 -0.4085
  205OCTO   H11 5510   2.290   1.647   4.149  2.1354  0.8176  0.4340
  205OCTO   H12 5511   2.167   1.523   4.199  1.3632  0.1803  1.2081
  205OCTO   H13 5512   2.325   1.522   4.292  0.9911  1.1564 -0.1144
  205OCTO    C2 5513   2.337   1.446   4.084 -0.1472 -0.7692  0.3936
  205OCTO   H21 5514   2.445   1.471   4.078 -0.9311  3.0998  0.3215
  205OCTO   H22 5515   2.334   1.349   4.139 -1.2808 -2.0165 -1.7346
  205OCTO    C3 5516   2.273   1.455   3.950 -0.3009 -0.2354  0.2256
  205OCTO   H31 5517   2.164   1.469   3.967 -0.7280 -1.8982 -0.9540
  205OCTO   H32 5518   2.306   1.528   3.874 -1.6168  0.1053 -0.0561
  205OCTO    C4 5519   2.276   1.326   3.864  0.2500  0.4728 -0.2145
  205OCTO   H41 5520   2.275   1.233   3.924  3.9051  0.9737  0.8819
  205OCTO   H42 5521   2.200   1.342   3.784 -0.6781  0.9252  0.7393
  205OCTO    C5 5522   2.410   1.310   3.791  0.0314  0.2879  0.4749
  205OCTO   H51 5523   2.417   1.390   3.715  0.7453  0.9341  1.2085
  205OCTO   H52 5524   2.490   1.333   3.865 -2.1966  4.0320  2.0073
  205OCTO    C6 5525   2.440   1.170   3.717  0.5700 -0.0442 -0.4198
  205OCTO   H61 5526   2.451   1.092   3.796 -1.9045 -1.6181 -1.5161
  205OCTO   H62 5527   2.354   1.146   3.651 -0.8045  4.2562 -0.5409
  205OCTO    C7 5528   2.574   1.164   3.642 -0.0235  0.2711  0.3957
  205OCTO   H71 5529   2.575   1.235   3.556 -1.3982 -1.7574 -1.4077
  205OCTO   H72 5530   2.660   1.180   3.709  0.6008 -0.7080 -0.1655
  205OCTO    C8 5531   2.593   1.032   3.563  0.5336  0.1198 -0.2932
  205OCTO   H81 5532   2.493   1.006   3.522 -0.0984  0.3398  1.0471
  205OCTO   H82 5533   2.609   0.940   3.624  1.1173 -0.0194 -0.6510
  205OCTO    O1 5534   2.686   1.060   3.460  0.0314 -0.0338  0.1022
  205OCTO   HO1 5535   2.723   0.980   3.421  0.8848 -1.4741  3.4701
  206OCTO    C1 5536   1.990   2.650   3.142 -0.5380 -1.0838 -0.2918
  206OCTO   H11 5537   2.011   2.671   3.034 -0.3857 -0.4845 -0.1500
  206OCTO   H12 5538   1.899   2.587   3.140 -0.5996 -0.9839 -1.1420
  206OCTO   H13 5539   1.976   2.742   3.202 -0.8354 -1.1194 -0.3085
  206OCTO    C2 5540   2.105   2.566   3.194 -0.3510 -0.4228  0.2203
  206OCTO   H21 5541   2.088   2.460   3.164  2.2769 -0.5326 -1.1820
  206OCTO   H22 5542   2.206   2.598   3.161 -1.6095  2.4805 -1.2273
  206OCTO    C3 5543   2.114   2.553   3.347 -0.0367 -0.1811  0.1881
  206OCTO   H31 5544   2.121   2.659   3.381  1.8340  0.4413 -1.8801
  206OCTO   H32 5545   2.017   2.520   3.389 -0.1753  1.5179  1.2999
  206OCTO    C4 5546   2.235   2.479   3.398  0.8279 -0.0024 -0.1407
  206OCTO   H41 5547   2.217   2.372   3.372 -4.5962  0.5457  0.3305
  206OCTO   H42 5548   2.327   2.515   3.347 -0.1954 -0.1719 -2.1844
  206OCTO    C5 5549   2.257   2.486   3.543 -0.2862 -0.1245  0.1981
  206OCTO   H51 5550   2.172   2.438   3.596  0.5167  1.8114  3.5389
  206OCTO   H52 5551   2.340   2.422   3.582 -0.5886  0.3240  1.6383
  206OCTO    C6 5552   2.289   2.631   3.595 -0.2114  0.5301  0.3465
  206OCTO   H61 5553   2.357   2.673   3.518 -1.4722  0.9360 -0.5974
  206OCTO   H62 5554   2.200   2.698   3.601 -1.2793 -0.8896  1.0593
  206OCTO    C7 5555   2.347   2.629   3.731  0.2910 -0.0161 -0.3011
  206OCTO   H71 5556   2.259   2.606   3.795  0.1196 -2.7746 -1.4019
  206OCTO   H72 5557   2.415   2.543   3.749  0.1177 -0.3744 -1.3173
  206OCTO    C8 5558   2.411   2.762   3.778 -0.2846  0.0115 -0.5332
  206OCTO   H81 5559   2.346   2.849   3.755 -1.4136 -0.5933  0.2987
  206OCTO   H82 5560   2.506   2.773   3.720 -0.8761 -0.6558 -1.6671
  206OCTO    O1 5561   2.440   2.750   3.916  0.2177  0.1063  0.3512
  206OCTO   HO1 5562   2.465   2.840   3.940  2.3306  0.1031 -1.5174
  207OCTO    C1 5563   1.687   2.739   3.601  0.5541  0.2885 -0.1629
  207OCTO   H11 5564   1.730   2.841   3.585  0.4823  0.0942 -1.7533
  207OCTO   H12 5565   1.637   2.756   3.699 -2.1045 -0.2562 -1.3606
  207OCTO   H13 5566   1.777   2.676   3.619  1.1310  1.6838  2.4050
  207OCTO    C2 5567   1.591   2.694   3.498 -0.2738 -0.1150  0.0322
  207OCTO   H21 5568   1.558   2.592   3.527  1.5498 -0.3930  1.3158
  207OCTO   H22 5569   1.499   2.756   3.504 -0.4511 -0.4830  1.8869
  207OCTO    C3 5570   1.653   2.697   3.359  0.0471  0.5686 -0.4840
  207OCTO   H31 5571   1.713   2.788   3.340  0.3815  1.0914  2.5841
  207OCTO   H32 5572   1.726   2.614   3.352 -0.2900  0.0407  1.5445
  207OCTO    C4 5573   1.550   2.678   3.249 -1.3233 -0.5741 -0.2527
  207OCTO   H41 5574   1.483   2.591   3.266  1.3857 -2.5456  1.1686
  207OCTO   H42 5575   1.486   2.767   3.233  0.3706  0.2142 -4.0301
  207OCTO    C5 5576   1.632   2.650   3.118  0.7226  0.4248 -0.7157
  207OCTO   H51 5577   1.704   2.731   3.094  0.8983  0.1191 -1.2329
  207OCTO   H52 5578   1.682   2.553   3.141 -1.9413 -0.3948  2.2893
  207OCTO    C6 5579   1.539   2.638   3.001  0.5200 -0.5661 -0.1576
  207OCTO   H61 5580   1.581   2.576   2.919 -2.3844  0.1876 -2.3969
  207OCTO   H62 5581   1.443   2.593   3.033 -0.5235 -1.6147 -4.1735
  207OCTO    C7 5582   1.495   2.778   2.940 -0.7996  0.1396  0.2532
  207OCTO   H71 5583   1.446   2.830   3.024  2.1182  0.9900  1.5607
  207OCTO   H72 5584   1.588   2.831   2.906 -0.4293 -1.2262 -0.9876
  207OCTO    C8 5585   1.403   2.759   2.820  0.1509  0.7798  0.2233
  207OCTO   H81 5586   1.320   2.688   2.839 -0.2213  1.3557  0.8210
  207OCTO   H82 5587   1.459   2.724   2.732  1.9758  1.3141  1.1119
  207OCTO    O1 5588   1.344   2.881   2.778  0.0259  0.2459 -0.3285
  207OCTO   HO1 5589   1.271   2.905   2.836 -0.4000 -3.6682  1.0741
  208OCTO    C1 5590   1.572   0.453   0.298 -0.4072  0.1971  0.3950
  208OCTO   H11 5591   1.659   0.431   0.232  1.7772  1.0421  2.8274
  208OCTO   H12 5592   1.480   0.394   0.278 -0.5777 -0.4019  2.6659
  208OCTO   H13 5593   1.542   0.559   0.290 -0.5069  0.2646  1.5711
  208OCTO    C2 5594   1.626   0.415   0.435 -0.2028 -0.1592 -0.2345
  208OCTO   H21 5595   1.549   0.443   0.510  1.1723  1.2054  0.7307
  208OCTO   H22 5596   1.657   0.309   0.426 -0.6755 -0.1101 -5.1161
  208OCTO    C3 5597   1.750   0.490   0.481 -0.3569 -0.0532 -0.9645
  208OCTO   H31 5598   1.820   0.494   0.394  0.1352  1.7837 -0.5259
  208OCTO   H32 5599   1.717   0.595   0.494 -2.4872 -0.4138 -2.8992
  208OCTO    C4 5600   1.826   0.442   0.607 -0.7664 -0.1360  0.3917
  208OCTO   H41 5601   1.762   0.461   0.696 -0.3776 -0.4263  0.7301
  208OCTO   H42 5602   1.838   0.334   0.588 -0.7702 -0.5164  2.3311
  208OCTO    C5 5603   1.967   0.510   0.617 -0.5909  0.0104 -0.5018
  208OCTO   H51 5604   2.028   0.473   0.532  1.5217  0.1768  0.8555
  208OCTO   H52 5605   1.947   0.619   0.608 -0.8304  0.0752  0.6425
  208OCTO    C6 5606   2.042   0.476   0.745 -0.1149  0.6226  0.4006
  208OCTO   H61 5607   1.975   0.480   0.834  0.5210 -1.2357  1.0099
  208OCTO   H62 5608   2.085   0.374   0.743  0.9867  1.0428  1.4305
  208OCTO    C7 5609   2.160   0.571   0.782  0.2879  0.1905 -0.2119
  208OCTO   H71 5610   2.203   0.530   0.876  1.4020 -0.7991 -1.1325
  208OCTO   H72 5611   2.238   0.561   0.704  0.7603 -1.7897  0.4461
  208OCTO    C8 5612   2.128   0.716   0.811  0.7184  0.0752  0.1072
  208OCTO   H81 5613   2.087   0.723   0.914  3.4043 -0.7646  1.3113
  208OCTO   H82 5614   2.049   0.757   0.744  1.3776  1.7814  0.3299
  208OCTO    O1 5615   2.241   0.796   0.796 -0.6838 -0.2437 -0.7495
  208OCTO   HO1 5616   2.218   0.875   0.846 -0.4342 -1.9334  2.2272
  209OCTO    C1 5617   2.086   1.116   1.706 -0.2184 -0.0463  0.1118
  209OCTO   H11 5618   1.993   1.093   1.651 -1.9080 -0.5608  2.9953
  209OCTO   H12 5619   2.160   1.064   1.640  0.0299 -0.1302  0.4487
  209OCTO   H13 5620   2.084   1.045   1.792  0.8424  0.3972  0.5246
  209OCTO    C2 5621   2.118   1.264   1.728 -0.0146  0.5111  0.3833
  209OCTO   H21 5622   2.029   1.312   1.774  0.7399  0.8058  1.5584
  209OCTO   H22 5623   2.198   1.273   1.804  1.4861  2.0559 -1.2884
  209OCTO    C3 5624   2.147   1.341   1.591 -0.0897 -0.1840  1.0548
  209OCTO   H31 5625   2.176   1.447   1.610 -2.3392  0.8764 -0.8744
  209OCTO   H32 5626   2.233   1.288   1.546  0.0302  0.4021  0.5871
  209OCTO    C4 5627   2.028   1.333   1.499  0.4368 -0.0039  0.0935
  209OCTO   H41 5628   2.002   1.226   1.481 -2.0198  0.5503  0.0418
  209OCTO   H42 5629   1.941   1.380   1.548  0.8434  0.9522 -0.0877
  209OCTO    C5 5630   2.049   1.391   1.351  0.5910 -0.4444 -0.1571
  209OCTO   H51 5631   2.077   1.498   1.363  2.2293 -0.6929 -1.3355
  209OCTO   H52 5632   2.139   1.343   1.305  1.1290  0.7803 -0.4220
  209OCTO    C6 5633   1.920   1.361   1.266 -0.2444 -0.0083 -0.1230
  209OCTO   H61 5634   1.902   1.251   1.259 -1.4966  0.1706  0.0286
  209OCTO   H62 5635   1.830   1.415   1.304 -0.2579 -1.0149  1.3959
  209OCTO    C7 5636   1.938   1.409   1.115 -0.5360 -0.0918  0.3101
  209OCTO   H71 5637   2.044   1.402   1.086 -0.4968  1.0886  0.1290
  209OCTO   H72 5638   1.877   1.342   1.049 -1.3205  1.5699 -0.7074
  209OCTO    C8 5639   1.892   1.560   1.096  0.7858  0.4192  0.0694
  209OCTO   H81 5640   1.949   1.633   1.157 -0.9575  2.7070 -0.8632
  209OCTO   H82 5641   1.787   1.579   1.129  1.0993  1.7679  0.3528
  209OCTO    O1 5642   1.899   1.596   0.956 -0.0886 -1.2143  0.1573
  209OCTO   HO1 5643   1.905   1.691   0.945  1.9541 -1.1772  1.1327
  210OCTO    C1 5644   3.406   2.805   3.841 -0.2453 -0.1858  0.2161
  210OCTO   H11 5645   3.360   2.714   3.796  0.0528  0.3011 -1.1294
  210OCTO   H12 5646   3.437   2.854   3.747 -0.6810  1.3523  0.8497
  210OCTO   H13 5647   3.495   2.798   3.907  0.0188 -1.7323 -0.2539
  210OCTO    C2 5648   3.294   2.886   3.905  0.8801 -0.2912  0.4597
  210OCTO   H21 5649   3.267   2.824   3.993 -0.4007 -0.8883 -0.3173
  210OCTO   H22 5650   3.324   2.988   3.938 -0.4145  0.4411 -0.5483
  210OCTO    C3 5651   3.167   2.905   3.812 -0.1230 -0.1215  0.7427
  210OCTO   H31 5652   3.187   2.961   3.718 -2.4821  1.1106  0.8834
  210OCTO   H32 5653   3.114   2.812   3.784 -2.3488  1.5739 -1.1500
  210OCTO    C4 5654   3.069   2.996   3.890  1.1018 -0.5347 -0.4619
  210OCTO   H41 5655   3.026   2.938   3.974  3.1370 -2.1885 -0.4935
  210OCTO   H42 5656   3.117   3.085   3.938  0.0072 -0.3583  0.3452
  210OCTO    C5 5657   2.952   3.058   3.799 -0.2499  0.4672  0.2224
  210OCTO   H51 5658   2.887   3.120   3.864  0.4314  1.1076  0.2988
  210OCTO   H52 5659   3.005   3.124   3.727 -0.2935 -0.3418 -0.5719
  210OCTO    C6 5660   2.855   2.949   3.733  0.0565 -0.1127  0.2569
  210OCTO   H61 5661   2.919   2.893   3.662  0.8860 -0.6462  1.3937
  210OCTO   H62 5662   2.832   2.879   3.816  1.0563 -0.5233  0.2039
  210OCTO    C7 5663   2.722   2.987   3.665 -0.1292 -0.2006 -0.7703
  210OCTO   H71 5664   2.700   2.897   3.604  2.2925 -1.5239  0.1866
  210OCTO   H72 5665   2.634   3.004   3.732 -0.1564  0.1552 -0.8917
  210OCTO    C8 5666   2.723   3.110   3.577  0.1121  0.4145  0.0075
  210OCTO   H81 5667   2.788   3.091   3.488 -1.5293  1.6143 -1.5234
  210OCTO   H82 5668   2.743   3.209   3.624 -1.5304  0.0326  1.6402
  210OCTO    O1 5669   2.593   3.121   3.521 -0.2773  0.1840  0.0404
  210OCTO   HO1 5670   2.584   3.201   3.469 -1.6257 -0.4508 -0.7658
  211OCTO    C1 5671   1.393   3.412   1.700  0.0359  0.4720  0.3537
  211OCTO   H11 5672   1.290   3.403   1.661  0.0215  0.3133  0.4269
  211OCTO   H12 5673   1.459   3.357   1.629 -1.6277 -1.0633 -0.0821
  211OCTO   H13 5674   1.403   3.364   1.800  0.3293  2.6712  1.4363
  211OCTO    C2 5675   1.441   3.551   1.709 -0.4989  0.8290  0.3741
  211OCTO   H21 5676   1.530   3.563   1.774  0.8196 -0.9384 -1.0094
  211OCTO   H22 5677   1.464   3.592   1.608  1.1761 -0.3792  0.2254
  211OCTO    C3 5678   1.328   3.638   1.762 -0.2964 -0.9498  0.2395
  211OCTO   H31 5679   1.243   3.614   1.696 -0.6553  2.5603 -0.7992
  211OCTO   H32 5680   1.317   3.594   1.864 -0.1865 -2.7585 -0.4889
  211OCTO    C4 5681   1.369   3.786   1.774  1.0121  0.0107 -0.3404
  211OCTO   H41 5682   1.472   3.783   1.815  1.0660 -0.6120 -0.5272
  211OCTO   H42 5683   1.381   3.821   1.670  4.5099  0.7992  0.2047
  211OCTO    C5 5684   1.280   3.886   1.857  0.1519  0.7389  0.1017
  211OCTO   H51 5685   1.290   3.858   1.964  0.5465  1.6983  0.3169
  211OCTO   H52 5686   1.320   3.989   1.861  2.9044 -0.2672  4.0958
  211OCTO    C6 5687   1.130   3.878   1.813 -0.5882  0.5334  0.5107
  211OCTO   H61 5688   1.116   3.902   1.706 -0.6233 -0.7660  0.2089
  211OCTO   H62 5689   1.093   3.775   1.831  1.8487 -0.2323  1.6238
  211OCTO    C7 5690   1.048   3.968   1.906 -0.1490  0.2092  0.3025
  211OCTO   H71 5691   1.060   3.937   2.012  2.3759  0.4752  0.1412
  211OCTO   H72 5692   1.085   4.073   1.915  0.6976 -0.0889  0.3384
  211OCTO    C8 5693   0.898   3.965   1.863  0.6818 -0.2081  0.1165
  211OCTO   H81 5694   0.882   3.867   1.813  1.0685  0.0721 -0.5796
  211OCTO   H82 5695   0.885   4.047   1.788 -0.6399  0.3307  0.9047
  211OCTO    O1 5696   0.803   3.975   1.967  0.2261 -0.5146 -0.0370
  211OCTO   HO1 5697   0.813   4.060   2.012  0.4756 -1.0981  1.0425
  212OCTO    C1 5698   3.767   2.802   0.426  0.9317  0.6932 -0.2054
  212OCTO   H11 5699   3.753   2.700   0.384 -0.5714  1.0932 -0.7502
  212OCTO   H12 5700   3.687   2.858   0.374 -0.0509  0.3291  0.8643
  212OCTO   H13 5701   3.870   2.833   0.400  1.3151  2.5137  2.9521
  212OCTO    C2 5702   3.756   2.827   0.574  0.1539 -0.6311 -0.0777
  212OCTO   H21 5703   3.655   2.807   0.617  0.1755 -2.5067 -0.8125
  212OCTO   H22 5704   3.829   2.758   0.621  0.8782 -0.2993 -0.7078
  212OCTO    C3 5705   3.798   2.974   0.606  0.3289 -0.2638 -0.5516
  212OCTO   H31 5706   3.791   2.984   0.717  1.7614 -2.5905 -0.1830
  212OCTO   H32 5707   3.903   2.981   0.570  1.0498 -0.2761  1.4461
  212OCTO    C4 5708   3.706   3.084   0.535  0.1618  0.1974  0.1408
  212OCTO   H41 5709   3.683   3.057   0.430  2.2455  0.1588 -0.3455
  212OCTO   H42 5710   3.611   3.096   0.591  0.1583 -0.9871  0.4080
  212OCTO    C5 5711   3.775   3.211   0.530  0.5907  0.0427  0.0784
  212OCTO   H51 5712   3.796   3.249   0.632  0.1415 -0.3128  0.3077
  212OCTO   H52 5713   3.877   3.210   0.486  0.7176 -0.2126  0.3776
  212OCTO    C6 5714   3.683   3.321   0.468 -0.6021 -1.0067  0.2100
  212OCTO   H61 5715   3.631   3.290   0.374 -0.0518 -1.3686  0.0211
  212OCTO   H62 5716   3.606   3.344   0.545 -0.6279 -0.1430 -0.0721
  212OCTO    C7 5717   3.769   3.452   0.430 -0.2454 -0.4332 -0.9675
  212OCTO   H71 5718   3.856   3.426   0.366 -1.2342 -1.2771 -2.0012
  212OCTO   H72 5719   3.698   3.520   0.377  1.1581  0.9754 -1.1030
  212OCTO    C8 5720   3.831   3.517   0.559  0.2444 -0.0361  0.2113
  212OCTO   H81 5721   3.892   3.608   0.540  1.5921 -0.5217  1.9775
  212OCTO   H82 5722   3.900   3.441   0.602 -1.9145 -2.2567 -0.0466
  212OCTO    O1 5723   3.728   3.544   0.650 -0.0599 -0.0561 -0.4024
  212OCTO   HO1 5724   3.736   3.494   0.732 -1.7691  0.7706  0.3087
  213OCTO    C1 5725   3.280   0.389   2.218 -0.5762  0.3071 -0.0626
  213OCTO   H11 5726   3.201   0.457   2.256 -0.4841  0.1463  0.4234
  213OCTO   H12 5727   3.342   0.365   2.307  0.6074 -0.3415 -1.0333
  213OCTO   H13 5728   3.345   0.434   2.141 -0.9731  0.4391 -0.3215
  213OCTO    C2 5729   3.215   0.257   2.169 -0.3175 -0.1836 -0.5092
  213OCTO   H21 5730   3.130   0.227   2.234 -0.3925 -0.2064 -0.6162
  213OCTO   H22 5731   3.159   0.264   2.073 -0.7129 -2.6033 -0.5328
  213OCTO    C3 5732   3.326   0.151   2.166  0.1011  0.3109  0.0937
  213OCTO   H31 5733   3.281   0.066   2.111  1.3831 -2.2976  2.7420
  213OCTO   H32 5734   3.416   0.202   2.124  0.8151  1.1017  2.4259
  213OCTO    C4 5735   3.362   0.099   2.307 -0.2280 -0.0501 -0.4031
  213OCTO   H41 5736   3.391   0.186   2.370 -1.0932  0.1124 -0.2164
  213OCTO   H42 5737   3.267   0.064   2.353  0.2938  2.3249  2.7812
  213OCTO    C5 5738   3.477  -0.006   2.299  0.2458 -0.0198 -0.7223
  213OCTO   H51 5739   3.482  -0.065   2.392  1.2753  0.7936 -0.2414
  213OCTO   H52 5740   3.440  -0.071   2.217 -2.2516  0.1585  0.1677
  213OCTO    C6 5741   3.613   0.046   2.266  1.0865  0.0923 -0.0080
  213OCTO   H61 5742   3.604   0.111   2.176  2.1877 -0.3099 -0.4316
  213OCTO   H62 5743   3.670   0.099   2.345 -1.2152 -0.8870  2.4375
  213OCTO    C7 5744   3.694  -0.067   2.199  0.6655  0.3283 -0.6258
  213OCTO   H71 5745   3.712  -0.151   2.269 -0.1373  0.3024 -0.4365
  213OCTO   H72 5746   3.631  -0.111   2.119  0.4565 -0.5565  0.0096
  213OCTO    C8 5747   3.830  -0.027   2.143  0.1853  0.2099 -0.3564
  213OCTO   H81 5748   3.830   0.078   2.106 -0.6401 -0.2000 -1.5824
  213OCTO   H82 5749   3.868  -0.093   2.062  1.0932  2.9886 -2.3793
  213OCTO    O1 5750   3.933  -0.035   2.243 -0.3369  0.3980  0.2590
  213OCTO   HO1 5751   4.013  -0.069   2.202 -1.4972 -1.4105 -0.6470
  214OCTO    C1 5752   2.937   0.204   2.621 -0.0753 -0.3718  0.4083
  214OCTO   H11 5753   3.045   0.178   2.614  0.5960  1.9551  1.0598
  214OCTO   H12 5754   2.908   0.268   2.535 -0.7658 -0.9535  0.1965
  214OCTO   H13 5755   2.918   0.274   2.705 -0.1712 -1.5081  1.3557
  214OCTO    C2 5756   2.836   0.086   2.623  0.7121 -0.1925  0.1418
  214OCTO   H21 5757   2.860   0.023   2.712  1.0779 -0.8969 -0.4512
  214OCTO   H22 5758   2.729   0.115   2.630  0.8302  0.4307 -0.5660
  214OCTO    C3 5759   2.851  -0.008   2.500 -0.5173  0.0130  0.1740
  214OCTO   H31 5760   2.851   0.037   2.398 -2.3580 -0.8755 -0.2549
  214OCTO   H32 5761   2.945  -0.063   2.520 -1.0918 -2.6642 -3.4195
  214OCTO    C4 5762   2.745  -0.113   2.499 -0.1547 -0.2321  0.4778
  214OCTO   H41 5763   2.786  -0.184   2.424  1.5488  1.2448 -0.0502
  214OCTO   H42 5764   2.740  -0.161   2.600 -1.4626 -0.1212  0.4905
  214OCTO    C5 5765   2.606  -0.063   2.456  0.6741  0.0951  0.1104
  214OCTO   H51 5766   2.566   0.010   2.529  0.2860  0.7372 -0.7322
  214OCTO   H52 5767   2.614  -0.008   2.360  0.8635  1.6730  0.9899
  214OCTO    C6 5768   2.501  -0.172   2.424  0.0544 -0.3352  0.0123
  214OCTO   H61 5769   2.479  -0.239   2.510 -0.6725 -0.6763 -0.4364
  214OCTO   H62 5770   2.402  -0.126   2.406  0.3979  0.3383 -0.2203
  214OCTO    C7 5771   2.543  -0.269   2.316  0.7740 -0.0557  0.4783
  214OCTO   H71 5772   2.599  -0.209   2.240  0.1438 -0.7953 -0.5986
  214OCTO   H72 5773   2.616  -0.340   2.360  2.0054 -0.1218 -1.5381
  214OCTO    C8 5774   2.429  -0.361   2.259  0.8917 -0.6228  0.0796
  214OCTO   H81 5775   2.340  -0.307   2.221  0.6692 -1.0943 -0.0706
  214OCTO   H82 5776   2.402  -0.428   2.344 -0.5065  0.0351  0.1848
  214OCTO    O1 5777   2.489  -0.445   2.162 -0.2714 -0.1118  0.3979
  214OCTO   HO1 5778   2.419  -0.492   2.116 -1.1191  0.5786  0.9459
  215OCTO    C1 5779   1.693   1.532   2.566  0.1087  0.8198  0.1444
  215OCTO   H11 5780   1.585   1.550   2.586  0.0003 -0.2061  0.5778
  215OCTO   H12 5781   1.740   1.528   2.667 -1.6057 -0.8643  0.9675
  215OCTO   H13 5782   1.748   1.614   2.516  0.2101  3.6040  4.3156
  215OCTO    C2 5783   1.708   1.402   2.482  0.0175  0.3927 -0.3937
  215OCTO   H21 5784   1.811   1.362   2.495 -0.2656 -0.1002  0.4279
  215OCTO   H22 5785   1.627   1.334   2.516 -0.7040  0.1846 -2.3989
  215OCTO    C3 5786   1.688   1.418   2.331 -0.2231 -0.3772 -0.0956
  215OCTO   H31 5787   1.583   1.431   2.300 -0.4676 -1.0931  0.4081
  215OCTO   H32 5788   1.754   1.503   2.303 -0.0541 -0.7387 -0.7944
  215OCTO    C4 5789   1.731   1.289   2.262  0.5669 -0.1319 -0.3162
  215OCTO   H41 5790   1.832   1.266   2.302  0.0248 -1.5869  0.2880
  215OCTO   H42 5791   1.675   1.199   2.294  0.5499  0.4714  1.4715
  215OCTO    C5 5792   1.755   1.310   2.105  0.5868 -0.1928 -0.5238
  215OCTO   H51 5793   1.656   1.324   2.057  2.1128 -0.2338 -4.0481
  215OCTO   H52 5794   1.815   1.402   2.088  0.3608 -0.2195 -1.5387
  215OCTO    C6 5795   1.831   1.208   2.028 -0.0049 -0.3661  0.0673
  215OCTO   H61 5796   1.883   1.260   1.944  0.3416 -2.1529 -0.8645
  215OCTO   H62 5797   1.904   1.167   2.101  1.4702 -0.6516 -1.4994
  215OCTO    C7 5798   1.753   1.092   1.967 -0.5543 -0.0640  0.1581
  215OCTO   H71 5799   1.679   1.143   1.902 -0.0587  1.7662  0.9631
  215OCTO   H72 5800   1.811   1.033   1.892 -0.3250  0.2394  0.0975
  215OCTO    C8 5801   1.687   0.995   2.073  1.0157  0.8151  0.0466
  215OCTO   H81 5802   1.614   1.050   2.138  0.8272 -0.7432  1.2027
  215OCTO   H82 5803   1.767   0.955   2.139 -0.7950 -0.6742  1.4835
  215OCTO    O1 5804   1.619   0.888   2.010 -0.3660 -0.1053 -0.3734
  215OCTO   HO1 5805   1.531   0.921   1.989 -0.5601 -1.1253 -1.2968
  216OCTO    C1 5806   1.965   1.651   3.453  0.0318  0.4617 -0.2121
  216OCTO   H11 5807   2.015   1.738   3.502  3.7480 -2.0654  0.8720
  216OCTO   H12 5808   1.863   1.656   3.497  1.0008  0.6419  2.1565
  216OCTO   H13 5809   2.012   1.555   3.483  0.3925  0.8349  0.4368
  216OCTO    C2 5810   1.974   1.663   3.301 -0.3248 -0.2822 -0.2719
  216OCTO   H21 5811   1.929   1.571   3.259  1.0277 -1.8536  1.5406
  216OCTO   H22 5812   1.914   1.750   3.267  0.5879 -0.2508 -1.8903
  216OCTO    C3 5813   2.123   1.672   3.258  0.1366  0.5566  0.9889
  216OCTO   H31 5814   2.170   1.759   3.308 -0.6666  0.8914  1.1868
  216OCTO   H32 5815   2.175   1.579   3.288 -0.4036 -0.3839 -0.8390
  216OCTO    C4 5816   2.143   1.701   3.106  0.3831 -0.4661  1.0345
  216OCTO   H41 5817   2.084   1.625   3.050  0.7531  0.2802 -0.4106
  216OCTO   H42 5818   2.099   1.800   3.079  2.6312  0.8462  1.9344
  216OCTO    C5 5819   2.288   1.714   3.047  0.4354  0.2533 -0.8489
  216OCTO   H51 5820   2.292   1.761   2.946 -0.7889 -0.9032 -1.4662
  216OCTO   H52 5821   2.347   1.783   3.111  1.8490 -1.5287 -0.1355
  216OCTO    C6 5822   2.359   1.571   3.033  0.4169 -0.6953 -0.1059
  216OCTO   H61 5823   2.369   1.524   3.133 -3.5720 -3.3242 -0.7292
  216OCTO   H62 5824   2.306   1.499   2.967  0.2335  0.6672 -1.5315
  216OCTO    C7 5825   2.495   1.598   2.969 -0.0304 -0.5314  0.0450
  216OCTO   H71 5826   2.483   1.611   2.860  1.9974 -2.0842 -0.4213
  216OCTO   H72 5827   2.548   1.692   2.997 -0.8748  0.0184 -0.1678
  216OCTO    C8 5828   2.577   1.473   2.980 -0.5919 -0.3301  0.3024
  216OCTO   H81 5829   2.526   1.388   2.929  2.1035 -0.5517 -2.3212
  216OCTO   H82 5830   2.597   1.452   3.087 -1.3678  0.7515  0.6747
  216OCTO    O1 5831   2.686   1.487   2.894  0.0940 -0.1399  0.2893
  216OCTO   HO1 5832   2.764   1.480   2.950  0.3180 -0.3223 -0.0406
  217OCTO    C1 5833   2.879   3.358   0.905  0.2779  0.2498 -0.5440
  217OCTO   H11 5834   2.960   3.400   0.968 -1.9663  1.4742  1.7053
  217OCTO   H12 5835   2.783   3.358   0.962  0.8727 -1.2870  0.5188
  217OCTO   H13 5836   2.904   3.257   0.868 -2.4628  0.4989 -3.5525
  217OCTO    C2 5837   2.857   3.445   0.775 -0.2447 -0.0464  0.1244
  217OCTO   H21 5838   2.828   3.549   0.800  0.4373  1.0096 -2.9835
  217OCTO   H22 5839   2.959   3.457   0.732  0.1350  0.9785  1.2811
  217OCTO    C3 5840   2.757   3.390   0.673  0.3290  0.0801 -0.1454
  217OCTO   H31 5841   2.778   3.282   0.652 -0.1115  0.3403 -2.1185
  217OCTO   H32 5842   2.652   3.391   0.707  0.6095 -2.0199  1.0025
  217OCTO    C4 5843   2.777   3.465   0.538 -0.0377  0.8251 -0.4900
  217OCTO   H41 5844   2.744   3.569   0.561 -0.4954  0.4091  0.8728
  217OCTO   H42 5845   2.887   3.467   0.525 -0.0445  0.0914 -0.6902
  217OCTO    C5 5846   2.702   3.409   0.414 -0.0568  0.2629 -0.1580
  217OCTO   H51 5847   2.722   3.471   0.324 -0.3928  0.5173 -0.0584
  217OCTO   H52 5848   2.743   3.307   0.398  1.3220  0.4037  2.0012
  217OCTO    C6 5849   2.557   3.406   0.434  0.0453 -0.3958 -0.2666
  217OCTO   H61 5850   2.531   3.328   0.508  1.0068  0.0437  0.5485
  217OCTO   H62 5851   2.540   3.507   0.476 -3.6405 -0.5605 -1.0098
  217OCTO    C7 5852   2.480   3.398   0.296 -0.1443 -0.5172 -0.0444
  217OCTO   H71 5853   2.371   3.409   0.317 -0.5340  2.5282 -2.9294
  217OCTO   H72 5854   2.512   3.476   0.224 -0.6514 -0.9181 -0.7168
  217OCTO    C8 5855   2.502   3.258   0.235  0.2317  0.3144  0.2954
  217OCTO   H81 5856   2.442   3.186   0.295 -0.5639  0.5891 -0.1581
  217OCTO   H82 5857   2.610   3.234   0.223 -0.2634 -2.5609  0.9058
  217OCTO    O1 5858   2.443   3.263   0.101 -0.1006  0.3114 -0.1819
  217OCTO   HO1 5859   2.394   3.181   0.091  0.5710 -0.1778  0.4229
  218OCTO    C1 5860   1.293   1.567   1.585  0.5350 -0.0512 -0.1298
  218OCTO   H11 5861   1.286   1.647   1.661 -1.9443 -0.2684 -0.0649
  218OCTO   H12 5862   1.262   1.610   1.487  1.8544 -0.3915 -0.7298
  218OCTO   H13 5863   1.218   1.492   1.619 -0.7182  1.2485  0.0523
  218OCTO    C2 5864   1.438   1.516   1.554  0.2418 -0.4980 -0.8114
  218OCTO   H21 5865   1.493   1.603   1.511 -1.2862  0.8160 -0.1974
  218OCTO   H22 5866   1.489   1.482   1.647 -1.5478 -0.0596  0.3650
  218OCTO    C3 5867   1.447   1.400   1.449  0.6220 -0.4784 -0.3142
  218OCTO   H31 5868   1.553   1.374   1.427 -0.1637 -1.5802 -3.1179
  218OCTO   H32 5869   1.387   1.311   1.477 -0.9258  1.2656  2.3857
  218OCTO    C4 5870   1.396   1.441   1.316 -0.0927 -0.1687  0.6475
  218OCTO   H41 5871   1.377   1.348   1.257  1.3863  0.3532 -0.7309
  218OCTO   H42 5872   1.297   1.487   1.333  0.4276  0.6614  1.4814
  218OCTO    C5 5873   1.473   1.535   1.226  0.1337 -0.1738  0.1466
  218OCTO   H51 5874   1.486   1.635   1.273  1.0675 -0.1810 -0.0667
  218OCTO   H52 5875   1.576   1.494   1.214  0.2891  0.1583  0.3382
  218OCTO    C6 5876   1.409   1.542   1.083  0.7285 -0.1471  0.4953
  218OCTO   H61 5877   1.400   1.435   1.054  1.4194 -0.8517  2.6716
  218OCTO   H62 5878   1.303   1.574   1.095  0.1853 -1.8504  0.4702
  218OCTO    C7 5879   1.495   1.620   0.978  0.0743  0.6725 -0.3966
  218OCTO   H71 5880   1.595   1.571   0.975 -0.0594  0.4009 -0.3813
  218OCTO   H72 5881   1.446   1.607   0.879  1.2544 -1.5506 -0.7721
  218OCTO    C8 5882   1.517   1.769   1.017  0.5381  0.4982 -0.2755
  218OCTO   H81 5883   1.569   1.777   1.114 -0.2460 -0.8130  0.2830
  218OCTO   H82 5884   1.416   1.812   1.036  0.9380  1.5077 -0.4083
  218OCTO    O1 5885   1.571   1.851   0.910  0.2478 -0.1414  0.3685
  218OCTO   HO1 5886   1.500   1.886   0.856  0.6498 -0.1527 -0.1765
  219OCTO    C1 5887   0.252   3.086   3.392  0.0974  0.1557 -1.0397
  219OCTO   H11 5888   0.283   3.158   3.313 -3.8590  1.1481 -1.9139
  219OCTO   H12 5889   0.223   2.992   3.340 -0.2314 -1.7084  2.2740
  219OCTO   H13 5890   0.161   3.130   3.439 -0.4543 -0.4024 -1.5617
  219OCTO    C2 5891   0.357   3.071   3.500  0.6979 -0.1480 -0.7386
  219OCTO   H21 5892   0.323   3.026   3.596  1.2962 -0.6094 -0.7421
  219OCTO   H22 5893   0.447   3.015   3.468  3.2541  0.1997  4.6744
  219OCTO    C3 5894   0.420   3.210   3.540  0.2094  0.0492 -0.2306
  219OCTO   H31 5895   0.421   3.276   3.450 -1.5719 -0.1799 -0.4684
  219OCTO   H32 5896   0.358   3.256   3.620 -0.2988  3.0085 -2.1675
  219OCTO    C4 5897   0.559   3.195   3.592 -0.5378  0.5778  0.0957
  219OCTO   H41 5898   0.610   3.105   3.551 -0.1890  0.0571  1.5864
  219OCTO   H42 5899   0.618   3.276   3.544  0.6249 -0.9251 -1.1175
  219OCTO    C5 5900   0.574   3.215   3.745  0.4637  0.4071 -0.5528
  219OCTO   H51 5901   0.559   3.322   3.768  1.7715 -0.0636  3.0529
  219OCTO   H52 5902   0.497   3.163   3.806  1.3915  0.6643  0.8887
  219OCTO    C6 5903   0.716   3.188   3.797  0.4058  0.0980 -0.5140
  219OCTO   H61 5904   0.799   3.250   3.757  1.5363 -1.7594 -1.1718
  219OCTO   H62 5905   0.722   3.206   3.907 -0.6657 -2.0905 -0.0390
  219OCTO    C7 5906   0.749   3.043   3.762 -0.4667 -0.6251 -0.8139
  219OCTO   H71 5907   0.656   2.989   3.734 -0.1531 -0.6434 -1.8498
  219OCTO   H72 5908   0.808   3.041   3.668  1.8171 -0.8312  0.5548
  219OCTO    C8 5909   0.810   2.972   3.882 -0.0059  0.3865 -0.2719
  219OCTO   H81 5910   0.764   3.001   3.979  0.2581 -0.2305  0.0490
  219OCTO   H82 5911   0.918   2.999   3.884 -0.0559  0.5748 -0.0549
  219OCTO    O1 5912   0.803   2.828   3.862 -0.4008 -0.1511 -0.3411
  219OCTO   HO1 5913   0.812   2.788   3.948 -1.1801 -0.7228 -0.5223
  220OCTO    C1 5914   0.065   3.513   2.723  0.2374  0.0396 -0.3736
  220OCTO   H11 5915  -0.037   3.535   2.686  0.7649  0.0896 -1.8669
  220OCTO   H12 5916   0.077   3.406   2.752 -0.6661 -0.2447 -1.0140
  220OCTO   H13 5917   0.085   3.564   2.820  1.1220  1.1870 -1.1283
  220OCTO    C2 5918   0.178   3.542   2.624 -0.7197 -0.2115  0.1406
  220OCTO   H21 5919   0.137   3.506   2.527 -0.7658  0.2190 -0.0026
  220OCTO   H22 5920   0.198   3.652   2.624 -0.0454 -0.3305 -0.3829
  220OCTO    C3 5921   0.311   3.471   2.658 -0.1058 -0.5345  0.0428
  220OCTO   H31 5922   0.381   3.495   2.575  1.1309  1.0117  1.4579
  220OCTO   H32 5923   0.347   3.504   2.758 -2.5393  2.3724  0.1090
  220OCTO    C4 5924   0.308   3.321   2.671  0.2339 -0.7115 -0.4766
  220OCTO   H41 5925   0.239   3.293   2.754  0.2125 -0.3648 -0.3754
  220OCTO   H42 5926   0.265   3.286   2.574  2.7681 -1.7372 -1.2966
  220OCTO    C5 5927   0.442   3.253   2.695  0.6013 -0.0524  0.0828
  220OCTO   H51 5928   0.517   3.296   2.625 -0.4606  1.0786 -0.3945
  220OCTO   H52 5929   0.491   3.272   2.793  0.1850  0.2428  0.2365
  220OCTO    C6 5930   0.438   3.105   2.676  0.4990  0.3416  0.5955
  220OCTO   H61 5931   0.368   3.051   2.744  0.0930  1.1975  0.8694
  220OCTO   H62 5932   0.405   3.092   2.571  2.1967 -2.0266  0.2836
  220OCTO    C7 5933   0.578   3.037   2.686  0.0933 -0.4358  0.3740
  220OCTO   H71 5934   0.630   3.047   2.784 -0.1496  0.5205  0.4112
  220OCTO   H72 5935   0.561   2.928   2.674 -0.4543 -0.3258  0.1457
  220OCTO    C8 5936   0.681   3.064   2.567  0.8257 -0.5060 -0.1251
  220OCTO   H81 5937   0.699   3.174   2.560 -0.8205 -0.2820 -1.4259
  220OCTO   H82 5938   0.637   3.025   2.473  0.1126 -0.4097  0.1627
  220OCTO    O1 5939   0.799   2.984   2.588 -0.5396 -0.4314 -0.3493
  220OCTO   HO1 5940   0.850   2.998   2.507 -1.8118  1.8950 -0.8348
  221OCTO    C1 5941   0.414   0.036   0.941 -0.2750  0.0038  0.4682
  221OCTO   H11 5942   0.331  -0.003   0.878 -0.2537  1.2032 -0.3417
  221OCTO   H12 5943   0.404   0.147   0.945 -1.7438 -0.1534  2.3538
  221OCTO   H13 5944   0.508   0.004   0.892  0.0106  0.6895  0.5528
  221OCTO    C2 5945   0.402  -0.006   1.090 -0.2024 -0.0309 -0.2537
  221OCTO   H21 5946   0.500   0.019   1.136  0.1299 -1.5798 -0.0476
  221OCTO   H22 5947   0.312   0.040   1.134  0.4668 -1.0587  2.3652
  221OCTO    C3 5948   0.383  -0.158   1.101 -0.4567 -0.5362  0.0953
  221OCTO   H31 5949   0.336  -0.200   1.010 -1.3459 -2.1844  1.2469
  221OCTO   H32 5950   0.482  -0.208   1.102  0.3626  0.9983 -1.0509
  221OCTO    C4 5951   0.300  -0.190   1.226  0.3806  0.3250 -0.2269
  221OCTO   H41 5952   0.353  -0.139   1.309  0.0090  1.8166 -0.8580
  221OCTO   H42 5953   0.199  -0.147   1.206  1.4526  2.2560 -1.9675
  221OCTO    C5 5954   0.269  -0.334   1.253 -0.0790 -0.0800  0.4275
  221OCTO   H51 5955   0.189  -0.363   1.182 -1.3229  1.7654  1.0336
  221OCTO   H52 5956   0.361  -0.398   1.247  0.1738  0.2437  0.8429
  221OCTO    C6 5957   0.217  -0.354   1.396 -0.6024 -0.2188  0.0071
  221OCTO   H61 5958   0.194  -0.461   1.412  0.5692 -0.6172 -0.8091
  221OCTO   H62 5959   0.304  -0.333   1.462 -0.3160 -0.8345 -0.1667
  221OCTO    C7 5960   0.100  -0.277   1.446 -0.4928 -0.2674 -0.1801
  221OCTO   H71 5961   0.108  -0.175   1.401  1.0958 -1.5707 -3.1789
  221OCTO   H72 5962  -0.003  -0.304   1.414 -2.1665  0.7079  3.7563
  221OCTO    C8 5963   0.095  -0.294   1.586 -0.1526  0.8346 -0.7145
  221OCTO   H81 5964   0.186  -0.257   1.640 -0.6543  1.3683 -0.2152
  221OCTO   H82 5965   0.078  -0.402   1.605  2.5607 -0.0172 -2.5819
  221OCTO    O1 5966  -0.016  -0.222   1.639  0.1064  0.2187 -0.3558
  221OCTO   HO1 5967  -0.032  -0.258   1.727 -0.3290 -2.1249 -1.3127
  222OCTO    C1 5968   4.190   2.184   1.313 -0.1746  0.6786 -0.0262
  222OCTO   H11 5969   4.250   2.162   1.222 -1.2064 -1.6697 -0.2109
  222OCTO   H12 5970   4.238   2.157   1.409 -0.4216  0.6595  0.0917
  222OCTO   H13 5971   4.097   2.125   1.298 -0.1944  1.1718 -2.3695
  222OCTO    C2 5972   4.139   2.327   1.317  0.2613 -1.3396 -0.2966
  222OCTO   H21 5973   4.087   2.343   1.220  0.8391 -1.2552 -0.5992
  222OCTO   H22 5974   4.063   2.344   1.396 -1.0169  2.9954 -2.1455
  222OCTO    C3 5975   4.250   2.433   1.339 -0.3342  0.3620  0.8930
  222OCTO   H31 5976   4.295   2.426   1.440  1.4340  1.9919  0.2695
  222OCTO   H32 5977   4.330   2.405   1.266 -2.1600 -2.2895 -0.2502
  222OCTO    C4 5978   4.220   2.579   1.319 -0.8588  0.5465 -0.2563
  222OCTO   H41 5979   4.321   2.623   1.335 -0.3707 -0.9811  1.2230
  222OCTO   H42 5980   4.181   2.617   1.223 -0.3546  0.3916 -0.5230
  222OCTO    C5 5981   4.111   2.622   1.416 -0.2810  0.9712  0.2629
  222OCTO   H51 5982   4.011   2.586   1.386 -0.0622  1.1011 -0.6542
  222OCTO   H52 5983   4.140   2.576   1.513 -0.3414 -1.2351 -0.6930
  222OCTO    C6 5984   4.086   2.772   1.439 -0.6379  0.2543 -0.0548
  222OCTO   H61 5985   4.184   2.816   1.468  0.5192 -1.3093 -1.3965
  222OCTO   H62 5986   4.077   2.811   1.335  1.7500  1.1652  0.0250
  222OCTO    C7 5987   3.971   2.806   1.540  0.3373  0.3353 -0.3263
  222OCTO   H71 5988   4.010   2.797   1.644 -0.3354 -0.2726 -0.1120
  222OCTO   H72 5989   3.932   2.905   1.511  0.5557  0.3795 -0.4638
  222OCTO    C8 5990   3.848   2.713   1.536 -0.1975  0.1682 -0.0712
  222OCTO   H81 5991   3.873   2.608   1.562 -0.4843  0.5299  1.8846
  222OCTO   H82 5992   3.798   2.721   1.437  1.4931  1.1685 -0.8875
  222OCTO    O1 5993   3.766   2.748   1.650 -0.3625 -0.3442 -0.0662
  222OCTO   HO1 5994   3.732   2.833   1.623 -0.0870 -0.0162  0.5932
  223OCTO    C1 5995   1.096   0.377   4.156  0.2285 -0.4713 -0.2038
  223OCTO   H11 5996   1.074   0.269   4.168  3.6949 -1.3293 -0.3874
  223OCTO   H12 5997   1.013   0.437   4.199  0.2265 -1.2289  0.9115
  223OCTO   H13 5998   1.122   0.410   4.053 -0.3546  1.2327  0.1737
  223OCTO    C2 5999   1.209   0.422   4.248  0.2155 -0.0994  0.0598
  223OCTO   H21 6000   1.208   0.345   4.328 -2.2468  1.6574  1.8993
  223OCTO   H22 6001   1.308   0.402   4.203  0.2312  0.1738 -0.0315
  223OCTO    C3 6002   1.198   0.560   4.308  0.3366  0.1790 -0.1117
  223OCTO   H31 6003   1.201   0.626   4.218  1.2805  0.7813  0.3422
  223OCTO   H32 6004   1.107   0.560   4.371 -1.2313 -0.8986 -2.2374
  223OCTO    C4 6005   1.324   0.588   4.395 -0.1419 -0.6150 -0.2475
  223OCTO   H41 6006   1.324   0.510   4.475  3.3751  0.1138  0.6297
  223OCTO   H42 6007   1.421   0.584   4.341 -0.5472  2.9674 -1.4963
  223OCTO    C5 6008   1.324   0.727   4.453 -0.4480  0.8055 -0.1980
  223OCTO   H51 6009   1.245   0.733   4.531 -1.3310 -0.1999 -0.9880
  223OCTO   H52 6010   1.415   0.747   4.514 -1.1565 -0.9622  1.5258
  223OCTO    C6 6011   1.305   0.850   4.357  0.6937  0.3262 -0.2518
  223OCTO   H61 6012   1.206   0.850   4.307  0.5201 -1.7231 -0.0122
  223OCTO   H62 6013   1.306   0.943   4.418 -0.1171 -0.2546  0.6808
  223OCTO    C7 6014   1.417   0.865   4.253 -0.4875 -0.7172  0.4207
  223OCTO   H71 6015   1.513   0.876   4.308  1.5618 -2.1049 -2.5792
  223OCTO   H72 6016   1.414   0.779   4.183 -1.1384 -0.8990  0.6621
  223OCTO    C8 6017   1.398   0.993   4.172  0.5040 -0.6887 -0.3191
  223OCTO   H81 6018   1.313   0.989   4.100 -1.0468  0.2107  1.3815
  223OCTO   H82 6019   1.489   1.006   4.109  2.1537 -1.3983  1.8098
  223OCTO    O1 6020   1.388   1.110   4.247 -0.2689 -0.0832 -0.2823
  223OCTO   HO1 6021   1.366   1.187   4.195 -0.5909 -0.3428 -0.5387
  224OCTO    C1 6022   0.979   2.759   0.007 -0.1157  0.5875 -0.2448
  224OCTO   H11 6023   0.898   2.798   0.072  0.2498  3.8549 -1.5471
  224OCTO   H12 6024   0.957   2.661  -0.039  2.2745  0.1227 -0.5640
  224OCTO   H13 6025   1.069   2.744   0.072 -1.6601 -1.2604  1.5987
  224OCTO    C2 6026   1.022   2.866  -0.094  0.6567 -0.5465 -0.2051
  224OCTO   H21 6027   0.953   2.868  -0.181 -0.1523  0.9428  0.4220
  224OCTO   H22 6028   1.019   2.966  -0.046  1.6271  0.0229 -1.2725
  224OCTO    C3 6029   1.164   2.846  -0.147  0.1239 -0.1455  0.3653
  224OCTO   H31 6030   1.217   2.938  -0.179  0.0321  0.0117  0.6571
  224OCTO   H32 6031   1.232   2.812  -0.065  2.3456  4.3801  0.7357
  224OCTO    C4 6032   1.156   2.749  -0.261  0.1183  0.1856 -0.4067
  224OCTO   H41 6033   1.107   2.659  -0.219  0.6831  0.5894  1.2244
  224OCTO   H42 6034   1.076   2.780  -0.332 -1.0132  3.9486  2.1484
  224OCTO    C5 6035   1.292   2.712  -0.321  0.2313  0.2971  0.0387
  224OCTO   H51 6036   1.330   2.797  -0.381 -3.4343  2.1159  0.0220
  224OCTO   H52 6037   1.368   2.702  -0.240 -0.2023  1.4176  0.6099
  224OCTO    C6 6038   1.278   2.593  -0.419 -0.8430 -0.5202 -0.0733
  224OCTO   H61 6039   1.382   2.579  -0.455 -0.3017  1.0645  0.8026
  224OCTO   H62 6040   1.252   2.501  -0.364  2.7933 -0.7003  1.5969
  224OCTO    C7 6041   1.173   2.610  -0.532 -0.2322  0.1258  0.2064
  224OCTO   H71 6042   1.075   2.630  -0.484  0.7649 -0.7763  2.7978
  224OCTO   H72 6043   1.195   2.700  -0.592 -0.2401 -0.1055 -0.1432
  224OCTO    C8 6044   1.154   2.482  -0.610  0.2720 -0.6368 -0.1996
  224OCTO   H81 6045   1.075   2.496  -0.686  0.9442  1.8911 -0.5104
  224OCTO   H82 6046   1.107   2.409  -0.540 -2.4032 -0.1281 -1.3173
  224OCTO    O1 6047   1.278   2.450  -0.666 -0.0357  0.0180  0.0897
  224OCTO   HO1 6048   1.303   2.370  -0.617 -0.2223 -0.8900 -1.2382
  225OCTO    C1 6049   0.199   0.558   0.262 -0.3387  0.6025 -0.3007
  225OCTO   H11 6050   0.185   0.447   0.259 -0.0805  0.5459  0.5225
  225OCTO   H12 6051   0.238   0.601   0.167  1.4365 -0.6778 -0.1945
  225OCTO   H13 6052   0.268   0.579   0.346 -0.2739 -1.8406  0.3397
  225OCTO    C2 6053   0.068   0.628   0.286 -0.5076  0.0810 -0.5672
  225OCTO   H21 6054  -0.006   0.590   0.212 -1.1849 -1.1367  0.6871
  225OCTO   H22 6055   0.030   0.594   0.384 -2.3310 -0.5456 -1.4520
  225OCTO    C3 6056   0.071   0.786   0.268 -0.1385  0.3620  0.2184
  225OCTO   H31 6057   0.143   0.828   0.341  0.6205  0.1737 -0.4179
  225OCTO   H32 6058   0.106   0.807   0.165 -2.3421 -0.6899 -0.8176
  225OCTO    C4 6059  -0.070   0.842   0.304 -0.2393 -0.0596  0.7184
  225OCTO   H41 6060  -0.156   0.794   0.253  0.4299 -0.7044  0.1826
  225OCTO   H42 6061  -0.097   0.799   0.403 -4.4665 -0.7000 -0.5135
  225OCTO    C5 6062  -0.061   0.999   0.314 -0.0796  0.1161 -0.2712
  225OCTO   H51 6063   0.016   1.020   0.390 -0.9946 -1.2325  1.0726
  225OCTO   H52 6064  -0.048   1.048   0.215  0.9559 -0.8211 -0.6184
  225OCTO    C6 6065  -0.197   1.056   0.371  0.1647 -0.3275 -0.0483
  225OCTO   H61 6066  -0.220   1.028   0.476 -1.6589  2.4269  0.4049
  225OCTO   H62 6067  -0.169   1.164   0.378  3.2017 -1.0853  1.1629
  225OCTO    C7 6068  -0.314   1.034   0.280  0.4716  0.2456  0.6166
  225OCTO   H71 6069  -0.349   0.929   0.274 -0.5441  0.6071 -0.0248
  225OCTO   H72 6070  -0.400   1.089   0.323 -0.2913 -1.0721  0.8154
  225OCTO    C8 6071  -0.305   1.092   0.140 -0.2375 -0.9392 -0.7233
  225OCTO   H81 6072  -0.218   1.053   0.084 -0.1643 -2.5477  0.4380
  225OCTO   H82 6073  -0.295   1.201   0.158 -0.2638 -1.1883  0.8907
  225OCTO    O1 6074  -0.424   1.058   0.074  0.8709  0.2594 -0.0420
  225OCTO   HO1 6075  -0.391   1.061  -0.016  3.5793  0.6541  0.8696
  226OCTO    C1 6076   2.179   0.356   3.576 -0.4873 -0.0268  0.7479
  226OCTO   H11 6077   2.194   0.450   3.520 -1.5073  0.9466  2.0167
  226OCTO   H12 6078   2.275   0.315   3.613 -1.6100 -3.6229  0.1263
  226OCTO   H13 6079   2.139   0.285   3.500 -1.5708  0.2261  1.0590
  226OCTO    C2 6080   2.088   0.388   3.692  0.5519 -1.1949  0.0431
  226OCTO   H21 6081   2.134   0.461   3.763 -2.1249 -0.4937  1.1613
  226OCTO   H22 6082   1.999   0.447   3.663 -0.0803 -2.8033 -1.4692
  226OCTO    C3 6083   2.046   0.272   3.770  0.2560  0.5962 -0.6526
  226OCTO   H31 6084   2.006   0.193   3.703  2.0002 -1.7932  0.9389
  226OCTO   H32 6085   2.141   0.223   3.801  0.7569  1.0936 -1.3572
  226OCTO    C4 6086   1.947   0.305   3.885 -0.5101  0.5541 -0.2404
  226OCTO   H41 6087   1.974   0.397   3.942 -0.9477  0.1110  0.7209
  226OCTO   H42 6088   1.852   0.339   3.837 -1.1814 -0.5669  0.2641
  226OCTO    C5 6089   1.913   0.195   3.981  0.2404  0.3702  0.3328
  226OCTO   H51 6090   1.808   0.217   4.012  0.8185  0.3273  2.4619
  226OCTO   H52 6091   1.917   0.099   3.926  0.8194  0.2206  0.6285
  226OCTO    C6 6092   2.013   0.187   4.098  0.6543 -0.5695 -0.1437
  226OCTO   H61 6093   2.117   0.177   4.062  1.0489 -0.7746  1.0151
  226OCTO   H62 6094   2.003   0.273   4.168 -2.0853 -1.1350  0.2728
  226OCTO    C7 6095   1.995   0.060   4.175  0.3149  0.2285  0.1167
  226OCTO   H71 6096   2.014  -0.025   4.106  1.9133  0.2261  0.5225
  226OCTO   H72 6097   2.064   0.047   4.261 -1.3095 -0.7328  1.3382
  226OCTO    C8 6098   1.850   0.023   4.226 -0.1626 -0.3270  0.2651
  226OCTO   H81 6099   1.785   0.029   4.137  2.2542  1.3620 -1.5019
  226OCTO   H82 6100   1.819   0.099   4.302  0.3919 -0.7768  0.9568
  226OCTO    O1 6101   1.849  -0.106   4.283  0.2789  0.0300  0.1101
  226OCTO   HO1 6102   1.885  -0.165   4.217  0.6045 -2.5079  2.3873
  227OCTO    C1 6103   1.792   1.199   3.544  0.4767 -0.1774 -0.1055
  227OCTO   H11 6104   1.893   1.220   3.586 -0.0355  0.6951  0.7278
  227OCTO   H12 6105   1.717   1.228   3.620 -1.2047 -0.8960 -1.4122
  227OCTO   H13 6106   1.784   1.095   3.504  0.0623 -0.0729 -0.3004
  227OCTO    C2 6107   1.778   1.283   3.412  0.3069 -0.0411  0.6344
  227OCTO   H21 6108   1.670   1.278   3.383  0.0443  1.0068  1.3576
  227OCTO   H22 6109   1.802   1.390   3.432  1.2696  0.3137 -1.9601
  227OCTO    C3 6110   1.864   1.227   3.305  0.4003  0.0968 -0.0312
  227OCTO   H31 6111   1.845   1.119   3.285 -1.9058  0.6421 -1.2063
  227OCTO   H32 6112   1.849   1.286   3.212 -0.3982  0.9452  0.6230
  227OCTO    C4 6113   2.009   1.235   3.342 -0.3198 -0.5780  1.0465
  227OCTO   H41 6114   2.032   1.339   3.377 -0.2658 -0.0132 -0.5901
  227OCTO   H42 6115   2.039   1.164   3.422  0.3881 -1.5679 -0.0663
  227OCTO    C5 6116   2.105   1.203   3.224  0.4675  0.3242 -0.1344
  227OCTO   H51 6117   2.072   1.103   3.187 -0.8286 -0.0342  1.8367
  227OCTO   H52 6118   2.080   1.276   3.143 -1.2586  2.5267  2.2274
  227OCTO    C6 6119   2.255   1.193   3.263  0.2869  0.5663 -0.2224
  227OCTO   H61 6120   2.284   1.289   3.312 -0.8741  0.4662  0.7082
  227OCTO   H62 6121   2.276   1.107   3.330  0.1303  1.2385  0.7233
  227OCTO    C7 6122   2.349   1.173   3.146  0.4618  0.4645  0.3503
  227OCTO   H71 6123   2.311   1.099   3.072  0.0611  1.4975 -0.5137
  227OCTO   H72 6124   2.344   1.262   3.079 -1.5283  0.1024 -0.0394
  227OCTO    C8 6125   2.495   1.154   3.190 -0.3995 -0.3302  0.7835
  227OCTO   H81 6126   2.512   1.069   3.260  0.0863  0.4031  1.5756
  227OCTO   H82 6127   2.515   1.247   3.246  1.1240  0.8047 -1.4697
  227OCTO    O1 6128   2.577   1.157   3.072 -0.4344 -0.2341  0.1061
  227OCTO   HO1 6129   2.572   1.069   3.034 -1.1868 -0.6639  1.1537
  228OCTO    C1 6130   1.312   3.623   1.313 -0.4058  0.1364 -0.8246
  228OCTO   H11 6131   1.326   3.586   1.210 -0.2173 -2.2274 -0.0195
  228OCTO   H12 6132   1.416   3.626   1.352 -0.6966 -0.8533  0.0664
  228OCTO   H13 6133   1.269   3.539   1.371 -2.0650 -0.2594 -2.5440
  228OCTO    C2 6134   1.225   3.746   1.332  0.6787 -0.8567 -0.2466
  228OCTO   H21 6135   1.200   3.759   1.440  3.2940 -0.4258  0.3717
  228OCTO   H22 6136   1.289   3.833   1.306  0.1178  0.1829  1.6486
  228OCTO    C3 6137   1.088   3.752   1.255 -0.0735  0.8745  0.5173
  228OCTO   H31 6138   1.111   3.756   1.147 -0.3381  1.8833  0.4888
  228OCTO   H32 6139   1.042   3.652   1.271 -0.0674  0.3466 -2.2506
  228OCTO    C4 6140   0.993   3.861   1.310  0.2878  0.2290  0.2773
  228OCTO   H41 6141   0.955   3.835   1.412 -0.4546  0.2207  0.0093
  228OCTO   H42 6142   1.057   3.952   1.322  0.9856 -0.1168 -0.7820
  228OCTO    C5 6143   0.876   3.872   1.211 -0.0253 -0.2582 -1.1112
  228OCTO   H51 6144   0.921   3.878   1.109  1.0232 -1.6277 -0.7563
  228OCTO   H52 6145   0.826   3.774   1.219  1.4003 -0.9551 -0.3948
  228OCTO    C6 6146   0.776   3.986   1.245  0.2858  0.0646 -0.7300
  228OCTO   H61 6147   0.818   4.079   1.202 -0.1778  0.6414  0.0442
  228OCTO   H62 6148   0.676   3.971   1.199 -0.3312 -1.5377  0.9936
  228OCTO    C7 6149   0.750   4.007   1.399 -0.3761  0.0374  0.4932
  228OCTO   H71 6150   0.723   3.916   1.456  0.3622 -0.4153  0.1416
  228OCTO   H72 6151   0.842   4.046   1.448 -0.0602 -1.5229  1.2263
  228OCTO    C8 6152   0.633   4.109   1.423 -0.0237  0.5810 -0.1439
  228OCTO   H81 6153   0.575   4.099   1.517 -0.8844 -0.0577 -0.7223
  228OCTO   H82 6154   0.550   4.090   1.351 -0.7529 -0.0877  0.8501
  228OCTO    O1 6155   0.681   4.245   1.401 -0.1267 -0.2818  0.6373
  228OCTO   HO1 6156   0.763   4.245   1.451 -1.1124  0.0226  2.3197
  229OCTO    C1 6157   3.218   3.540   1.971 -1.1955 -0.2863 -0.1596
  229OCTO   H11 6158   3.199   3.430   1.969  1.4248 -0.8752  1.7255
  229OCTO   H12 6159   3.326   3.548   1.997 -1.4707 -0.5143  1.1312
  229OCTO   H13 6160   3.173   3.594   2.057 -1.8617  0.9367 -1.2464
  229OCTO    C2 6161   3.192   3.622   1.840 -0.0060 -0.0561 -0.6758
  229OCTO   H21 6162   3.089   3.608   1.803  0.4461 -0.0651 -2.0060
  229OCTO   H22 6163   3.215   3.728   1.867 -0.6610 -0.8239  3.5339
  229OCTO    C3 6164   3.292   3.577   1.733 -0.2511  0.4717 -0.5164
  229OCTO   H31 6165   3.280   3.651   1.651  2.1850  0.1784 -1.1961
  229OCTO   H32 6166   3.391   3.598   1.778 -0.1551  2.2160 -1.4243
  229OCTO    C4 6167   3.259   3.442   1.669  0.0634 -0.5497  0.3359
  229OCTO   H41 6168   3.259   3.372   1.756 -2.5113  0.7352  1.4747
  229OCTO   H42 6169   3.160   3.440   1.619  0.3886 -2.2888 -0.3363
  229OCTO    C5 6170   3.362   3.399   1.565 -0.0053  0.0927  0.3369
  229OCTO   H51 6171   3.370   3.474   1.484  0.4473 -1.7200 -1.3899
  229OCTO   H52 6172   3.461   3.394   1.616  0.9728  1.5191 -1.3118
  229OCTO    C6 6173   3.332   3.266   1.496  1.1110  0.2271 -0.2082
  229OCTO   H61 6174   3.226   3.260   1.461  0.2912 -2.2325  2.2822
  229OCTO   H62 6175   3.394   3.248   1.406  1.1996 -1.4362  0.1434
  229OCTO    C7 6176   3.351   3.148   1.599 -0.3263  0.1781 -0.2492
  229OCTO   H71 6177   3.284   3.165   1.686 -2.1809  2.2919 -1.9672
  229OCTO   H72 6178   3.313   3.056   1.550 -2.5785  0.4256  0.8429
  229OCTO    C8 6179   3.490   3.124   1.663 -0.1714  0.8262 -0.0020
  229OCTO   H81 6180   3.479   3.040   1.736  1.2308  0.7029  0.1120
  229OCTO   H82 6181   3.540   3.201   1.725  0.3596  0.4501  0.0479
  229OCTO    O1 6182   3.579   3.095   1.560  0.0206  0.3439 -0.8644
  229OCTO   HO1 6183   3.556   3.013   1.516  0.0984 -0.5905  0.7886
  230OCTO    C1 6184   0.564   1.088   0.918  0.0677  0.1147 -0.2965
  230OCTO   H11 6185   0.653   1.113   0.857  2.3448 -3.4912  1.2045
  230OCTO   H12 6186   0.560   0.977   0.928 -0.8592  0.2128  0.5117
  230OCTO   H13 6187   0.471   1.120   0.865  1.7937  3.0994 -1.7592
  230OCTO    C2 6188   0.589   1.136   1.063 -0.1820 -0.2005 -0.2729
  230OCTO   H21 6189   0.544   1.066   1.137  0.1203 -1.9689 -1.6939
  230OCTO   H22 6190   0.696   1.117   1.085 -0.2798 -2.2220 -1.3166
  230OCTO    C3 6191   0.541   1.278   1.083 -0.4444 -0.3926  0.4235
  230OCTO   H31 6192   0.579   1.305   1.184 -0.0844  2.1471 -0.3270
  230OCTO   H32 6193   0.585   1.346   1.006 -0.8143  0.7776  1.2262
  230OCTO    C4 6194   0.384   1.286   1.072 -1.1490 -0.0759 -0.2511
  230OCTO   H41 6195   0.356   1.255   0.969  0.0750 -0.5808 -0.4406
  230OCTO   H42 6196   0.336   1.212   1.140 -1.2071 -0.1582 -0.3824
  230OCTO    C5 6197   0.334   1.425   1.114 -0.9730  0.3603  0.2297
  230OCTO   H51 6198   0.372   1.460   1.212  1.0331 -1.8348  0.3144
  230OCTO   H52 6199   0.364   1.506   1.043  0.1874  1.6196  2.0776
  230OCTO    C6 6200   0.180   1.431   1.120 -0.6162 -0.4812 -0.6003
  230OCTO   H61 6201   0.133   1.417   1.020 -2.2853 -1.0477  0.2312
  230OCTO   H62 6202   0.142   1.352   1.189 -1.3328 -1.2863 -1.8589
  230OCTO    C7 6203   0.128   1.559   1.177 -0.3088 -0.0598 -0.7100
  230OCTO   H71 6204   0.187   1.585   1.268 -0.1413  0.6656 -1.0171
  230OCTO   H72 6205   0.136   1.637   1.098 -1.3339 -1.3957 -2.1918
  230OCTO    C8 6206  -0.019   1.557   1.225 -0.1497 -0.4786  0.3929
  230OCTO   H81 6207  -0.040   1.470   1.290 -0.1941 -1.1625 -0.5157
  230OCTO   H82 6208  -0.087   1.557   1.137  2.8052  0.2788 -2.0778
  230OCTO    O1 6209  -0.041   1.674   1.304  0.7375  0.2496  0.7535
  230OCTO   HO1 6210  -0.134   1.662   1.326  0.6343 -0.7934 -0.1577
  231OCTO    C1 6211   3.585   2.481   0.582 -0.2884  0.2060  0.5100
  231OCTO   H11 6212   3.530   2.510   0.674  0.3295  1.4750  0.4980
  231OCTO   H12 6213   3.609   2.374   0.605 -2.1514 -1.1511 -3.1314
  231OCTO   H13 6214   3.676   2.544   0.585 -0.4440  0.4616 -0.1279
  231OCTO    C2 6215   3.508   2.489   0.449  0.2783 -0.2409 -0.0810
  231OCTO   H21 6216   3.458   2.587   0.431  1.3221  0.2992 -0.1362
  231OCTO   H22 6217   3.574   2.472   0.362  0.4150  0.8427 -0.2020
  231OCTO    C3 6218   3.392   2.392   0.461  0.0598  0.0386  0.1914
  231OCTO   H31 6219   3.438   2.296   0.493  0.1875  0.4815  1.4157
  231OCTO   H32 6220   3.315   2.408   0.540 -1.9231  0.1265 -1.6947
  231OCTO    C4 6221   3.332   2.371   0.324  0.0497  0.9023  0.6533
  231OCTO   H41 6222   3.279   2.463   0.294  0.3880  0.8490 -0.1331
  231OCTO   H42 6223   3.407   2.352   0.245 -0.5854  0.1837  0.2153
  231OCTO    C5 6224   3.243   2.250   0.302  0.0141 -0.5804  0.5318
  231OCTO   H51 6225   3.295   2.153   0.317  0.4609 -0.2440  1.2213
  231OCTO   H52 6226   3.160   2.244   0.376 -1.0013  0.1612 -0.5092
  231OCTO    C6 6227   3.185   2.260   0.161 -0.1035 -0.3519 -0.1360
  231OCTO   H61 6228   3.143   2.363   0.153  0.3107 -0.1488  0.2613
  231OCTO   H62 6229   3.262   2.248   0.082 -0.7592 -2.5985 -0.5032
  231OCTO    C7 6230   3.070   2.155   0.141 -0.0445  0.5710 -0.2913
  231OCTO   H71 6231   3.115   2.054   0.132  1.6402  1.4060 -2.1309
  231OCTO   H72 6232   2.997   2.167   0.224  0.1818  1.4811 -0.2055
  231OCTO    C8 6233   3.001   2.162   0.002  0.1553 -0.2440 -0.2474
  231OCTO   H81 6234   3.074   2.167  -0.082 -1.1587  1.1545 -1.3691
  231OCTO   H82 6235   2.940   2.255  -0.003  0.7509  0.1353 -0.5107
  231OCTO    O1 6236   2.903   2.059  -0.014 -0.3506 -0.4248 -0.6954
  231OCTO   HO1 6237   2.878   2.070  -0.106 -2.0996  2.2617 -0.0209
  232OCTO    C1 6238   4.086   0.144   3.882 -0.4547  0.0656  0.5269
  232OCTO   H11 6239   4.013   0.114   3.960 -1.4344 -0.1981 -0.4583
  232OCTO   H12 6240   4.145   0.226   3.929 -2.1258  0.6900  1.6117
  232OCTO   H13 6241   4.023   0.178   3.797 -2.8142 -3.1466  0.7993
  232OCTO    C2 6242   4.160   0.015   3.845 -0.0650 -0.2566 -0.0675
  232OCTO   H21 6243   4.080  -0.061   3.829 -2.5485  2.0350  0.5957
  232OCTO   H22 6244   4.207   0.040   3.747 -2.1582 -0.2808 -1.1538
  232OCTO    C3 6245   4.263  -0.043   3.939 -0.2201 -0.4286  0.1683
  232OCTO   H31 6246   4.334   0.039   3.960  0.4796 -0.6915 -1.0832
  232OCTO   H32 6247   4.214  -0.054   4.038  0.1181  1.7484  0.6331
  232OCTO    C4 6248   4.326  -0.173   3.886 -0.6055 -0.2511 -0.4514
  232OCTO   H41 6249   4.383  -0.214   3.972  0.9013  3.8363  0.7219
  232OCTO   H42 6250   4.254  -0.248   3.847 -0.6735 -0.4225 -0.0122
  232OCTO    C5 6251   4.425  -0.139   3.771 -0.2464  0.0054 -0.5794
  232OCTO   H51 6252   4.373  -0.077   3.694  0.5281 -1.3117 -2.2431
  232OCTO   H52 6253   4.503  -0.074   3.815 -0.1726 -1.6734  2.0011
  232OCTO    C6 6254   4.501  -0.244   3.699  0.4325 -0.5888 -0.3824
  232OCTO   H61 6255   4.419  -0.319   3.689 -0.1849 -0.1590  1.1360
  232OCTO   H62 6256   4.527  -0.201   3.600  1.2324  1.3070  0.5995
  232OCTO    C7 6257   4.617  -0.297   3.793  0.0147 -0.1348 -0.3083
  232OCTO   H71 6258   4.689  -0.227   3.840 -0.5952  0.6071 -0.4509
  232OCTO   H72 6259   4.573  -0.346   3.882  0.1718 -0.5936 -0.4793
  232OCTO    C8 6260   4.693  -0.402   3.717 -0.3895  0.6046  0.1190
  232OCTO   H81 6261   4.725  -0.365   3.617  1.1231 -1.8099 -0.3898
  232OCTO   H82 6262   4.620  -0.480   3.685  0.0988 -0.2137  0.9360
  232OCTO    O1 6263   4.804  -0.453   3.782 -0.5341  0.8964  0.3116
  232OCTO   HO1 6264   4.871  -0.386   3.793  3.2521 -2.5683  0.5835
  233OCTO    C1 6265   0.557   1.719   1.299 -0.3327 -0.0308  0.0675
  233OCTO   H11 6266   0.623   1.647   1.246 -0.5090 -0.3464  0.2711
  233OCTO   H12 6267   0.483   1.657   1.353  0.4120  0.3890  1.6403
  233OCTO   H13 6268   0.505   1.785   1.226 -2.1038 -2.5203 -1.0726
  233OCTO    C2 6269   0.638   1.797   1.404  0.6529 -0.8693 -0.2027
  233OCTO   H21 6270   0.571   1.843   1.479 -0.1241 -1.6316 -0.4067
  233OCTO   H22 6271   0.698   1.719   1.454  0.6456  0.0658  1.3248
  233OCTO    C3 6272   0.720   1.911   1.349 -0.8852  0.1718 -0.0146
  233OCTO   H31 6273   0.658   1.997   1.314 -0.6188  1.2196  1.9500
  233OCTO   H32 6274   0.788   1.963   1.420 -0.6761  1.3441 -1.0251
  233OCTO    C4 6275   0.812   1.859   1.236 -0.0890  0.6743 -0.7032
  233OCTO   H41 6276   0.874   1.772   1.264  0.5834  0.9176 -1.3899
  233OCTO   H42 6277   0.756   1.833   1.144  0.4572 -0.4219 -0.7333
  233OCTO    C5 6278   0.910   1.968   1.193 -0.1330 -0.4717 -0.1732
  233OCTO   H51 6279   0.872   2.071   1.178 -0.1402 -0.4517 -0.0267
  233OCTO   H52 6280   0.986   1.980   1.273  1.9914  2.3684 -2.4147
  233OCTO    C6 6281   1.000   1.931   1.077  0.5362  0.0722 -0.4502
  233OCTO   H61 6282   1.045   1.829   1.088 -2.6253 -1.4080 -0.2510
  233OCTO   H62 6283   0.938   1.920   0.986 -0.9784  0.6247  0.4882
  233OCTO    C7 6284   1.116   2.031   1.040 -0.1586 -0.3073 -0.1532
  233OCTO   H71 6285   1.184   2.053   1.125  3.7467 -2.4630 -2.4418
  233OCTO   H72 6286   1.176   1.972   0.968  0.1315  0.7444 -0.7830
  233OCTO    C8 6287   1.060   2.150   0.963 -0.2478 -0.7455 -0.0206
  233OCTO   H81 6288   0.970   2.197   1.008 -0.2747 -0.9080  0.0944
  233OCTO   H82 6289   1.018   2.108   0.869 -1.1763  1.0754 -0.4769
  233OCTO    O1 6290   1.159   2.244   0.939 -0.0313  0.2835 -0.1892
  233OCTO   HO1 6291   1.161   2.251   0.843 -1.8855 -0.9471 -0.3590
  234OCTO    C1 6292   1.658   3.915   2.091  0.3404  0.7023 -0.5162
  234OCTO   H11 6293   1.572   3.849   2.069 -0.0163  1.3316 -1.0722
  234OCTO   H12 6294   1.750   3.869   2.051  0.4207 -0.3738  0.8634
  234OCTO   H13 6295   1.677   3.930   2.200  2.5356 -3.3771 -0.1276
  234OCTO    C2 6296   1.630   4.045   2.018 -0.1086  0.1863  0.1872
  234OCTO   H21 6297   1.725   4.103   2.021  2.2424 -3.3930  1.1489
  234OCTO   H22 6298   1.613   4.022   1.910  0.7683  2.3150 -0.4597
  234OCTO    C3 6299   1.511   4.122   2.072  0.6118  0.4189  0.0760
  234OCTO   H31 6300   1.416   4.068   2.056 -0.2918  0.9491  3.0940
  234OCTO   H32 6301   1.520   4.143   2.181 -0.1749  0.5777  0.1133
  234OCTO    C4 6302   1.488   4.251   2.002 -0.0673  0.0061 -0.3508
  234OCTO   H41 6303   1.555   4.333   2.034 -0.9053  0.6178 -0.1096
  234OCTO   H42 6304   1.512   4.241   1.894 -1.9947  1.3155 -0.9535
  234OCTO    C5 6305   1.345   4.304   2.023 -0.1134 -0.0615 -0.4081
  234OCTO   H51 6306   1.345   4.400   1.968 -3.8259 -0.0141 -0.5614
  234OCTO   H52 6307   1.279   4.233   1.969 -0.6582  0.6123 -0.6273
  234OCTO    C6 6308   1.302   4.321   2.165 -0.4702  0.6463  0.4778
  234OCTO   H61 6309   1.320   4.230   2.226  1.8270  0.1132 -0.8496
  234OCTO   H62 6310   1.350   4.409   2.213  1.3851  0.0147 -0.1157
  234OCTO    C7 6311   1.151   4.336   2.167  0.0202  0.5869 -0.4867
  234OCTO   H71 6312   1.118   4.426   2.111 -3.2158  0.0025  0.2703
  234OCTO   H72 6313   1.101   4.246   2.124 -0.0757 -0.1781  1.1448
  234OCTO    C8 6314   1.102   4.355   2.315  0.6446 -0.1000 -0.3238
  234OCTO   H81 6315   1.156   4.445   2.351 -0.1971  0.0056  0.7376
  234OCTO   H82 6316   1.135   4.265   2.372 -0.7382  0.0764  0.8253
  234OCTO    O1 6317   0.967   4.381   2.318  0.0842 -0.0969 -0.5292
  234OCTO   HO1 6318   0.931   4.400   2.405  1.5575  1.5676 -0.2120
  235OCTO    C1 6319   3.493   2.943   0.034  0.2272  0.5860  0.7349
  235OCTO   H11 6320   3.533   3.029  -0.024 -2.5856 -0.3580 -3.0243
  235OCTO   H12 6321   3.429   2.975   0.119 -0.3840 -1.2815  1.0223
  235OCTO   H13 6322   3.574   2.885   0.083  0.1025 -1.5362 -1.3718
  235OCTO    C2 6323   3.417   2.857  -0.062 -0.6426  1.1298  0.0987
  235OCTO   H21 6324   3.323   2.910  -0.088  0.5586  3.3503  0.0443
  235OCTO   H22 6325   3.483   2.834  -0.147 -0.9631  1.2043 -0.1717
  235OCTO    C3 6326   3.379   2.718  -0.009  0.4849 -0.2037 -0.1302
  235OCTO   H31 6327   3.477   2.669   0.008  0.9373  0.5568 -0.5176
  235OCTO   H32 6328   3.326   2.714   0.088  1.5814 -1.8036  0.4466
  235OCTO    C4 6329   3.299   2.625  -0.114 -0.1768 -0.0705 -0.2396
  235OCTO   H41 6330   3.330   2.639  -0.220 -1.6779  3.0814 -0.3810
  235OCTO   H42 6331   3.309   2.517  -0.089 -1.5754 -0.1375  0.1488
  235OCTO    C5 6332   3.154   2.647  -0.095 -0.7951 -0.3527 -0.9824
  235OCTO   H51 6333   3.135   2.659   0.013  0.2787 -0.5449 -0.7596
  235OCTO   H52 6334   3.131   2.742  -0.149 -1.2494 -0.1349 -0.4084
  235OCTO    C6 6335   3.074   2.520  -0.119 -0.3729  0.1387 -0.0058
  235OCTO   H61 6336   3.109   2.433  -0.059 -2.8150 -1.0555 -0.1902
  235OCTO   H62 6337   2.970   2.545  -0.088  0.2560  1.8427  0.8563
  235OCTO    C7 6338   3.072   2.486  -0.260  0.4846  0.8690  0.2603
  235OCTO   H71 6339   3.174   2.459  -0.297  0.0750 -2.4225  1.2748
  235OCTO   H72 6340   3.018   2.393  -0.287  1.5760  0.5287 -0.8370
  235OCTO    C8 6341   3.026   2.595  -0.355  0.0868  0.3036  0.7246
  235OCTO   H81 6342   3.109   2.669  -0.364  1.1237 -0.9804 -0.6431
  235OCTO   H82 6343   2.945   2.649  -0.303 -0.1934 -1.3130  2.0272
  235OCTO    O1 6344   2.982   2.548  -0.481  0.6194  0.1799  0.0500
  235OCTO   HO1 6345   2.897   2.592  -0.496 -0.9550 -3.0387 -1.4556
  236OCTO    C1 6346   1.701   3.271   1.251 -0.3563 -0.0988 -0.7397
  236OCTO   H11 6347   1.684   3.163   1.236 -2.5694  0.3320 -1.5704
  236OCTO   H12 6348   1.809   3.296   1.262 -1.1713  2.9592  2.1289
  236OCTO   H13 6349   1.653   3.293   1.349  0.6999 -1.6143  0.1766
  236OCTO    C2 6350   1.637   3.362   1.143 -0.2293 -0.6723 -0.1539
  236OCTO   H21 6351   1.529   3.339   1.131 -0.1339 -1.4318  0.3672
  236OCTO   H22 6352   1.640   3.468   1.174  0.1720 -0.7227 -0.0170
  236OCTO    C3 6353   1.716   3.348   1.010  0.0594 -0.2447 -0.1638
  236OCTO   H31 6354   1.715   3.242   0.977 -0.3849  0.2399 -1.7983
  236OCTO   H32 6355   1.657   3.406   0.935 -2.7051 -0.7811  1.4591
  236OCTO    C4 6356   1.866   3.398   1.011  0.3255  0.3034  0.1254
  236OCTO   H41 6357   1.855   3.483   1.081 -1.8277  1.0943 -1.0837
  236OCTO   H42 6358   1.929   3.320   1.061 -1.5639  0.1861  2.4911
  236OCTO    C5 6359   1.916   3.450   0.873  0.6435  0.3069  0.0481
  236OCTO   H51 6360   1.824   3.465   0.812  1.9621  0.1813 -2.1058
  236OCTO   H52 6361   1.975   3.544   0.883 -0.3688  0.9322  0.2130
  236OCTO    C6 6362   1.994   3.338   0.796 -0.6025 -0.1394  0.7907
  236OCTO   H61 6363   2.095   3.329   0.841  0.3331  0.6401 -1.0256
  236OCTO   H62 6364   1.954   3.234   0.800 -0.8309 -0.2075 -1.5107
  236OCTO    C7 6365   2.016   3.380   0.643 -0.5025  0.4663 -0.3205
  236OCTO   H71 6366   2.075   3.291   0.613 -0.8257 -0.6427  2.1018
  236OCTO   H72 6367   1.916   3.378   0.595 -1.3961 -0.4048  1.4736
  236OCTO    C8 6368   2.092   3.513   0.628  0.0780 -0.5720 -0.0015
  236OCTO   H81 6369   2.196   3.503   0.666  0.3399 -0.0645 -0.5676
  236OCTO   H82 6370   2.043   3.602   0.672 -1.6918 -0.0028 -2.8928
  236OCTO    O1 6371   2.105   3.535   0.490 -0.4591 -0.0353  0.1945
  236OCTO   HO1 6372   2.190   3.574   0.468 -0.5357 -0.1113 -0.2526
  237OCTO    C1 6373   3.645   1.442   4.236  0.1724  0.3139  0.4066
  237OCTO   H11 6374   3.737   1.435   4.175 -0.9374 -1.2112 -1.2047
  237OCTO   H12 6375   3.631   1.373   4.322 -1.8063  0.6004  0.3645
  237OCTO   H13 6376   3.562   1.417   4.166  0.3708  1.4903 -0.2701
  237OCTO    C2 6377   3.635   1.582   4.285  0.3574 -0.4516  0.1301
  237OCTO   H21 6378   3.729   1.596   4.343  1.1454 -0.5737 -1.0911
  237OCTO   H22 6379   3.640   1.657   4.204 -1.0801 -0.6096 -0.1286
  237OCTO    C3 6380   3.516   1.616   4.381 -0.2908 -0.3789  0.1192
  237OCTO   H31 6381   3.428   1.606   4.314 -0.5164 -2.6607  0.6859
  237OCTO   H32 6382   3.489   1.541   4.459 -1.9210  0.7643  0.7070
  237OCTO    C4 6383   3.540   1.757   4.447 -0.2062  0.9081  0.3576
  237OCTO   H41 6384   3.487   1.764   4.545 -0.6402 -1.4351  0.3313
  237OCTO   H42 6385   3.648   1.744   4.467 -0.3534 -0.2491  0.4728
  237OCTO    C5 6386   3.513   1.877   4.347 -0.4025 -0.6516 -0.0980
  237OCTO   H51 6387   3.567   1.878   4.250  1.4812 -1.3798  0.8969
  237OCTO   H52 6388   3.406   1.890   4.319 -0.0714  0.3932 -0.9604
  237OCTO    C6 6389   3.540   2.018   4.408 -0.8556  0.2030 -0.3050
  237OCTO   H61 6390   3.487   2.028   4.505 -1.4454  0.0787 -0.6108
  237OCTO   H62 6391   3.648   2.018   4.433 -1.0148  0.5369  0.3947
  237OCTO    C7 6392   3.515   2.130   4.302 -0.4757  0.0801  0.1221
  237OCTO   H71 6393   3.548   2.102   4.199 -0.5823 -0.4899  0.2397
  237OCTO   H72 6394   3.405   2.139   4.290 -0.3282  3.2361  0.2801
  237OCTO    C8 6395   3.586   2.262   4.320  0.3755  0.6166  0.2346
  237OCTO   H81 6396   3.693   2.267   4.293  0.3761 -1.4987 -0.2466
  237OCTO   H82 6397   3.589   2.296   4.426 -0.2939  0.4989  0.2988
  237OCTO    O1 6398   3.518   2.359   4.240 -0.0646  0.2796 -0.1236
  237OCTO   HO1 6399   3.568   2.377   4.161 -0.6549  2.7117 -0.0155
  238OCTO    C1 6400   1.777   4.045   2.995  0.9465  0.1350 -0.1633
  238OCTO   H11 6401   1.681   4.046   2.939  0.2581  0.8763  0.9654
  238OCTO   H12 6402   1.775   3.962   3.070 -0.5506  0.5989  0.3567
  238OCTO   H13 6403   1.793   4.139   3.052  1.2597 -0.5664  0.9436
  238OCTO    C2 6404   1.888   4.013   2.896  0.0961 -0.3111  0.3293
  238OCTO   H21 6405   1.869   3.910   2.860 -2.8895 -0.4733  2.0811
  238OCTO   H22 6406   1.874   4.089   2.816  0.7872 -0.7075 -0.1794
  238OCTO    C3 6407   2.036   4.030   2.938 -0.5530  1.0272 -0.3717
  238OCTO   H31 6408   2.103   4.019   2.850 -2.1348  1.4668 -1.6834
  238OCTO   H32 6409   2.056   4.130   2.982  2.0616  1.0468 -1.3863
  238OCTO    C4 6410   2.073   3.927   3.051  0.4635 -0.4880 -0.6637
  238OCTO   H41 6411   1.981   3.907   3.109 -0.3887  0.5126 -1.6362
  238OCTO   H42 6412   2.091   3.827   3.007  1.7711 -0.0411 -1.1892
  238OCTO    C5 6413   2.197   3.969   3.130  0.2035  0.2040  0.4207
  238OCTO   H51 6414   2.276   4.003   3.060 -0.7141  0.5326 -0.4814
  238OCTO   H52 6415   2.163   4.053   3.194 -1.8356  0.1571 -0.5296
  238OCTO    C6 6416   2.245   3.855   3.219 -0.0283  1.6563 -0.0950
  238OCTO   H61 6417   2.153   3.824   3.273  0.7692  0.8681  0.8512
  238OCTO   H62 6418   2.270   3.770   3.152 -0.2919  1.8850 -0.4912
  238OCTO    C7 6419   2.350   3.900   3.320 -0.3045 -0.8368 -0.4300
  238OCTO   H71 6420   2.388   3.813   3.377  1.2054 -0.7900 -1.3045
  238OCTO   H72 6421   2.440   3.938   3.267 -1.1458 -1.7673 -2.6611
  238OCTO    C8 6422   2.296   3.998   3.420  0.4535  0.0321 -0.0845
  238OCTO   H81 6423   2.216   3.949   3.478 -0.0022 -0.8212 -1.4004
  238OCTO   H82 6424   2.258   4.094   3.380 -0.2580 -0.4401 -0.5474
  238OCTO    O1 6425   2.406   4.033   3.498  0.0376 -0.5709  0.0103
  238OCTO   HO1 6426   2.414   3.968   3.568 -0.8301  0.5954  1.2510
  239OCTO    C1 6427   3.421   0.268   1.249  0.0025  0.2152 -0.2796
  239OCTO   H11 6428   3.383   0.324   1.161 -0.4741  1.0446  0.4399
  239OCTO   H12 6429   3.329   0.219   1.289 -0.0028  0.3515 -0.1201
  239OCTO   H13 6430   3.473   0.337   1.320  0.1883 -0.8816  0.6829
  239OCTO    C2 6431   3.524   0.168   1.194 -0.2438 -0.2001 -0.1895
  239OCTO   H21 6432   3.477   0.097   1.123  2.6792 -2.2080 -0.2707
  239OCTO   H22 6433   3.603   0.226   1.141  0.5992  0.0900  1.3257
  239OCTO    C3 6434   3.602   0.095   1.306  0.4210  0.4797  0.1224
  239OCTO   H31 6435   3.678   0.162   1.352  1.9151  0.7809 -2.5928
  239OCTO   H32 6436   3.524   0.057   1.375 -0.3105  0.6337 -0.6071
  239OCTO    C4 6437   3.680  -0.031   1.255 -0.8783 -0.2772 -0.1372
  239OCTO   H41 6438   3.619  -0.116   1.218 -0.5210 -1.3229  1.5551
  239OCTO   H42 6439   3.737   0.008   1.168 -1.8380  0.4245 -0.4689
  239OCTO    C5 6440   3.778  -0.092   1.357 -0.2620  0.1094  0.3450
  239OCTO   H51 6441   3.858  -0.017   1.380  0.2660 -0.0417 -0.8837
  239OCTO   H52 6442   3.723  -0.108   1.451  0.6226  1.7498  1.1856
  239OCTO    C6 6443   3.847  -0.215   1.302  0.2623  0.1805  0.4549
  239OCTO   H61 6444   3.791  -0.304   1.267 -0.1777  1.8832 -3.8863
  239OCTO   H62 6445   3.897  -0.175   1.211  2.1349 -0.0074  1.3597
  239OCTO    C7 6446   3.950  -0.263   1.392  0.2721 -0.1750  0.1529
  239OCTO   H71 6447   4.000  -0.350   1.343  0.9386  1.3753 -2.0575
  239OCTO   H72 6448   4.028  -0.185   1.404 -1.7294  1.8036  0.9674
  239OCTO    C8 6449   3.906  -0.321   1.530  0.3094 -0.1431  0.2229
  239OCTO   H81 6450   3.843  -0.412   1.518 -0.5049  0.6881 -2.9875
  239OCTO   H82 6451   3.840  -0.246   1.578  1.1921  0.0358  1.1920
  239OCTO    O1 6452   4.022  -0.338   1.615  0.1301 -0.0017  0.7196
  239OCTO   HO1 6453   4.089  -0.285   1.572  1.1375 -0.6988  1.3891
  240OCTO    C1 6454   0.236   1.449   3.166 -0.7985 -0.0652  0.0508
  240OCTO   H11 6455   0.262   1.343   3.143  1.3723  0.1197  1.4249
  240OCTO   H12 6456   0.144   1.475   3.109 -1.3091 -1.6026  0.1150
  240OCTO   H13 6457   0.320   1.512   3.131 -0.3139 -0.6097  0.2204
  240OCTO    C2 6458   0.195   1.470   3.314 -0.2078  0.5496 -0.4948
  240OCTO   H21 6459   0.283   1.448   3.379  0.1991  0.0799 -1.1900
  240OCTO   H22 6460   0.168   1.577   3.329 -3.1475 -0.3297  1.5012
  240OCTO    C3 6461   0.063   1.400   3.366  0.0626 -0.0869 -0.9602
  240OCTO   H31 6462  -0.031   1.429   3.314 -0.0876  0.0665 -0.6055
  240OCTO   H32 6463   0.068   1.291   3.344  2.0149 -0.4730  1.0460
  240OCTO    C4 6464   0.060   1.406   3.519  0.4581 -0.4168  0.4036
  240OCTO   H41 6465   0.111   1.320   3.567  0.3985 -0.6586  0.0357
  240OCTO   H42 6466   0.102   1.506   3.543 -1.1804  0.4659 -0.2590
  240OCTO    C5 6467  -0.089   1.399   3.570  0.0441  0.2413 -0.5047
  240OCTO   H51 6468  -0.091   1.422   3.679  1.1191 -2.7544  0.2431
  240OCTO   H52 6469  -0.151   1.460   3.500  2.4382  0.5409 -2.5076
  240OCTO    C6 6470  -0.141   1.251   3.569  0.2444 -0.6350  0.5328
  240OCTO   H61 6471  -0.155   1.228   3.461 -0.3325 -0.7869  0.6357
  240OCTO   H62 6472  -0.056   1.197   3.617  1.6665  0.7900 -0.2730
  240OCTO    C7 6473  -0.275   1.230   3.637 -0.1115  0.4150  0.4180
  240OCTO   H71 6474  -0.347   1.308   3.605  0.8617  1.6855  1.2312
  240OCTO   H72 6475  -0.328   1.139   3.603  2.2037 -0.5265 -0.8759
  240OCTO    C8 6476  -0.265   1.225   3.797 -0.6235  0.1316  0.6465
  240OCTO   H81 6477  -0.212   1.310   3.845 -0.5263  1.4969 -1.7497
  240OCTO   H82 6478  -0.225   1.122   3.803 -0.1408  0.1914 -0.9407
  240OCTO    O1 6479  -0.379   1.198   3.868  0.3543 -0.2627  0.2286
  240OCTO   HO1 6480  -0.457   1.233   3.824 -0.2733 -1.8112  0.0462
  241OCTO    C1 6481   3.106   0.813   2.075 -0.0361 -0.2205  1.0373
  241OCTO   H11 6482   3.046   0.892   2.024  3.4472  1.6741 -0.4559
  241OCTO   H12 6483   3.043   0.732   2.119 -0.4534 -1.0694 -1.0039
  241OCTO   H13 6484   3.172   0.872   2.142  1.4263  0.8642 -1.2395
  241OCTO    C2 6485   3.185   0.758   1.960 -0.6901  0.1240  0.3736
  241OCTO   H21 6486   3.262   0.683   1.989 -0.0184  1.1555  1.3347
  241OCTO   H22 6487   3.111   0.707   1.894  0.5062 -0.0093 -0.9059
  241OCTO    C3 6488   3.262   0.858   1.883  0.0451 -0.0690  0.1464
  241OCTO   H31 6489   3.304   0.811   1.792  0.0760  0.3081 -0.0354
  241OCTO   H32 6490   3.190   0.932   1.842  0.4808 -1.0496 -2.5901
  241OCTO    C4 6491   3.372   0.930   1.964 -0.3246 -0.4536  0.0266
  241OCTO   H41 6492   3.324   1.001   2.034  1.4012 -0.7776  1.6265
  241OCTO   H42 6493   3.439   0.856   2.015  1.3015  0.6935 -0.3513
  241OCTO    C5 6494   3.465   1.007   1.867  0.6381  0.5419 -0.2113
  241OCTO   H51 6495   3.556   1.041   1.921  0.1128 -0.5959  1.4641
  241OCTO   H52 6496   3.505   0.937   1.790 -1.7933  1.5921 -2.5840
  241OCTO    C6 6497   3.392   1.118   1.789 -0.3704  0.5205 -0.2225
  241OCTO   H61 6498   3.320   1.073   1.717 -0.5982  0.8415 -0.1953
  241OCTO   H62 6499   3.333   1.184   1.855  1.5210  1.6375  0.4370
  241OCTO    C7 6500   3.501   1.198   1.705  0.0960 -0.0781 -0.8625
  241OCTO   H71 6501   3.593   1.135   1.706  0.1082 -0.0589  0.4816
  241OCTO   H72 6502   3.451   1.216   1.608 -0.5652  0.1461 -0.4853
  241OCTO    C8 6503   3.553   1.334   1.766 -0.0192  0.3462  0.8953
  241OCTO   H81 6504   3.617   1.320   1.856 -1.1298 -1.5668  1.4471
  241OCTO   H82 6505   3.467   1.403   1.780 -0.8369 -0.3604 -0.4775
  241OCTO    O1 6506   3.631   1.391   1.666  0.5072 -0.2076 -0.0607
  241OCTO   HO1 6507   3.667   1.474   1.699  1.0884 -1.1756  1.8618
  242OCTO    C1 6508   2.377   2.106   1.265 -0.1800  0.5269  0.6848
  242OCTO   H11 6509   2.370   2.006   1.218 -1.1566  1.1355 -0.5352
  242OCTO   H12 6510   2.272   2.139   1.281 -0.6447 -1.0372  0.9345
  242OCTO   H13 6511   2.433   2.174   1.196 -0.9395 -0.7624 -1.2858
  242OCTO    C2 6512   2.453   2.095   1.398  0.3524 -0.3295  0.7347
  242OCTO   H21 6513   2.426   2.005   1.457 -1.2266 -0.2382  0.1762
  242OCTO   H22 6514   2.562   2.090   1.377  0.2089  0.2119 -0.1932
  242OCTO    C3 6515   2.441   2.212   1.497 -0.6285 -0.0519  0.3780
  242OCTO   H31 6516   2.471   2.181   1.599 -0.9910  0.8168  0.7565
  242OCTO   H32 6517   2.497   2.299   1.458  2.8580 -1.8341  1.0293
  242OCTO    C4 6518   2.297   2.259   1.511  0.0007  0.0233 -0.4923
  242OCTO   H41 6519   2.275   2.310   1.415  1.1328  0.2811 -0.6317
  242OCTO   H42 6520   2.233   2.169   1.520  0.3800 -0.1314  0.7458
  242OCTO    C5 6521   2.276   2.370   1.624  0.4494  0.9040  0.7932
  242OCTO   H51 6522   2.277   2.321   1.724 -1.8090  1.4725  1.1479
  242OCTO   H52 6523   2.355   2.447   1.614  0.7503  0.6560  1.2325
  242OCTO    C6 6524   2.138   2.432   1.612 -0.1781 -0.0467 -0.1346
  242OCTO   H61 6525   2.129   2.480   1.512  3.7129 -0.5875 -0.9046
  242OCTO   H62 6526   2.055   2.366   1.647 -0.2757  0.8854  1.4999
  242OCTO    C7 6527   2.130   2.554   1.710 -0.0822  0.0477  0.6257
  242OCTO   H71 6528   2.169   2.530   1.811  0.8203  1.5622  0.6721
  242OCTO   H72 6529   2.193   2.637   1.671  1.3444 -1.2272  0.0884
  242OCTO    C8 6530   1.984   2.608   1.709  0.0161 -0.3343  0.2327
  242OCTO   H81 6531   1.915   2.570   1.788 -0.9513 -1.6539 -1.1784
  242OCTO   H82 6532   1.934   2.587   1.612  3.1050  1.9945 -2.0776
  242OCTO    O1 6533   1.981   2.745   1.741 -0.2395 -0.2161  0.1016
  242OCTO   HO1 6534   1.902   2.792   1.714  0.5094  0.6206 -0.7348
  243OCTO    C1 6535   2.304   0.627   2.145 -0.1268  0.0889 -0.7564
  243OCTO   H11 6536   2.223   0.551   2.146  1.1274 -1.2719 -0.7258
  243OCTO   H12 6537   2.315   0.684   2.050  2.4150  2.7515  0.9611
  243OCTO   H13 6538   2.395   0.566   2.155 -0.4343 -0.2087  0.4035
  243OCTO    C2 6539   2.290   0.733   2.255 -0.7338 -0.0504 -0.7007
  243OCTO   H21 6540   2.335   0.683   2.343 -0.9200  0.3226 -0.3897
  243OCTO   H22 6541   2.357   0.820   2.239 -1.2017  0.0650 -2.1718
  243OCTO    C3 6542   2.155   0.792   2.286  0.1805 -0.1661  0.2944
  243OCTO   H31 6543   2.161   0.880   2.353 -0.0840 -0.3605  0.5782
  243OCTO   H32 6544   2.105   0.814   2.189  0.7627 -3.0547 -0.7687
  243OCTO    C4 6545   2.051   0.695   2.343  0.4865  0.5225  0.8321
  243OCTO   H41 6546   2.033   0.608   2.276 -1.1971  2.2722 -1.1116
  243OCTO   H42 6547   2.074   0.664   2.447 -1.3455 -2.3987  0.5067
  243OCTO    C5 6548   1.909   0.752   2.363  0.2332 -0.0393  0.9589
  243OCTO   H51 6549   1.854   0.771   2.268  3.9096 -0.4053 -1.4977
  243OCTO   H52 6550   1.849   0.673   2.413 -1.2336  0.2325 -0.2878
  243OCTO    C6 6551   1.904   0.876   2.451 -0.1539  0.4759  0.0877
  243OCTO   H61 6552   1.975   0.860   2.535  0.9177  2.2674 -0.4192
  243OCTO   H62 6553   1.950   0.963   2.399 -1.5851  1.3573  0.2205
  243OCTO    C7 6554   1.761   0.906   2.493  0.1510  0.5489 -0.6775
  243OCTO   H71 6555   1.705   0.941   2.404  0.9282  1.8145 -0.7004
  243OCTO   H72 6556   1.726   0.809   2.533  1.2978  0.5186  0.3240
  243OCTO    C8 6557   1.749   1.015   2.604  0.3262  0.1377  0.2635
  243OCTO   H81 6558   1.791   1.112   2.570 -2.4081  0.9126 -1.1929
  243OCTO   H82 6559   1.798   0.974   2.695 -1.0465 -0.3770  0.7990
  243OCTO    O1 6560   1.611   1.042   2.634 -0.2164 -0.4179  0.0811
  243OCTO   HO1 6561   1.605   1.075   2.723  0.7265  0.5300 -0.1813
  244OCTO    C1 6562   1.986   0.107   1.670  0.3018 -0.2044 -0.3745
  244OCTO   H11 6563   1.913   0.187   1.646 -1.8260 -3.0821 -4.6446
  244OCTO   H12 6564   2.084   0.160   1.676 -0.4573  1.1940  0.3082
  244OCTO   H13 6565   1.995   0.036   1.586 -1.1326  1.6375 -2.1905
  244OCTO    C2 6566   1.955   0.034   1.799  0.8771  0.2305 -0.5017
  244OCTO   H21 6567   1.866  -0.032   1.788 -0.5891  1.8620  0.9816
  244OCTO   H22 6568   2.039  -0.032   1.827  0.9233 -0.4351 -2.0748
  244OCTO    C3 6569   1.942   0.121   1.922  0.0256 -0.1029 -0.7981
  244OCTO   H31 6570   2.039   0.174   1.925 -1.2779  2.4075  0.6113
  244OCTO   H32 6571   1.869   0.201   1.896  0.6941  1.2254  1.1945
  244OCTO    C4 6572   1.908   0.057   2.055 -0.2461  0.6432  0.0239
  244OCTO   H41 6573   1.915   0.138   2.131 -2.0362  0.0407  0.8892
  244OCTO   H42 6574   1.806   0.014   2.070  0.4987 -0.7835  1.3081
  244OCTO    C5 6575   2.002  -0.059   2.091  0.4753  0.4860 -0.2208
  244OCTO   H51 6576   1.983  -0.140   2.017  3.6694  0.7546 -1.4986
  244OCTO   H52 6577   2.108  -0.034   2.070 -0.2779  1.1834 -3.7906
  244OCTO    C6 6578   1.974  -0.112   2.239  0.1749 -0.4283 -0.4591
  244OCTO   H61 6579   2.000  -0.038   2.317  0.5805 -0.6380 -0.3928
  244OCTO   H62 6580   1.866  -0.136   2.241 -0.1456  0.6948 -2.5224
  244OCTO    C7 6581   2.068  -0.222   2.285  0.0574  0.1837  0.1881
  244OCTO   H71 6582   2.171  -0.199   2.250  0.1281  0.3457  0.4960
  244OCTO   H72 6583   2.067  -0.240   2.395 -2.3437  2.3831  0.6153
  244OCTO    C8 6584   2.028  -0.364   2.229  0.3951 -0.4198 -0.0610
  244OCTO   H81 6585   2.013  -0.338   2.122 -0.6732  1.2952  0.4515
  244OCTO   H82 6586   1.928  -0.394   2.269 -0.6772  0.2269 -2.0921
  244OCTO    O1 6587   2.128  -0.457   2.270 -0.1300 -0.0122  0.2878
  244OCTO   HO1 6588   2.158  -0.501   2.190 -3.0202 -1.0479 -0.3466
  245OCTO    C1 6589   0.234   1.701   4.191 -0.6546  0.3605  0.3986
  245OCTO   H11 6590   0.333   1.695   4.140 -0.0179 -1.1247  1.7084
  245OCTO   H12 6591   0.174   1.610   4.173  0.8886 -0.7849  0.8386
  245OCTO   H13 6592   0.180   1.792   4.157 -0.7913  0.6322  1.3003
  245OCTO    C2 6593   0.270   1.714   4.341  0.6740  0.6572 -0.0816
  245OCTO   H21 6594   0.172   1.710   4.395  0.8613 -1.5987  0.2078
  245OCTO   H22 6595   0.321   1.617   4.362 -0.2288  0.0264 -0.6822
  245OCTO    C3 6596   0.357   1.830   4.386 -0.0644  0.0150 -0.0433
  245OCTO   H31 6597   0.455   1.827   4.333  0.2882  0.4099  0.5836
  245OCTO   H32 6598   0.309   1.921   4.345 -0.8942 -0.3346  0.1214
  245OCTO    C4 6599   0.377   1.828   4.540  0.6509 -1.1565  0.3313
  245OCTO   H41 6600   0.284   1.868   4.586  2.0505  0.6769  1.7227
  245OCTO   H42 6601   0.408   1.728   4.577  0.8282 -0.4858  2.0616
  245OCTO    C5 6602   0.471   1.933   4.597 -0.2970 -0.2144  0.2071
  245OCTO   H51 6603   0.457   1.931   4.707 -0.1205 -0.5257  0.2241
  245OCTO   H52 6604   0.574   1.896   4.581  0.4832  2.5335 -2.0442
  245OCTO    C6 6605   0.452   2.074   4.546 -0.6989 -0.0464  0.4358
  245OCTO   H61 6606   0.459   2.085   4.436 -0.3580  0.2488  0.4850
  245OCTO   H62 6607   0.349   2.106   4.574  0.1317  2.9083  0.5203
  245OCTO    C7 6608   0.549   2.170   4.616  0.5807 -0.6146 -0.2250
  245OCTO   H71 6609   0.653   2.133   4.604  1.3162  1.5075 -0.8704
  245OCTO   H72 6610   0.543   2.265   4.560 -2.4659 -0.4381  0.2369
  245OCTO    C8 6611   0.520   2.203   4.758  0.0103 -0.3246 -0.6874
  245OCTO   H81 6612   0.555   2.120   4.822 -1.5340 -3.6811 -3.8617
  245OCTO   H82 6613   0.410   2.207   4.777 -0.1327 -3.2020 -0.5485
  245OCTO    O1 6614   0.598   2.318   4.799  0.1280 -0.5095  0.3785
  245OCTO   HO1 6615   0.568   2.346   4.885  0.4358 -1.5153  0.8328
  246OCTO    C1 6616   3.439   0.530   0.970 -0.1413  0.6294 -0.2131
  246OCTO   H11 6617   3.387   0.549   1.066  1.3562 -1.1958  1.0538
  246OCTO   H12 6618   3.407   0.593   0.884 -0.3201 -2.0487 -2.2593
  246OCTO   H13 6619   3.423   0.421   0.950 -1.3425  0.9011 -0.8026
  246OCTO    C2 6620   3.583   0.551   1.005 -0.0520  0.8191  0.0644
  246OCTO   H21 6621   3.611   0.480   1.086  1.9842 -1.1672 -2.2229
  246OCTO   H22 6622   3.644   0.532   0.914  0.6307 -1.0837  0.8849
  246OCTO    C3 6623   3.622   0.695   1.050  0.2838  0.3457 -0.1532
  246OCTO   H31 6624   3.580   0.764   0.974 -0.0964  0.4043  0.1101
  246OCTO   H32 6625   3.572   0.709   1.149  1.6510  1.4217  0.4138
  246OCTO    C4 6626   3.773   0.708   1.071  0.4456  0.0047 -0.3047
  246OCTO   H41 6627   3.824   0.628   1.013 -2.0692 -1.7020 -0.3275
  246OCTO   H42 6628   3.808   0.805   1.031  3.0383 -1.0053 -0.7299
  246OCTO    C5 6629   3.833   0.694   1.212  0.2476  0.3219 -0.5263
  246OCTO   H51 6630   3.799   0.774   1.282 -0.7312  2.3667 -3.1765
  246OCTO   H52 6631   3.780   0.604   1.251 -0.8772  1.0670 -0.3069
  246OCTO    C6 6632   3.990   0.673   1.211 -0.2214 -0.0412  0.1957
  246OCTO   H61 6633   4.016   0.589   1.142 -0.4499  0.6777 -0.7906
  246OCTO   H62 6634   4.033   0.769   1.177 -1.5861  0.6603  0.3627
  246OCTO    C7 6635   4.036   0.642   1.357 -0.1622 -0.2417  0.8124
  246OCTO   H71 6636   3.982   0.714   1.422  0.1346 -0.6154  1.4927
  246OCTO   H72 6637   4.014   0.536   1.380 -0.7733 -0.6350 -1.3961
  246OCTO    C8 6638   4.185   0.657   1.364  0.2898 -0.1142 -0.0148
  246OCTO   H81 6639   4.221   0.762   1.365 -0.8820  0.3031  0.7625
  246OCTO   H82 6640   4.244   0.599   1.289 -0.2670  0.2470 -0.7467
  246OCTO    O1 6641   4.216   0.616   1.495 -0.0097 -0.2296  0.0647
  246OCTO   HO1 6642   4.273   0.538   1.492 -1.2275 -1.2835  2.3387
  247OCTO    C1 6643   1.799   3.529   1.873  0.0771 -0.0086  0.3297
  247OCTO   H11 6644   1.878   3.459   1.905 -0.0339 -0.6565 -0.7669
  247OCTO   H12 6645   1.722   3.551   1.950  0.2590 -0.9129  0.7843
  247OCTO   H13 6646   1.740   3.474   1.797  0.5819 -1.5423  1.0073
  247OCTO    C2 6647   1.863   3.657   1.824  0.5885  0.3088 -0.1104
  247OCTO   H21 6648   1.785   3.714   1.768  1.1377  1.1856 -0.0034
  247OCTO   H22 6649   1.893   3.725   1.907 -0.6723  2.5080 -1.3482
  247OCTO    C3 6650   1.984   3.626   1.739  0.1487 -0.0337  0.1170
  247OCTO   H31 6651   2.017   3.726   1.703 -0.6539  0.3352  0.3707
  247OCTO   H32 6652   2.067   3.574   1.791 -1.0939 -1.0297  1.1544
  247OCTO    C4 6653   1.959   3.551   1.610  0.1857  0.8349 -0.6666
  247OCTO   H41 6654   1.945   3.445   1.640  0.4674  0.2405 -2.5118
  247OCTO   H42 6655   1.860   3.586   1.574 -0.4174 -0.8273 -0.6925
  247OCTO    C5 6656   2.063   3.558   1.512 -0.1338 -0.4411  0.2064
  247OCTO   H51 6657   2.084   3.660   1.471  2.9430 -1.4446 -1.0167
  247OCTO   H52 6658   2.162   3.525   1.551 -0.4164 -0.6744  0.7343
  247OCTO    C6 6659   2.021   3.453   1.404  1.0693  0.3661 -0.4129
  247OCTO   H61 6660   1.994   3.360   1.458  0.9113  0.5690 -0.1406
  247OCTO   H62 6661   1.916   3.473   1.373  0.8725 -1.9068 -1.4115
  247OCTO    C7 6662   2.126   3.432   1.286  0.0329 -0.1165 -0.5195
  247OCTO   H71 6663   2.217   3.387   1.331 -0.7135 -2.0458 -0.8544
  247OCTO   H72 6664   2.089   3.357   1.214 -0.1926 -0.2281 -0.2895
  247OCTO    C8 6665   2.155   3.560   1.210 -0.4640  0.6324 -0.6358
  247OCTO   H81 6666   2.208   3.636   1.272  0.8974 -0.1523 -0.7906
  247OCTO   H82 6667   2.057   3.592   1.170 -1.4555 -0.5569  0.7450
  247OCTO    O1 6668   2.239   3.532   1.101  0.3735  0.1903 -0.4596
  247OCTO   HO1 6669   2.224   3.597   1.032  2.2199 -0.9132 -1.9951
  248OCTO    C1 6670   0.450   1.458   0.708 -0.0131 -0.3874 -0.3489
  248OCTO   H11 6671   0.507   1.420   0.621 -1.3597  1.5664 -2.1992
  248OCTO   H12 6672   0.520   1.510   0.778 -0.7054  2.2477 -1.4897
  248OCTO   H13 6673   0.406   1.374   0.766 -1.7111  0.7975  0.1538
  248OCTO    C2 6674   0.353   1.553   0.653 -0.3719  0.4106  0.2070
  248OCTO   H21 6675   0.287   1.596   0.732 -2.6954 -0.9002 -0.9003
  248OCTO   H22 6676   0.404   1.634   0.599  1.0489 -1.0584 -0.7291
  248OCTO    C3 6677   0.261   1.487   0.547 -0.7577  0.0152 -0.7365
  248OCTO   H31 6678   0.312   1.452   0.455  1.4588  0.2940  0.3332
  248OCTO   H32 6679   0.205   1.406   0.599 -1.0026  1.1131  0.7969
  248OCTO    C4 6680   0.154   1.598   0.504  0.1771 -0.4229 -0.5127
  248OCTO   H41 6681   0.105   1.648   0.590 -1.0693 -0.6303 -1.0692
  248OCTO   H42 6682   0.200   1.683   0.450  1.5405  0.5899  2.0836
  248OCTO    C5 6683   0.043   1.534   0.418  0.7757 -0.0295 -0.2661
  248OCTO   H51 6684  -0.030   1.618   0.410  0.2327 -0.5367 -0.6481
  248OCTO   H52 6685   0.075   1.509   0.315  0.5278  0.9508 -0.5903
  248OCTO    C6 6686  -0.025   1.411   0.479  0.5858 -0.0388 -0.6320
  248OCTO   H61 6687  -0.083   1.354   0.403  1.8099  2.0452 -3.2571
  248OCTO   H62 6688   0.050   1.332   0.504 -2.3249 -2.6004  0.7777
  248OCTO    C7 6689  -0.107   1.449   0.603  0.5476 -0.0104 -0.3147
  248OCTO   H71 6690  -0.042   1.492   0.683  0.9873  0.8279 -1.1028
  248OCTO   H72 6691  -0.178   1.530   0.576 -0.0702  0.1317  1.5834
  248OCTO    C8 6692  -0.196   1.334   0.666 -0.6710  0.3892  0.0978
  248OCTO   H81 6693  -0.123   1.263   0.710  0.5240 -0.4492 -2.9633
  248OCTO   H82 6694  -0.258   1.291   0.584 -1.5408 -1.5819  1.7310
  248OCTO    O1 6695  -0.278   1.386   0.773  0.0751 -0.5821  0.6347
  248OCTO   HO1 6696  -0.296   1.314   0.834 -1.1347  0.1113  1.1335
  249OCTO    C1 6697   3.784   0.089   2.932  0.4042  0.4504 -0.2237
  249OCTO   H11 6698   3.874   0.033   2.966  1.3273 -0.0906 -3.2319
  249OCTO   H12 6699   3.804   0.191   2.892 -0.8026  0.5171 -0.6960
  249OCTO   H13 6700   3.720   0.115   3.018  1.4888 -0.5129  0.9132
  249OCTO    C2 6701   3.716   0.011   2.820 -0.2322 -0.8183  0.1476
  249OCTO   H21 6702   3.614   0.047   2.794  0.2657 -0.6176 -1.6500
  249OCTO   H22 6703   3.776   0.019   2.728  0.2012  2.4549  0.6116
  249OCTO    C3 6704   3.699  -0.141   2.859 -0.6519 -0.4931 -0.4428
  249OCTO   H31 6705   3.800  -0.185   2.874 -0.7875  0.0300  2.8313
  249OCTO   H32 6706   3.652  -0.140   2.960 -0.0496 -0.0099 -0.1608
  249OCTO    C4 6707   3.617  -0.229   2.760  0.3794  0.4881 -0.2292
  249OCTO   H41 6708   3.611  -0.333   2.798 -1.6672  0.4046 -0.6600
  249OCTO   H42 6709   3.515  -0.187   2.766 -0.3103 -1.0321 -0.7046
  249OCTO    C5 6710   3.660  -0.242   2.607 -0.5901  0.1051 -0.5621
  249OCTO   H51 6711   3.590  -0.311   2.555  0.7742 -0.0701 -2.2649
  249OCTO   H52 6712   3.659  -0.140   2.564  1.8099  1.0387  1.3193
  249OCTO    C6 6713   3.802  -0.307   2.605  0.0324  0.2977 -0.0591
  249OCTO   H61 6714   3.864  -0.245   2.673 -0.3743  0.4467  0.1786
  249OCTO   H62 6715   3.804  -0.404   2.660  2.9054  1.4447  2.1536
  249OCTO    C7 6716   3.866  -0.300   2.469 -0.5807 -0.4213 -0.3566
  249OCTO   H71 6717   3.822  -0.375   2.401 -0.2457  0.5808 -1.7119
  249OCTO   H72 6718   3.839  -0.198   2.433  1.6322  0.6904  0.9329
  249OCTO    C8 6719   4.020  -0.302   2.471  0.3459  0.9397  0.0374
  249OCTO   H81 6720   4.053  -0.400   2.510  1.4817  0.6557 -1.5315
  249OCTO   H82 6721   4.056  -0.223   2.541 -0.9093  0.4147  1.3338
  249OCTO    O1 6722   4.069  -0.288   2.340  0.2211 -0.1954  0.2970
  249OCTO   HO1 6723   4.164  -0.294   2.334  0.1816  0.5957 -2.0576
  250OCTO    C1 6724   3.275   3.486   0.557 -0.6004 -0.8735 -0.4951
  250OCTO   H11 6725   3.377   3.443   0.547  0.8579  2.1140  0.3937
  250OCTO   H12 6726   3.283   3.596   0.543  0.9897 -0.9869 -0.6891
  250OCTO   H13 6727   3.235   3.472   0.660 -1.5801  3.0665 -0.1642
  250OCTO    C2 6728   3.177   3.422   0.464 -0.0110  0.3405 -0.0331
  250OCTO   H21 6729   3.083   3.480   0.464  0.3827  1.0624  1.8552
  250OCTO   H22 6730   3.216   3.417   0.360 -0.8188  0.7225 -0.3592
  250OCTO    C3 6731   3.136   3.277   0.503 -0.3454  0.0325 -0.0865
  250OCTO   H31 6732   3.082   3.275   0.600  0.0164 -0.3132  0.1137
  250OCTO   H32 6733   3.050   3.244   0.441  0.5353  1.4272 -2.1803
  250OCTO    C4 6734   3.248   3.177   0.490  0.1554  0.4904  0.4474
  250OCTO   H41 6735   3.265   3.165   0.381  0.1736 -0.1342  0.5164
  250OCTO   H42 6736   3.347   3.211   0.526  0.1719  0.4569  0.4331
  250OCTO    C5 6737   3.210   3.045   0.544 -0.0191  0.2828  0.2737
  250OCTO   H51 6738   3.216   3.060   0.654 -0.2698 -3.1291  0.8778
  250OCTO   H52 6739   3.106   3.020   0.514 -0.0832  1.7941 -0.8285
  250OCTO    C6 6740   3.297   2.934   0.490 -0.3052  0.2270  0.2935
  250OCTO   H61 6741   3.283   2.936   0.379  1.2818 -0.2803  0.0564
  250OCTO   H62 6742   3.400   2.964   0.520 -1.1353  1.8947  1.6526
  250OCTO    C7 6743   3.259   2.803   0.563  0.2636 -0.5111  0.0401
  250OCTO   H71 6744   3.151   2.790   0.543 -0.5760  3.0362  1.4007
  250OCTO   H72 6745   3.299   2.711   0.517 -1.0329 -0.2439 -1.7079
  250OCTO    C8 6746   3.294   2.785   0.714 -0.7635  0.0193 -0.0894
  250OCTO   H81 6747   3.241   2.859   0.778  0.9147  0.1888  1.1637
  250OCTO   H82 6748   3.403   2.783   0.734 -1.0671 -2.4023  1.8528
  250OCTO    O1 6749   3.249   2.654   0.749  0.1365 -0.5040  0.2461
  250OCTO   HO1 6750   3.291   2.585   0.697 -2.1032 -2.2389  0.5807
  251OCTO    C1 6751   0.495   1.775   1.995  0.2395  0.6913  0.4108
  251OCTO   H11 6752   0.421   1.694   2.019  0.5686  0.8909  2.2152
  251OCTO   H12 6753   0.590   1.740   1.951  0.1055  1.8432 -0.8611
  251OCTO   H13 6754   0.514   1.828   2.090 -1.3235 -0.1226  1.2274
  251OCTO    C2 6755   0.423   1.880   1.918 -0.0735  0.0205  0.5853
  251OCTO   H21 6756   0.490   1.964   1.893  1.1644 -1.5430 -1.6966
  251OCTO   H22 6757   0.396   1.834   1.820  0.0960 -0.9890  0.9957
  251OCTO    C3 6758   0.299   1.942   1.981 -0.1197  0.3205  0.0002
  251OCTO   H31 6759   0.216   1.868   1.983 -1.0228  1.2112 -2.0747
  251OCTO   H32 6760   0.334   1.963   2.084 -1.4941  0.6808  0.4102
  251OCTO    C4 6761   0.254   2.066   1.909  0.1525 -0.3032 -0.1549
  251OCTO   H41 6762   0.154   2.092   1.951 -0.1900  0.3895 -1.3457
  251OCTO   H42 6763   0.329   2.144   1.931  0.0690 -0.1000 -0.5854
  251OCTO    C5 6764   0.222   2.040   1.757 -0.1852 -0.3534 -0.2222
  251OCTO   H51 6765   0.184   2.129   1.702 -0.3769 -1.5141 -2.0620
  251OCTO   H52 6766   0.321   2.023   1.710  0.4040 -0.2610  0.9470
  251OCTO    C6 6767   0.130   1.925   1.737  0.5557  0.0023  0.0969
  251OCTO   H61 6768   0.174   1.825   1.760 -0.6341 -0.3740  0.7881
  251OCTO   H62 6769   0.047   1.929   1.811  1.7133  0.7928  1.3927
  251OCTO    C7 6770   0.063   1.928   1.601  0.0512 -0.1226 -0.1867
  251OCTO   H71 6771  -0.022   1.857   1.603  0.7923 -1.0257  0.4339
  251OCTO   H72 6772   0.032   2.033   1.587 -1.0999 -0.2844  0.9585
  251OCTO    C8 6773   0.164   1.890   1.487 -0.4935  0.1400 -0.9307
  251OCTO   H81 6774   0.188   1.782   1.489 -1.4378 -0.1382 -2.6532
  251OCTO   H82 6775   0.262   1.941   1.495 -0.6059  0.0660  2.1657
  251OCTO    O1 6776   0.115   1.927   1.359  0.4663 -0.0303 -0.3225
  251OCTO   HO1 6777   0.063   1.855   1.322  1.0260  0.0518 -1.3080
  252OCTO    C1 6778   1.244   2.986   3.781  0.4424  0.2404  0.0375
  252OCTO   H11 6779   1.171   2.915   3.825  1.6049 -0.3236  1.1305
  252OCTO   H12 6780   1.332   2.988   3.849 -0.9526 -1.1660  1.9842
  252OCTO   H13 6781   1.195   3.085   3.785 -1.9120 -0.8567  0.0357
  252OCTO    C2 6782   1.280   2.939   3.640 -0.5980 -0.3404  0.5835
  252OCTO   H21 6783   1.368   2.997   3.603 -0.7481 -0.9544 -0.8098
  252OCTO   H22 6784   1.315   2.834   3.634  0.3120 -0.0033 -0.3262
  252OCTO    C3 6785   1.169   2.974   3.539 -0.4355 -0.5584  0.2265
  252OCTO   H31 6786   1.077   2.929   3.581 -0.8350 -0.1599 -0.2079
  252OCTO   H32 6787   1.144   3.082   3.538  1.4301 -0.0810 -1.0431
  252OCTO    C4 6788   1.200   2.937   3.395  0.2294 -0.4990  0.1938
  252OCTO   H41 6789   1.130   2.999   3.335  1.3244  1.1730  0.5512
  252OCTO   H42 6790   1.307   2.955   3.369 -0.1860  0.3025 -1.0638
  252OCTO    C5 6791   1.160   2.791   3.383  0.2231 -0.3555 -0.1177
  252OCTO   H51 6792   1.218   2.726   3.453 -1.3131 -1.6043  0.0537
  252OCTO   H52 6793   1.053   2.770   3.402 -0.4249  1.8664 -1.0102
  252OCTO    C6 6794   1.173   2.737   3.236  0.4983  0.4939  0.2035
  252OCTO   H61 6795   1.143   2.817   3.165  1.9974  0.0422 -0.9782
  252OCTO   H62 6796   1.282   2.731   3.215  0.1742 -1.2239 -1.2574
  252OCTO    C7 6797   1.112   2.605   3.197  0.0721 -0.4151  0.2405
  252OCTO   H71 6798   1.001   2.607   3.198  0.0753  0.5355  0.1198
  252OCTO   H72 6799   1.145   2.586   3.093  0.8773  2.1653 -0.0509
  252OCTO    C8 6800   1.173   2.486   3.281 -0.3523  0.3020  0.0120
  252OCTO   H81 6801   1.148   2.495   3.389  2.5398 -0.7614  0.8689
  252OCTO   H82 6802   1.283   2.503   3.287 -0.4748  0.6485  3.8546
  252OCTO    O1 6803   1.132   2.362   3.221  0.3536  0.0365 -0.1930
  252OCTO   HO1 6804   1.194   2.338   3.151 -0.4374 -1.4406 -0.4080
  253OCTO    C1 6805   3.090   1.161   4.038 -0.0367 -0.1268  0.4097
  253OCTO   H11 6806   3.028   1.085   4.090 -2.1800  0.2992 -1.3826
  253OCTO   H12 6807   3.020   1.221   3.976  0.1806 -0.4109 -0.1164
  253OCTO   H13 6808   3.163   1.112   3.971 -1.1765 -1.0272 -0.1936
  253OCTO    C2 6809   3.174   1.234   4.148  0.1428  0.6679  0.2957
  253OCTO   H21 6810   3.208   1.157   4.221  0.7938  0.7003  0.0303
  253OCTO   H22 6811   3.260   1.289   4.104 -0.7308  1.0157 -1.0406
  253OCTO    C3 6812   3.098   1.329   4.239 -0.0764 -0.1944 -0.5371
  253OCTO   H31 6813   3.006   1.279   4.275  0.7815 -0.2517  1.7694
  253OCTO   H32 6814   3.166   1.346   4.325  0.8437  2.3895 -1.6807
  253OCTO    C4 6815   3.058   1.460   4.178 -0.4851  0.2015 -0.1337
  253OCTO   H41 6816   3.010   1.444   4.079  1.4086 -0.5771 -0.9615
  253OCTO   H42 6817   2.986   1.514   4.244  0.8996  1.5923  0.2935
  253OCTO    C5 6818   3.173   1.563   4.148 -0.0401  0.0039 -0.1516
  253OCTO   H51 6819   3.211   1.583   4.251 -0.2462  1.7307 -0.3760
  253OCTO   H52 6820   3.246   1.520   4.077  0.1191 -0.1716  0.1174
  253OCTO    C6 6821   3.126   1.703   4.103 -0.4530 -0.2844 -0.4223
  253OCTO   H61 6822   3.092   1.688   3.999 -0.5003 -6.2948  0.1128
  253OCTO   H62 6823   3.052   1.743   4.176 -0.1284  0.1350 -0.3207
  253OCTO    C7 6824   3.249   1.804   4.108  0.0578 -0.3549 -0.7308
  253OCTO   H71 6825   3.213   1.909   4.112 -1.3951 -0.8717  0.9973
  253OCTO   H72 6826   3.296   1.778   4.206 -1.6679 -1.2542 -0.0963
  253OCTO    C8 6827   3.349   1.799   3.989  0.0332 -0.0385 -0.2920
  253OCTO   H81 6828   3.382   1.694   3.974 -0.8386 -0.1906 -1.2675
  253OCTO   H82 6829   3.434   1.866   4.016 -0.5402 -0.5131  3.1727
  253OCTO    O1 6830   3.284   1.833   3.864  0.6549  1.2142 -0.1004
  253OCTO   HO1 6831   3.261   1.926   3.864 -3.2488  0.4572 -1.6769
  254OCTO    C1 6832   2.657   0.350   4.313  1.1127  0.1957 -0.4813
  254OCTO   H11 6833   2.764   0.366   4.339  1.4057  0.3585 -1.6951
  254OCTO   H12 6834   2.654   0.300   4.214 -1.7485 -1.5615  0.3706
  254OCTO   H13 6835   2.582   0.433   4.314 -0.9944 -1.5813 -1.5466
  254OCTO    C2 6836   2.587   0.245   4.406 -0.1198  0.1924 -0.1038
  254OCTO   H21 6837   2.600   0.281   4.511  2.2949 -2.2174  0.5360
  254OCTO   H22 6838   2.481   0.225   4.382 -0.3053  0.0963  0.7586
  254OCTO    C3 6839   2.658   0.111   4.398 -0.4133 -0.1467  0.0241
  254OCTO   H31 6840   2.654   0.081   4.291 -1.4418 -2.8545  0.7520
  254OCTO   H32 6841   2.767   0.124   4.414  0.0802 -1.2093 -2.1081
  254OCTO    C4 6842   2.601   0.002   4.484 -0.9697  0.6781 -0.3268
  254OCTO   H41 6843   2.615   0.035   4.589  1.2793  0.2832 -0.4526
  254OCTO   H42 6844   2.498  -0.035   4.468 -0.6638  0.2194 -1.3391
  254OCTO    C5 6845   2.685  -0.133   4.482 -0.3960  0.0026  0.0977
  254OCTO   H51 6846   2.677  -0.180   4.382  0.6638 -0.1282  0.0642
  254OCTO   H52 6847   2.792  -0.131   4.510 -0.2913 -2.5499  0.0978
  254OCTO    C6 6848   2.615  -0.234   4.579 -0.2481 -0.6138  0.0459
  254OCTO   H61 6849   2.608  -0.199   4.685 -4.2384 -1.3469  0.1857
  254OCTO   H62 6850   2.510  -0.251   4.545 -0.4072  2.8509 -1.6058
  254OCTO    C7 6851   2.711  -0.356   4.594  0.7746 -0.2721 -0.2478
  254OCTO   H71 6852   2.736  -0.393   4.492  1.3962  0.6254 -0.4316
  254OCTO   H72 6853   2.806  -0.320   4.638 -0.1064  0.0715  1.4377
  254OCTO    C8 6854   2.660  -0.474   4.676 -0.4115  0.4003 -0.2650
  254OCTO   H81 6855   2.611  -0.435   4.768  0.1742 -0.6543  0.5103
  254OCTO   H82 6856   2.740  -0.544   4.707  0.1952  1.7441  1.3591
  254OCTO    O1 6857   2.559  -0.538   4.601 -0.3652 -0.0359  0.3334
  254OCTO   HO1 6858   2.606  -0.594   4.540 -0.4146  0.0625  0.2052
  255OCTO    C1 6859   3.027   2.569   1.081 -0.1751  0.0239  0.2134
  255OCTO   H11 6860   2.936   2.511   1.107 -0.3349 -0.8045 -1.9134
  255OCTO   H12 6861   3.016   2.675   1.110  0.3646  0.4774 -1.1313
  255OCTO   H13 6862   3.036   2.551   0.971 -0.6869  1.1256 -0.0203
  255OCTO    C2 6863   3.149   2.521   1.158  0.1434  0.9065  0.2429
  255OCTO   H21 6864   3.234   2.589   1.134  0.0261  1.7885  2.1539
  255OCTO   H22 6865   3.118   2.531   1.264 -0.9176  0.4635 -0.0128
  255OCTO    C3 6866   3.184   2.376   1.132 -1.1535  0.2812 -0.0478
  255OCTO   H31 6867   3.094   2.311   1.130 -0.6223 -0.4436 -1.4718
  255OCTO   H32 6868   3.217   2.376   1.026  0.1080 -1.5264  0.3084
  255OCTO    C4 6869   3.299   2.322   1.223  0.0468  0.2987  0.6219
  255OCTO   H41 6870   3.399   2.331   1.175  0.3021  2.1706  1.4295
  255OCTO   H42 6871   3.310   2.371   1.322  1.2659 -2.6073  2.0442
  255OCTO    C5 6872   3.284   2.164   1.237  0.0475  0.0705 -0.4041
  255OCTO   H51 6873   3.189   2.144   1.292 -0.3622  0.0887 -1.0870
  255OCTO   H52 6874   3.269   2.141   1.129 -0.6435  0.4091 -0.3936
  255OCTO    C6 6875   3.407   2.115   1.306  0.2579 -0.0966  0.4946
  255OCTO   H61 6876   3.498   2.175   1.284 -1.0028  1.0955 -1.8574
  255OCTO   H62 6877   3.389   2.111   1.415  2.4866 -0.6553  0.8986
  255OCTO    C7 6878   3.448   1.972   1.254  0.3309 -0.1430  0.1834
  255OCTO   H71 6879   3.495   1.971   1.154 -1.1592 -2.8922 -0.6109
  255OCTO   H72 6880   3.532   1.937   1.318  1.6843  0.5637 -1.1606
  255OCTO    C8 6881   3.328   1.883   1.248 -0.2745  0.5373 -0.4280
  255OCTO   H81 6882   3.264   1.916   1.163 -1.4447  0.5186  0.4250
  255OCTO   H82 6883   3.269   1.911   1.338 -0.5286 -0.4872 -0.2702
  255OCTO    O1 6884   3.368   1.748   1.259 -0.1571 -0.1680  0.0984
  255OCTO   HO1 6885   3.321   1.695   1.193 -1.3377  0.2937  0.5337
  256OCTO    C1 6886   2.013   0.396   0.216 -0.1451  0.0807  0.3178
  256OCTO   H11 6887   2.026   0.410   0.107 -3.3010  2.7514  0.1517
  256OCTO   H12 6888   1.902   0.400   0.220 -0.2855 -0.0239 -1.9391
  256OCTO   H13 6889   2.072   0.473   0.270 -1.3527  0.9499  0.4156
  256OCTO    C2 6890   2.054   0.254   0.250  0.3713 -0.4304  0.3444
  256OCTO   H21 6891   1.990   0.229   0.337 -0.2996  2.0898  0.6553
  256OCTO   H22 6892   2.032   0.191   0.161  2.7988 -0.3556 -0.3920
  256OCTO    C3 6893   2.205   0.245   0.284  0.9258 -0.5470 -0.5023
  256OCTO   H31 6894   2.265   0.284   0.198 -0.3451 -1.7983 -2.0217
  256OCTO   H32 6895   2.217   0.301   0.379  0.4005 -1.4686  0.1211
  256OCTO    C4 6896   2.236   0.103   0.321  0.1267 -0.2630 -0.2769
  256OCTO   H41 6897   2.178   0.039   0.252 -0.2051 -0.1266 -0.1289
  256OCTO   H42 6898   2.345   0.091   0.304  0.3374  2.0123 -0.8431
  256OCTO    C5 6899   2.186   0.073   0.467 -0.1482  0.3079  0.4054
  256OCTO   H51 6900   2.238   0.147   0.531  1.5182 -0.5572  0.1268
  256OCTO   H52 6901   2.075   0.077   0.471 -0.2864 -1.5710 -0.4830
  256OCTO    C6 6902   2.222  -0.071   0.508  0.2240  0.5765 -0.2099
  256OCTO   H61 6903   2.327  -0.093   0.482 -0.1513 -0.5355 -0.8385
  256OCTO   H62 6904   2.208  -0.081   0.618 -2.8293 -1.3350 -0.6351
  256OCTO    C7 6905   2.139  -0.177   0.428  0.3050  0.3537 -0.0416
  256OCTO   H71 6906   2.034  -0.167   0.463  0.5099 -0.2464  0.7549
  256OCTO   H72 6907   2.133  -0.163   0.318 -0.6256 -0.2044 -0.0712
  256OCTO    C8 6908   2.201  -0.314   0.465  0.8253  0.7215 -0.4365
  256OCTO   H81 6909   2.192  -0.340   0.573 -1.4714  3.9155  0.2916
  256OCTO   H82 6910   2.309  -0.306   0.440  1.2987 -1.1639  0.7647
  256OCTO    O1 6911   2.159  -0.427   0.382  0.4168  0.4508 -0.3459
  256OCTO   HO1 6912   2.230  -0.490   0.388 -0.5677 -0.5303  1.7900
  257OCTO    C1 6913   1.891   2.523   0.080  0.0534 -0.2593 -0.1113
  257OCTO   H11 6914   1.925   2.430   0.129 -0.9174 -0.3572  0.4104
  257OCTO   H12 6915   1.794   2.499   0.031  1.7892 -1.1253 -3.3572
  257OCTO   H13 6916   1.960   2.558  -0.000 -0.6616 -1.0154 -1.0745
  257OCTO    C2 6917   1.882   2.638   0.187  0.3407 -0.0960  0.0347
  257OCTO   H21 6918   1.799   2.621   0.259  0.8517 -2.3622  0.1507
  257OCTO   H22 6919   1.979   2.637   0.241  0.7875  2.6846 -0.5429
  257OCTO    C3 6920   1.867   2.774   0.119 -0.3705 -0.1486  0.2779
  257OCTO   H31 6921   1.947   2.784   0.044 -1.1411 -2.9690 -1.0593
  257OCTO   H32 6922   1.775   2.778   0.057 -1.2484 -2.8073  1.2587
  257OCTO    C4 6923   1.874   2.892   0.224  0.1524  0.0939  0.0530
  257OCTO   H41 6924   1.877   2.990   0.174 -2.5381 -0.1246 -0.6703
  257OCTO   H42 6925   1.781   2.890   0.284 -0.5165  0.2437 -0.9654
  257OCTO    C5 6926   1.986   2.888   0.333  0.5590  0.2726 -0.4476
  257OCTO   H51 6927   1.975   2.973   0.404 -0.5536  0.1794 -0.4855
  257OCTO   H52 6928   1.978   2.795   0.393 -0.8118  0.2477 -0.6307
  257OCTO    C6 6929   2.128   2.897   0.272  0.2705 -0.1880 -0.5347
  257OCTO   H61 6930   2.207   2.868   0.345  0.4932  1.2801 -0.1594
  257OCTO   H62 6931   2.142   2.829   0.185 -0.5007  0.6134 -1.3059
  257OCTO    C7 6932   2.156   3.045   0.234 -0.2752 -0.4721  0.4418
  257OCTO   H71 6933   2.074   3.114   0.263  1.2946  1.0622  1.3921
  257OCTO   H72 6934   2.242   3.078   0.297 -1.1100 -0.8621  1.8366
  257OCTO    C8 6935   2.174   3.067   0.078 -0.3564  0.5578  0.3076
  257OCTO   H81 6936   2.170   3.177   0.062  0.5274  0.5333 -0.1302
  257OCTO   H82 6937   2.100   3.004   0.025  2.8299 -2.4270 -1.0006
  257OCTO    O1 6938   2.305   3.018   0.036  1.1593  0.5991 -0.2796
  257OCTO   HO1 6939   2.277   2.973  -0.044 -1.5799  0.4726  0.6498
  258OCTO    C1 6940   2.251   2.387   2.894 -0.2702 -0.2524 -0.5303
  258OCTO   H11 6941   2.335   2.360   2.826 -0.0559  4.4542 -2.5110
  258OCTO   H12 6942   2.208   2.458   2.820  0.8281  1.8714  0.7589
  258OCTO   H13 6943   2.293   2.446   2.978 -1.5512  0.6566 -0.5158
  258OCTO    C2 6944   2.170   2.271   2.944 -0.0709 -0.1643  0.0435
  258OCTO   H21 6945   2.073   2.294   2.992  0.4557 -0.4532  1.2690
  258OCTO   H22 6946   2.139   2.213   2.854 -2.0725  1.9233 -0.7097
  258OCTO    C3 6947   2.242   2.175   3.054  1.2474  0.5769  0.3218
  258OCTO   H31 6948   2.241   2.235   3.148 -0.8176  0.1464  0.6172
  258OCTO   H32 6949   2.172   2.089   3.059  1.2980  0.3837 -1.6603
  258OCTO    C4 6950   2.385   2.130   3.020 -0.3533 -0.2933 -0.5431
  258OCTO   H41 6951   2.463   2.208   3.022  2.7186 -3.0883 -2.4055
  258OCTO   H42 6952   2.407   2.050   3.094  1.7541  0.2138 -0.5752
  258OCTO    C5 6953   2.407   2.065   2.890  0.3747  0.2685  0.4031
  258OCTO   H51 6954   2.318   2.003   2.866 -0.3210  0.3208  2.6653
  258OCTO   H52 6955   2.406   2.135   2.804 -3.3006  0.4396  0.4396
  258OCTO    C6 6956   2.535   1.970   2.881  0.6542 -0.1757 -0.0627
  258OCTO   H61 6957   2.624   2.025   2.918  0.6883 -1.0561  1.2086
  258OCTO   H62 6958   2.519   1.885   2.950  1.5582  1.2165  1.9735
  258OCTO    C7 6959   2.561   1.929   2.735 -0.8321  0.7479 -0.1967
  258OCTO   H71 6960   2.476   1.864   2.701 -1.7282  1.4200  0.7138
  258OCTO   H72 6961   2.572   2.010   2.659 -0.6709  1.7147  0.8450
  258OCTO    C8 6962   2.700   1.850   2.724 -0.0558  0.1018  0.1513
  258OCTO   H81 6963   2.703   1.756   2.782  0.4599  1.1677  1.9553
  258OCTO   H82 6964   2.782   1.916   2.761 -1.9638  0.8787  3.4428
  258OCTO    O1 6965   2.723   1.819   2.593  0.2281 -0.1524 -0.2302
  258OCTO   HO1 6966   2.819   1.817   2.589  0.4608  2.2046  1.9455
  259OCTO    C1 6967   0.467   1.803   2.606 -0.1241 -0.5589  0.8318
  259OCTO   H11 6968   0.389   1.813   2.685 -0.7545  1.5050  0.0053
  259OCTO   H12 6969   0.558   1.745   2.635 -0.1835 -0.0553  2.1030
  259OCTO   H13 6970   0.511   1.903   2.587  1.2652 -0.7045  2.9494
  259OCTO    C2 6971   0.406   1.754   2.473  0.4289  0.0751 -0.4571
  259OCTO   H21 6972   0.487   1.773   2.399  2.3531 -1.8245  1.0512
  259OCTO   H22 6973   0.375   1.647   2.481 -0.5540  0.4996  3.0190
  259OCTO    C3 6974   0.269   1.810   2.437  0.6371 -0.5570  0.4994
  259OCTO   H31 6975   0.212   1.829   2.531 -0.7120  1.8724 -0.7147
  259OCTO   H32 6976   0.268   1.907   2.384 -0.9066 -2.1089 -2.5570
  259OCTO    C4 6977   0.186   1.713   2.343  0.5237 -0.4151  0.1044
  259OCTO   H41 6978   0.261   1.669   2.274  1.9817 -0.3363  1.5983
  259OCTO   H42 6979   0.142   1.629   2.399  1.2013 -0.2162  0.9574
  259OCTO    C5 6980   0.075   1.787   2.269 -0.1558 -0.3091 -0.3634
  259OCTO   H51 6981   0.013   1.829   2.351 -0.3181 -2.9493  0.9675
  259OCTO   H52 6982   0.121   1.870   2.211 -0.4970 -1.1312 -1.8476
  259OCTO    C6 6983  -0.001   1.694   2.179  1.1284  0.1928 -0.0218
  259OCTO   H61 6984   0.063   1.657   2.096 -1.1574  0.9277 -2.2249
  259OCTO   H62 6985  -0.032   1.603   2.235  2.5307  1.1344  2.4361
  259OCTO    C7 6986  -0.124   1.765   2.105  0.8192 -0.2250 -0.1471
  259OCTO   H71 6987  -0.077   1.832   2.031  0.0103 -0.3737 -0.8158
  259OCTO   H72 6988  -0.190   1.695   2.049  0.7575 -0.5786  0.3510
  259OCTO    C8 6989  -0.212   1.844   2.205  0.5082  0.2181  0.2891
  259OCTO   H81 6990  -0.148   1.912   2.265 -0.5515  1.4859  0.0239
  259OCTO   H82 6991  -0.252   1.782   2.288  1.8043 -0.4972  0.4111
  259OCTO    O1 6992  -0.311   1.922   2.140 -0.1247  0.4727  0.4104
  259OCTO   HO1 6993  -0.336   2.000   2.189 -1.5722  1.1334 -1.2529
  260OCTO    C1 6994   0.895   3.658   3.267  0.0400 -0.0169  0.0332
  260OCTO   H11 6995   0.866   3.557   3.302 -1.2270  0.2151 -0.2622
  260OCTO   H12 6996   0.867   3.673   3.160  0.4746  0.5638 -0.0019
  260OCTO   H13 6997   1.006   3.661   3.263  0.0710 -1.7202 -2.2755
  260OCTO    C2 6998   0.834   3.756   3.366 -0.1242  0.0293 -0.2683
  260OCTO   H21 6999   0.867   3.737   3.471 -1.7010 -3.0164 -0.2114
  260OCTO   H22 7000   0.864   3.860   3.340  1.8216 -0.1132  1.1346
  260OCTO    C3 7001   0.681   3.743   3.377  0.2441 -0.1573 -0.0050
  260OCTO   H31 7002   0.633   3.833   3.420 -3.4003 -1.4790 -0.9678
  260OCTO   H32 7003   0.645   3.717   3.275  0.2789  1.8970 -0.5820
  260OCTO    C4 7004   0.641   3.629   3.478 -0.0762 -0.2239  0.1473
  260OCTO   H41 7005   0.691   3.536   3.444 -0.7646 -0.8536  0.8024
  260OCTO   H42 7006   0.681   3.661   3.577 -1.4260 -2.0850  1.3600
  260OCTO    C5 7007   0.488   3.599   3.502 -0.0913 -0.6533  0.0699
  260OCTO   H51 7008   0.484   3.496   3.545  2.1197 -0.9070 -0.2081
  260OCTO   H52 7009   0.455   3.668   3.582  1.4031  1.7143 -1.2204
  260OCTO    C6 7010   0.401   3.604   3.381 -0.2261 -0.2378 -0.0479
  260OCTO   H61 7011   0.452   3.550   3.298 -0.1241 -2.5018  1.4134
  260OCTO   H62 7012   0.321   3.532   3.408  0.9160 -1.2556  0.7192
  260OCTO    C7 7013   0.339   3.741   3.353 -0.4450 -0.6416  0.3934
  260OCTO   H71 7014   0.274   3.768   3.439 -0.6531 -0.0220  0.0435
  260OCTO   H72 7015   0.427   3.808   3.338 -0.4518 -0.3455  1.5350
  260OCTO    C8 7016   0.251   3.749   3.232 -0.2888 -0.4535 -0.2093
  260OCTO   H81 7017   0.174   3.671   3.247 -0.7157  0.5723  4.2128
  260OCTO   H82 7018   0.320   3.714   3.153 -0.2819 -0.6607 -0.1128
  260OCTO    O1 7019   0.213   3.882   3.210  0.4409 -0.1297  0.0421
  260OCTO   HO1 7020   0.290   3.921   3.168  1.0215 -2.3916 -1.1188
  261OCTO    C1 7021   3.622   3.162   3.909  0.4477 -0.0415 -0.4864
  261OCTO   H11 7022   3.540   3.093   3.879 -0.6675  0.9387  0.2513
  261OCTO   H12 7023   3.586   3.225   3.993 -1.7288 -0.3782 -1.1245
  261OCTO   H13 7024   3.659   3.227   3.827  1.0155  1.7611  1.1128
  261OCTO    C2 7025   3.735   3.084   3.959 -0.5248 -0.0802 -0.0276
  261OCTO   H21 7026   3.809   3.159   3.994 -2.1614  0.6283  2.1590
  261OCTO   H22 7027   3.712   3.019   4.047  1.3914 -0.2971  0.3634
  261OCTO    C3 7028   3.790   2.984   3.859  0.4234 -0.2464 -0.2938
  261OCTO   H31 7029   3.737   2.887   3.868 -1.4498  0.7199 -0.2904
  261OCTO   H32 7030   3.774   3.016   3.754 -2.3031  0.1818  0.1759
  261OCTO    C4 7031   3.941   2.968   3.889 -0.7374  0.1200 -0.4204
  261OCTO   H41 7032   3.984   2.898   3.814  0.1317  1.2030 -0.9422
  261OCTO   H42 7033   3.994   3.065   3.890 -1.7942  0.7177 -0.0781
  261OCTO    C5 7034   3.983   2.914   4.025  0.3423  0.6504  0.2019
  261OCTO   H51 7035   4.091   2.939   4.033  0.9296 -1.8735  1.0522
  261OCTO   H52 7036   3.927   2.958   4.111 -2.9301 -1.0821 -0.8774
  261OCTO    C6 7037   3.982   2.763   4.059 -0.4064  0.5908  0.2440
  261OCTO   H61 7038   4.039   2.700   3.988  0.4474 -0.9717  2.2040
  261OCTO   H62 7039   4.021   2.752   4.163 -1.6606 -1.6806  0.5490
  261OCTO    C7 7040   3.843   2.697   4.080  0.2667 -0.2394  0.3435
  261OCTO   H71 7041   3.796   2.756   4.162 -0.9264  0.1708 -0.5996
  261OCTO   H72 7042   3.773   2.715   3.995  2.0282 -0.1898 -1.1543
  261OCTO    C8 7043   3.834   2.545   4.118  0.7441 -0.7043 -0.4143
  261OCTO   H81 7044   3.869   2.481   4.035 -1.3114  0.3570 -2.2136
  261OCTO   H82 7045   3.725   2.526   4.128  0.4812  0.8448 -0.0745
  261OCTO    O1 7046   3.897   2.525   4.244 -0.2389  0.4186  0.8327
  261OCTO   HO1 7047   3.836   2.563   4.308  1.0412  2.0042  1.1732
  262OCTO    C1 7048   1.212   0.247   3.286  0.4920 -0.6427  0.5582
  262OCTO   H11 7049   1.321   0.266   3.288  0.4056  0.5601 -2.1269
  262OCTO   H12 7050   1.164   0.344   3.312 -0.7238 -0.8881 -0.6580
  262OCTO   H13 7051   1.194   0.163   3.356 -0.0208 -0.8300  0.2069
  262OCTO    C2 7052   1.159   0.205   3.145  0.3924 -0.5369  0.4955
  262OCTO   H21 7053   1.198   0.274   3.067  0.4756 -2.5243 -1.3262
  262OCTO   H22 7054   1.196   0.108   3.106 -1.4789 -1.0095 -0.2078
  262OCTO    C3 7055   1.008   0.184   3.129 -0.0169  0.4025 -0.2507
  262OCTO   H31 7056   0.955   0.271   3.174 -0.8738 -0.9734  1.5010
  262OCTO   H32 7057   0.980   0.172   3.022 -0.3982  2.2363 -0.3852
  262OCTO    C4 7058   0.951   0.055   3.200  0.1806 -0.2543  0.5183
  262OCTO   H41 7059   1.015  -0.035   3.197  0.0512 -0.3295 -0.0810
  262OCTO   H42 7060   0.932   0.069   3.308  1.7395 -1.0604  0.9270
  262OCTO    C5 7061   0.818   0.009   3.141 -0.0846  0.0902  0.6269
  262OCTO   H51 7062   0.745   0.093   3.142 -0.1291  0.1105 -1.0224
  262OCTO   H52 7063   0.845  -0.019   3.037  1.2676 -1.4847  1.3459
  262OCTO    C6 7064   0.764  -0.118   3.207  0.2540 -0.9608  0.5240
  262OCTO   H61 7065   0.833  -0.200   3.178  1.2045 -0.3526  1.0220
  262OCTO   H62 7066   0.749  -0.099   3.315 -1.2065 -1.3078  0.4117
  262OCTO    C7 7067   0.634  -0.157   3.130 -0.2204 -0.0341 -0.2692
  262OCTO   H71 7068   0.569  -0.068   3.147  0.0484  0.3761 -1.3241
  262OCTO   H72 7069   0.656  -0.174   3.023  0.4025  1.9998 -0.4997
  262OCTO    C8 7070   0.573  -0.280   3.196  0.0412  0.1242 -0.6118
  262OCTO   H81 7071   0.554  -0.258   3.304  0.2125  0.1381 -0.5826
  262OCTO   H82 7072   0.638  -0.371   3.196  0.5525  0.4600  0.5419
  262OCTO    O1 7073   0.445  -0.312   3.131 -0.2473 -0.2740 -1.0533
  262OCTO   HO1 7074   0.458  -0.340   3.040  0.7270  2.1816 -1.7505
  263OCTO    C1 7075   0.037   1.136   2.042  0.0970  0.7418 -0.2904
  263OCTO   H11 7076   0.016   1.145   2.151  0.9625 -0.2287 -0.0205
  263OCTO   H12 7077  -0.050   1.084   1.999 -0.1551 -1.1357  2.2532
  263OCTO   H13 7078   0.126   1.070   2.031 -0.1937  0.2212  0.4181
  263OCTO    C2 7079   0.055   1.273   1.981  0.2550 -1.0536  0.7427
  263OCTO   H21 7080   0.029   1.342   2.063 -0.7953  0.7920 -1.0641
  263OCTO   H22 7081   0.161   1.293   1.953  0.1818  1.0879  1.8221
  263OCTO    C3 7082  -0.021   1.293   1.851 -0.1557 -0.8899  0.5241
  263OCTO   H31 7083   0.002   1.223   1.769 -1.7361  0.8323 -1.4891
  263OCTO   H32 7084  -0.129   1.270   1.863 -0.6143  0.6203 -0.4245
  263OCTO    C4 7085  -0.025   1.436   1.798  0.1230 -0.4140 -0.2022
  263OCTO   H41 7086  -0.084   1.493   1.873 -1.2767 -1.1618 -0.6935
  263OCTO   H42 7087   0.079   1.475   1.804 -0.2976  0.6658  0.2664
  263OCTO    C5 7088  -0.088   1.451   1.661  0.0479 -0.4443 -0.8250
  263OCTO   H51 7089  -0.087   1.560   1.639  1.0478 -0.2542  0.0708
  263OCTO   H52 7090  -0.021   1.402   1.587  2.5078  1.0636  0.2659
  263OCTO    C6 7091  -0.230   1.388   1.652  0.9471 -0.3018 -0.2920
  263OCTO   H61 7092  -0.206   1.282   1.677  2.0223  0.3964  1.8815
  263OCTO   H62 7093  -0.301   1.431   1.726 -0.7360  0.3863 -2.2082
  263OCTO    C7 7094  -0.293   1.387   1.517 -0.3114 -0.1983  0.0124
  263OCTO   H71 7095  -0.210   1.365   1.446  0.0933 -0.5641  0.5916
  263OCTO   H72 7096  -0.373   1.310   1.514  0.6166 -1.3186  1.8758
  263OCTO    C8 7097  -0.351   1.520   1.471  0.7173  0.2607  0.1154
  263OCTO   H81 7098  -0.271   1.596   1.460 -0.0908  1.1769  0.4655
  263OCTO   H82 7099  -0.427   1.560   1.541  0.7512  1.9697 -0.7612
  263OCTO    O1 7100  -0.407   1.515   1.336  0.0132 -0.0308  0.2732
  263OCTO   HO1 7101  -0.487   1.567   1.323  1.5637  2.5573  0.4528
  264OCTO    C1 7102   1.574   0.346   4.015 -0.3509  0.0688 -0.1000
  264OCTO   H11 7103   1.663   0.335   4.080 -0.6460 -1.5239  0.0758
  264OCTO   H12 7104   1.495   0.284   4.062  1.2053 -1.1370  1.0511
  264OCTO   H13 7105   1.590   0.315   3.910 -2.3699  0.1943 -0.4779
  264OCTO    C2 7106   1.534   0.493   4.007  0.6969  0.0857  0.1095
  264OCTO   H21 7107   1.447   0.499   3.938  0.1713  2.7556  0.9003
  264OCTO   H22 7108   1.500   0.536   4.103  1.0271  0.4372  0.0721
  264OCTO    C3 7109   1.649   0.585   3.959 -0.1414  0.2394 -0.3877
  264OCTO   H31 7110   1.698   0.551   3.865  0.4201 -1.2542  0.4131
  264OCTO   H32 7111   1.602   0.683   3.936  3.4312  2.0569 -0.5196
  264OCTO    C4 7112   1.766   0.601   4.062  0.2300 -0.2765  1.3491
  264OCTO   H41 7113   1.804   0.502   4.097 -0.9900 -1.7022 -1.0867
  264OCTO   H42 7114   1.848   0.647   4.003 -0.8298  1.4009  1.1312
  264OCTO    C5 7115   1.741   0.688   4.181  0.5635  0.2857 -0.3263
  264OCTO   H51 7116   1.708   0.788   4.148  0.4904 -0.1926 -1.7926
  264OCTO   H52 7117   1.656   0.644   4.238  0.1251 -0.6948 -1.6675
  264OCTO    C6 7118   1.850   0.710   4.283 -0.4134 -0.3828  0.3660
  264OCTO   H61 7119   1.878   0.619   4.341  0.0705 -0.9398 -0.6997
  264OCTO   H62 7120   1.946   0.731   4.231 -0.3935 -1.6322 -0.1564
  264OCTO    C7 7121   1.823   0.831   4.374 -0.0527 -0.7105  0.6062
  264OCTO   H71 7122   1.926   0.867   4.399 -0.2876  0.0163  0.5457
  264OCTO   H72 7123   1.784   0.914   4.311  1.0890  1.9418  3.0991
  264OCTO    C8 7124   1.761   0.797   4.507 -0.5401 -0.0541 -0.1036
  264OCTO   H81 7125   1.826   0.728   4.565 -1.9388 -0.8329  0.5914
  264OCTO   H82 7126   1.662   0.748   4.491  1.0614 -3.1498 -1.4799
  264OCTO    O1 7127   1.746   0.917   4.583 -0.3850  1.1698 -0.3393
  264OCTO   HO1 7128   1.826   0.971   4.579  1.2963 -1.0353  1.2462
  265OCTO    C1 7129   1.617   0.173   1.253 -0.1836  0.1771 -0.5245
  265OCTO   H11 7130   1.547   0.087   1.262 -0.4958  0.4916  0.1426
  265OCTO   H12 7131   1.561   0.255   1.205  0.2839  0.4622 -0.5891
  265OCTO   H13 7132   1.696   0.143   1.181  0.0852  1.9424 -1.0053
  265OCTO    C2 7133   1.680   0.216   1.383 -0.6573  0.4153  0.0327
  265OCTO   H21 7134   1.736   0.130   1.424  1.4055  1.1892 -1.0489
  265OCTO   H22 7135   1.747   0.301   1.358 -1.9772  0.9894 -1.7435
  265OCTO    C3 7136   1.578   0.259   1.484  0.1098  0.2409  0.6958
  265OCTO   H31 7137   1.498   0.317   1.433  2.1545  1.0098 -1.8749
  265OCTO   H32 7138   1.539   0.164   1.525 -0.1087  0.1430  0.2747
  265OCTO    C4 7139   1.631   0.343   1.594 -0.1189  0.2395  0.3924
  265OCTO   H41 7140   1.689   0.279   1.664 -1.0330  0.6728  1.5785
  265OCTO   H42 7141   1.708   0.407   1.546 -0.6020  1.4458  1.1878
  265OCTO    C5 7142   1.518   0.405   1.678  0.2444 -0.0781  0.4969
  265OCTO   H51 7143   1.560   0.493   1.732 -0.1306 -0.1251  0.8695
  265OCTO   H52 7144   1.445   0.444   1.603 -0.7037 -0.3621  1.2587
  265OCTO    C6 7145   1.445   0.307   1.770  0.8631  0.3443  0.6135
  265OCTO   H61 7146   1.417   0.216   1.712  1.3477  0.7319 -0.2476
  265OCTO   H62 7147   1.516   0.270   1.847  1.8363  2.2959  0.7076
  265OCTO    C7 7148   1.323   0.376   1.837 -0.2970 -0.3903 -0.8539
  265OCTO   H71 7149   1.253   0.422   1.764 -2.3734  1.0408  1.8535
  265OCTO   H72 7150   1.265   0.293   1.883  1.6915 -2.4118 -1.7855
  265OCTO    C8 7151   1.371   0.487   1.935 -0.2608 -0.1256  0.6519
  265OCTO   H81 7152   1.439   0.562   1.889  0.1907 -2.4894 -3.0178
  265OCTO   H82 7153   1.436   0.442   2.013 -0.0902  0.7914  1.0485
  265OCTO    O1 7154   1.260   0.550   1.990  0.0317 -0.4231  0.0689
  265OCTO   HO1 7155   1.237   0.619   1.926 -2.0316 -0.0574  1.0955
  266OCTO    C1 7156   1.630   1.632   1.858  0.1827  0.5622 -0.1561
  266OCTO   H11 7157   1.546   1.686   1.906  0.7662  0.7793  0.6399
  266OCTO   H12 7158   1.619   1.668   1.753 -0.7069 -1.8583 -0.9630
  266OCTO   H13 7159   1.617   1.522   1.857  1.3743  0.3657  1.9249
  266OCTO    C2 7160   1.764   1.672   1.915  0.0822  0.2012 -0.3970
  266OCTO   H21 7161   1.780   1.781   1.897 -1.2409  0.5262  0.2764
  266OCTO   H22 7162   1.771   1.653   2.024 -0.0691 -0.7029 -0.5366
  266OCTO    C3 7163   1.880   1.587   1.855 -0.4030 -0.3776 -0.0536
  266OCTO   H31 7164   1.865   1.483   1.890  2.2761 -0.6676  0.4236
  266OCTO   H32 7165   1.868   1.587   1.744  0.0777  0.5248 -0.1122
  266OCTO    C4 7166   2.023   1.628   1.892 -0.5167  0.2380 -0.1963
  266OCTO   H41 7167   2.087   1.588   1.811  0.0856 -1.4527  1.0653
  266OCTO   H42 7168   2.025   1.739   1.895 -1.6007  0.3315 -1.8075
  266OCTO    C5 7169   2.074   1.576   2.029 -0.2798  0.0416  0.2899
  266OCTO   H51 7170   2.028   1.632   2.114 -1.7778 -1.6393  0.6363
  266OCTO   H52 7171   2.042   1.472   2.049 -0.1194 -0.2443 -0.8994
  266OCTO    C6 7172   2.225   1.591   2.048 -0.3115  0.1328  0.5309
  266OCTO   H61 7173   2.263   1.676   1.987  0.5260 -1.9382 -2.0157
  266OCTO   H62 7174   2.261   1.594   2.153  0.0169 -0.2836  0.4373
  266OCTO    C7 7175   2.288   1.470   1.970 -0.3243 -0.4084 -0.6953
  266OCTO   H71 7176   2.222   1.384   1.994 -2.3050  1.3171  0.3997
  266OCTO   H72 7177   2.291   1.500   1.863 -0.7817  1.4583 -0.2239
  266OCTO    C8 7178   2.431   1.442   2.018 -0.7070  1.1469  0.6295
  266OCTO   H81 7179   2.487   1.362   1.965 -0.0360  1.9666  0.0647
  266OCTO   H82 7180   2.433   1.413   2.125 -1.4876  1.0608  0.6254
  266OCTO    O1 7181   2.500   1.562   1.993 -0.2273  0.1279  0.0629
  266OCTO   HO1 7182   2.572   1.559   2.056  0.6533  0.2427 -0.9272
  267OCTO    C1 7183   1.354   4.038   2.907 -0.3153 -0.4727  0.4381
  267OCTO   H11 7184   1.260   3.995   2.947 -0.4636  0.5490  1.2293
  267OCTO   H12 7185   1.365   4.004   2.802  3.1948  0.8651  0.2248
  267OCTO   H13 7186   1.440   4.000   2.967  0.4603  0.7886  0.1748
  267OCTO    C2 7187   1.351   4.191   2.912  0.2047 -0.0465  0.3088
  267OCTO   H21 7188   1.362   4.216   3.020 -1.0638  0.6077  0.2981
  267OCTO   H22 7189   1.437   4.229   2.853  0.2997  0.3072  0.6725
  267OCTO    C3 7190   1.225   4.258   2.840 -0.0882 -0.0061  0.3912
  267OCTO   H31 7191   1.208   4.208   2.743  2.7271  1.5169 -0.9911
  267OCTO   H32 7192   1.132   4.236   2.898  0.4399 -4.3163 -0.0916
  267OCTO    C4 7193   1.245   4.406   2.819 -0.0642 -0.4822  0.6607
  267OCTO   H41 7194   1.282   4.457   2.911 -0.5499  0.7590  0.1919
  267OCTO   H42 7195   1.326   4.418   2.744  0.3176 -0.9901  0.9835
  267OCTO    C5 7196   1.134   4.476   2.745  0.1073  0.3794  0.3690
  267OCTO   H51 7197   1.116   4.426   2.648  1.5772  1.0661 -0.2776
  267OCTO   H52 7198   1.039   4.463   2.801  0.5284 -0.2179  0.9665
  267OCTO    C6 7199   1.161   4.619   2.698  0.1783 -0.0313 -0.4823
  267OCTO   H61 7200   1.164   4.684   2.788 -2.7414 -0.4662  0.0044
  267OCTO   H62 7201   1.265   4.620   2.657  0.2083 -2.7947 -0.6767
  267OCTO    C7 7202   1.055   4.673   2.603 -0.0003 -0.1633  0.3110
  267OCTO   H71 7203   1.056   4.607   2.513 -1.4716 -0.5157  0.5322
  267OCTO   H72 7204   0.956   4.651   2.648  0.2731 -0.4238  0.7946
  267OCTO    C8 7205   1.078   4.822   2.555  0.2661 -0.0584 -0.8248
  267OCTO   H81 7206   1.003   4.857   2.481  1.0635  0.7631 -1.2617
  267OCTO   H82 7207   1.175   4.833   2.502 -0.0082  0.6454 -1.1928
  267OCTO    O1 7208   1.072   4.916   2.665  0.3436  0.1230 -0.3947
  267OCTO   HO1 7209   1.104   4.998   2.628  1.2201 -0.5185 -1.1071
  268OCTO    C1 7210   3.102   0.433   1.782 -0.4065 -0.8646  0.1219
  268OCTO   H11 7211   3.119   0.511   1.860  0.2338 -0.6557 -0.2159
  268OCTO   H12 7212   2.995   0.419   1.759 -0.1220 -0.0716 -1.8784
  268OCTO   H13 7213   3.148   0.337   1.816 -1.4440 -1.9819 -1.4903
  268OCTO    C2 7214   3.169   0.478   1.641 -0.9035  0.0261 -0.0557
  268OCTO   H21 7215   3.154   0.403   1.560 -0.5060  1.5673 -1.6165
  268OCTO   H22 7216   3.120   0.571   1.607 -0.4272  0.0849 -0.5925
  268OCTO    C3 7217   3.315   0.504   1.660 -0.7056 -0.1572  0.1725
  268OCTO   H31 7218   3.327   0.583   1.737 -3.1427  0.6569 -0.2014
  268OCTO   H32 7219   3.363   0.410   1.696  1.3233  0.6891 -0.1627
  268OCTO    C4 7220   3.387   0.557   1.532  0.8811 -0.7812  0.5499
  268OCTO   H41 7221   3.498   0.553   1.529  0.8283 -1.7167 -1.9520
  268OCTO   H42 7222   3.354   0.501   1.442 -3.3572 -2.2293  2.7527
  268OCTO    C5 7223   3.338   0.704   1.501 -0.5933  0.7246 -0.1207
  268OCTO   H51 7224   3.228   0.707   1.486 -1.0037  1.4035  2.4760
  268OCTO   H52 7225   3.362   0.765   1.591  0.6785 -0.9283  0.7333
  268OCTO    C6 7226   3.395   0.755   1.367 -0.2218 -0.2362 -0.1905
  268OCTO   H61 7227   3.506   0.756   1.368 -0.1896 -1.3778  1.4194
  268OCTO   H62 7228   3.350   0.684   1.294  0.3000 -0.8147  0.0390
  268OCTO    C7 7229   3.353   0.896   1.308  0.5085 -0.4335  0.2574
  268OCTO   H71 7230   3.372   0.891   1.199  1.3738 -0.3000  0.3934
  268OCTO   H72 7231   3.244   0.893   1.329  0.7228 -1.5202  1.3492
  268OCTO    C8 7232   3.426   1.014   1.365  0.0296  0.6707  0.0146
  268OCTO   H81 7233   3.534   0.999   1.345  0.2156  1.5656  0.3116
  268OCTO   H82 7234   3.400   1.016   1.473 -2.5716 -2.9930 -0.3507
  268OCTO    O1 7235   3.381   1.132   1.305 -0.3060 -0.4408 -0.2576
  268OCTO   HO1 7236   3.447   1.198   1.330 -1.6198  1.5217 -1.6440
  269OCTO    C1 7237   3.801   3.106   0.050  0.4253  0.2123  0.0218
  269OCTO   H11 7238   3.750   3.049   0.131 -2.9332 -0.5893 -2.3926
  269OCTO   H12 7239   3.722   3.142  -0.020  3.2109  0.7449 -3.0673
  269OCTO   H13 7240   3.864   3.031  -0.004 -0.7699 -0.3129 -0.7030
  269OCTO    C2 7241   3.890   3.221   0.095  0.0072  0.6833 -0.3920
  269OCTO   H21 7242   3.828   3.298   0.146 -0.7542 -0.1902  0.0430
  269OCTO   H22 7243   3.961   3.176   0.168 -1.5875  1.0010  1.4401
  269OCTO    C3 7244   3.966   3.293  -0.009 -0.2793  0.2385  0.4221
  269OCTO   H31 7245   4.041   3.229  -0.059 -0.8239 -1.1426  1.3235
  269OCTO   H32 7246   3.889   3.318  -0.085 -1.5997 -2.2568  0.8584
  269OCTO    C4 7247   4.052   3.412   0.049 -0.5393  0.4122  0.8037
  269OCTO   H41 7248   3.977   3.493   0.064  0.3389  1.8136 -1.8270
  269OCTO   H42 7249   4.102   3.380   0.144 -1.5824 -2.2651  0.5377
  269OCTO    C5 7250   4.159   3.452  -0.055  0.1149 -0.6519  0.0817
  269OCTO   H51 7251   4.213   3.538  -0.012 -1.7184 -0.9860  3.3849
  269OCTO   H52 7252   4.218   3.360  -0.076  3.5282  1.2515  0.6472
  269OCTO    C6 7253   4.106   3.491  -0.197 -0.1005  0.0903 -0.9574
  269OCTO   H61 7254   4.202   3.496  -0.254  2.2989  1.9449  2.7995
  269OCTO   H62 7255   4.049   3.411  -0.248 -0.6736 -1.2643  1.6183
  269OCTO    C7 7256   4.040   3.636  -0.197 -0.2071  0.7480  0.3910
  269OCTO   H71 7257   3.934   3.625  -0.165  0.5110 -0.0680  2.7462
  269OCTO   H72 7258   4.093   3.707  -0.130  0.3794  1.3970 -0.7273
  269OCTO    C8 7259   4.043   3.709  -0.333 -0.9180 -0.4962  0.2926
  269OCTO   H81 7260   3.980   3.799  -0.311 -0.0882 -0.3323  2.2037
  269OCTO   H82 7261   3.994   3.653  -0.415  1.1757 -0.4588 -1.0609
  269OCTO    O1 7262   4.179   3.744  -0.368 -0.2369  0.5714  0.6243
  269OCTO   HO1 7263   4.180   3.765  -0.462 -3.1315  2.2432  0.8443
  270OCTO    C1 7264   1.512   3.775   3.607 -0.2054 -0.0120  0.3780
  270OCTO   H11 7265   1.477   3.717   3.695 -1.6459 -0.1296 -0.2475
  270OCTO   H12 7266   1.549   3.870   3.650 -0.9964  0.1534  0.7056
  270OCTO   H13 7267   1.425   3.791   3.539 -0.6658 -2.3859  0.3099
  270OCTO    C2 7268   1.624   3.701   3.526  0.5360 -0.0706 -0.1283
  270OCTO   H21 7269   1.575   3.622   3.466 -0.9117  0.8822 -0.2407
  270OCTO   H22 7270   1.678   3.781   3.471  0.3639 -1.8109 -3.0730
  270OCTO    C3 7271   1.716   3.626   3.621  0.2547  0.3612 -0.2060
  270OCTO   H31 7272   1.753   3.706   3.689 -1.5765  1.9925 -1.0315
  270OCTO   H32 7273   1.662   3.545   3.675  0.0961  0.4400 -0.2451
  270OCTO    C4 7274   1.840   3.564   3.551  0.5093 -0.1065 -0.3302
  270OCTO   H41 7275   1.806   3.484   3.482 -0.9693  0.5396 -0.3760
  270OCTO   H42 7276   1.885   3.634   3.477 -1.7107  1.7642  0.0018
  270OCTO    C5 7277   1.944   3.501   3.643  0.1021 -0.6286 -0.5259
  270OCTO   H51 7278   1.978   3.586   3.706 -1.4296 -1.3413  1.3312
  270OCTO   H52 7279   1.886   3.425   3.699 -1.4163 -0.5023 -1.8478
  270OCTO    C6 7280   2.058   3.441   3.562 -0.0075 -0.4331 -0.3409
  270OCTO   H61 7281   2.015   3.354   3.508  1.4546 -0.0495 -2.2055
  270OCTO   H62 7282   2.086   3.511   3.481 -2.2413 -1.7594 -2.4205
  270OCTO    C7 7283   2.180   3.401   3.644  0.0449 -0.1331 -0.3833
  270OCTO   H71 7284   2.262   3.365   3.579  0.5608 -1.2709  0.8526
  270OCTO   H72 7285   2.223   3.482   3.707  1.3876 -1.0744 -0.0413
  270OCTO    C8 7286   2.137   3.295   3.742 -0.5221 -0.6864 -0.6321
  270OCTO   H81 7287   2.075   3.220   3.687 -0.8202 -1.3905  0.6320
  270OCTO   H82 7288   2.070   3.330   3.823 -1.6412  1.3690 -2.3462
  270OCTO    O1 7289   2.248   3.229   3.801 -0.7201  0.3925  0.2493
  270OCTO   HO1 7290   2.280   3.172   3.731 -0.6943 -0.4054  0.9002
  271OCTO    C1 7291   1.343   3.424   3.411 -1.1077  0.2522 -0.2905
  271OCTO   H11 7292   1.389   3.341   3.352  0.3656 -0.2561  1.4910
  271OCTO   H12 7293   1.300   3.494   3.336 -1.8308 -1.8105 -1.9258
  271OCTO   H13 7294   1.416   3.477   3.476  1.6022 -0.0117 -2.8835
  271OCTO    C2 7295   1.229   3.379   3.489 -0.4707  0.1806  0.1773
  271OCTO   H21 7296   1.168   3.315   3.422  0.7810  0.0626 -0.8883
  271OCTO   H22 7297   1.256   3.310   3.571 -4.0071 -0.8940  0.6366
  271OCTO    C3 7298   1.138   3.486   3.547  0.3827 -0.0694 -0.1486
  271OCTO   H31 7299   1.132   3.571   3.475 -0.4843  1.6201  1.8100
  271OCTO   H32 7300   1.035   3.455   3.572  1.3709 -2.3673  1.3157
  271OCTO    C4 7301   1.193   3.541   3.683 -0.3076 -0.4944  0.5109
  271OCTO   H41 7302   1.229   3.458   3.748  3.1538  0.3352 -0.1674
  271OCTO   H42 7303   1.285   3.595   3.653 -0.8967 -0.3083 -1.0333
  271OCTO    C5 7304   1.084   3.625   3.747 -0.4819  0.6321 -0.7446
  271OCTO   H51 7305   1.055   3.694   3.665  0.0234 -0.3280 -1.7729
  271OCTO   H52 7306   1.003   3.559   3.784  0.9711 -0.2445  1.0504
  271OCTO    C6 7307   1.134   3.709   3.864 -0.8390 -0.5578  0.4282
  271OCTO   H61 7308   1.167   3.635   3.941 -2.8947 -2.3159 -0.2805
  271OCTO   H62 7309   1.223   3.768   3.834 -2.2930  1.8312  0.5991
  271OCTO    C7 7310   1.031   3.796   3.932  0.2641  0.3695 -0.3615
  271OCTO   H71 7311   1.092   3.861   3.998 -0.1551  0.5304 -0.1217
  271OCTO   H72 7312   0.979   3.855   3.853 -0.1098 -0.1439 -0.5098
  271OCTO    C8 7313   0.922   3.721   4.016  0.0552  0.2535  0.8656
  271OCTO   H81 7314   0.976   3.684   4.106  2.2195 -2.8988 -1.5169
  271OCTO   H82 7315   0.884   3.634   3.959  2.7945 -0.1294 -0.5513
  271OCTO    O1 7316   0.822   3.812   4.052  0.0769 -0.0378  0.0821
  271OCTO   HO1 7317   0.803   3.801   4.146 -0.0481 -0.6771 -0.0114
  272OCTO    C1 7318   3.203   0.577   0.200  0.2059  0.6452  0.3816
  272OCTO   H11 7319   3.184   0.633   0.294 -1.7844 -1.5981  1.4164
  272OCTO   H12 7320   3.313   0.565   0.201  0.3118  1.5264  0.3652
  272OCTO   H13 7321   3.178   0.654   0.123 -0.4873 -1.5532 -1.7113
  272OCTO    C2 7322   3.127   0.446   0.173 -0.1171 -0.1170  0.3193
  272OCTO   H21 7323   3.018   0.469   0.178 -0.5189 -1.5954 -0.8810
  272OCTO   H22 7324   3.162   0.388   0.085  0.4148 -2.0028  1.7120
  272OCTO    C3 7325   3.136   0.364   0.301  0.3022 -0.1011  0.1064
  272OCTO   H31 7326   3.242   0.354   0.334  0.4483 -2.3318 -0.8835
  272OCTO   H32 7327   3.088   0.410   0.391 -0.3733 -2.4179  1.0246
  272OCTO    C4 7328   3.072   0.219   0.286  0.4496  0.0332 -0.4504
  272OCTO   H41 7329   2.963   0.225   0.263  0.2404  1.7224  0.7409
  272OCTO   H42 7330   3.121   0.166   0.202  1.4532  0.1952  0.0146
  272OCTO    C5 7331   3.091   0.133   0.410 -0.4552 -0.2830  0.2148
  272OCTO   H51 7332   3.192   0.120   0.453 -1.5600 -0.4785  2.9931
  272OCTO   H52 7333   3.032   0.184   0.490 -0.5616  0.6078 -0.4060
  272OCTO    C6 7334   3.025  -0.009   0.391  0.0556 -0.6108 -0.1339
  272OCTO   H61 7335   2.921   0.012   0.358  0.0475 -0.2524  0.1167
  272OCTO   H62 7336   3.087  -0.062   0.317  2.6981  1.2047  0.6302
  272OCTO    C7 7337   3.025  -0.097   0.515 -0.0743  0.0399 -0.9015
  272OCTO   H71 7338   2.989  -0.196   0.479  1.4984 -1.1382  0.6142
  272OCTO   H72 7339   3.127  -0.112   0.556 -0.4371 -1.6579 -0.5487
  272OCTO    C8 7340   2.917  -0.042   0.608 -0.2467 -0.3222  0.4009
  272OCTO   H81 7341   2.823  -0.032   0.549 -0.8956 -1.8883  1.0919
  272OCTO   H82 7342   2.954   0.055   0.645  3.2051 -1.5611  0.5312
  272OCTO    O1 7343   2.902  -0.130   0.716  0.4413 -0.2008  0.2247
  272OCTO   HO1 7344   2.846  -0.071   0.767  0.5788  0.2918 -0.1812
  273OCTO    C1 7345   2.793   2.470   1.441 -0.4275  0.2542  0.1754
  273OCTO   H11 7346   2.841   2.544   1.508 -0.2594  1.3408 -1.1069
  273OCTO   H12 7347   2.767   2.517   1.344 -2.2057  1.3229  1.1272
  273OCTO   H13 7348   2.699   2.442   1.494 -0.7604  1.0717  0.0211
  273OCTO    C2 7349   2.871   2.346   1.417 -0.0827 -0.3290  0.2555
  273OCTO   H21 7350   2.803   2.284   1.354 -2.2068 -1.9103  3.7694
  273OCTO   H22 7351   2.974   2.355   1.377 -0.0259  0.0999  0.4901
  273OCTO    C3 7352   2.887   2.260   1.546 -0.0834  0.0290  0.5936
  273OCTO   H31 7353   2.934   2.318   1.628 -1.8441  1.8031  0.4323
  273OCTO   H32 7354   2.782   2.241   1.578 -0.7498  0.7364 -1.0420
  273OCTO    C4 7355   2.951   2.130   1.517 -0.7746  0.8821  0.2618
  273OCTO   H41 7356   3.021   2.141   1.432 -1.0787 -0.9308 -0.2616
  273OCTO   H42 7357   3.023   2.105   1.598 -0.2125  0.1663 -0.4401
  273OCTO    C5 7358   2.854   2.007   1.514 -0.1695 -0.6227 -0.2130
  273OCTO   H51 7359   2.806   2.005   1.614 -0.6062 -0.4737 -0.4178
  273OCTO   H52 7360   2.781   2.026   1.433 -1.3142  0.3265  0.9898
  273OCTO    C6 7361   2.933   1.876   1.501  0.0622  0.2471 -0.3237
  273OCTO   H61 7362   2.996   1.877   1.410  1.7013  0.5903  0.7849
  273OCTO   H62 7363   2.998   1.862   1.590 -1.8487  2.2294  1.5012
  273OCTO    C7 7364   2.838   1.749   1.499  0.0993  0.0863  0.0975
  273OCTO   H71 7365   2.758   1.769   1.424  0.3386  2.8164  0.4649
  273OCTO   H72 7366   2.898   1.673   1.445  0.8748  0.1571  0.8300
  273OCTO    C8 7367   2.789   1.710   1.641 -0.0099  0.3360 -0.6129
  273OCTO   H81 7368   2.711   1.631   1.647  0.2092  0.2088  2.6308
  273OCTO   H82 7369   2.747   1.806   1.678 -0.9475  0.5016 -2.0409
  273OCTO    O1 7370   2.891   1.664   1.727 -0.5403 -0.2954  0.6848
  273OCTO   HO1 7371   2.853   1.692   1.811  0.7525  1.6146  0.6998
  274OCTO    C1 7372   3.034   2.553   1.961  0.6070  0.6410 -0.4238
  274OCTO   H11 7373   3.108   2.473   1.938 -0.5792 -0.1832 -1.5617
  274OCTO   H12 7374   3.066   2.596   2.058 -1.6511  0.1601  0.5846
  274OCTO   H13 7375   2.934   2.506   1.964 -0.2210  2.2867 -0.8399
  274OCTO    C2 7376   3.032   2.645   1.847 -0.7354  0.0057  0.1618
  274OCTO   H21 7377   2.949   2.715   1.870 -0.4603 -0.1445  1.7797
  274OCTO   H22 7378   3.124   2.707   1.850 -0.8097  0.1207  0.0613
  274OCTO    C3 7379   3.033   2.586   1.705 -0.8878  0.0052 -0.5490
  274OCTO   H31 7380   2.933   2.538   1.701 -1.0491  0.2468  0.4511
  274OCTO   H32 7381   3.034   2.662   1.624 -0.9359  1.4762  0.7839
  274OCTO    C4 7382   3.150   2.489   1.674 -0.1302  0.0835  0.8836
  274OCTO   H41 7383   3.144   2.398   1.738 -0.8220  0.2607  1.0868
  274OCTO   H42 7384   3.128   2.457   1.570 -1.0021  0.3848  0.9627
  274OCTO    C5 7385   3.287   2.567   1.677 -0.3711  0.3188  0.6072
  274OCTO   H51 7386   3.294   2.642   1.759 -2.1454  1.1021  0.0912
  274OCTO   H52 7387   3.368   2.494   1.696  0.5601  0.8178 -1.2534
  274OCTO    C6 7388   3.312   2.639   1.541  0.6983  0.0586 -0.0883
  274OCTO   H61 7389   3.333   2.567   1.459  0.8430 -1.0166  0.8686
  274OCTO   H62 7390   3.218   2.685   1.504 -0.9813 -3.0934 -0.1162
  274OCTO    C7 7391   3.441   2.722   1.528  0.4155 -0.3777  0.0277
  274OCTO   H71 7392   3.438   2.800   1.607 -0.6628 -1.6233  1.2767
  274OCTO   H72 7393   3.530   2.656   1.536  0.8967  0.3355  0.7296
  274OCTO    C8 7394   3.450   2.790   1.385 -0.0343  0.2601 -0.3425
  274OCTO   H81 7395   3.353   2.839   1.360 -1.0256 -0.1732  2.3884
  274OCTO   H82 7396   3.455   2.712   1.306 -2.1466 -1.7656  1.3928
  274OCTO    O1 7397   3.555   2.886   1.395  0.0813  0.4385  0.0677
  274OCTO   HO1 7398   3.561   2.940   1.316  0.8160 -0.5634 -0.5739
  275OCTO    C1 7399   1.273   3.505   0.860 -0.0098  0.5636  0.1472
  275OCTO   H11 7400   1.301   3.436   0.942  0.7506  0.8667  0.1494
  275OCTO   H12 7401   1.238   3.449   0.771 -0.2444  1.5669 -0.4010
  275OCTO   H13 7402   1.364   3.564   0.836  0.1142 -0.1606 -1.2442
  275OCTO    C2 7403   1.157   3.591   0.908  0.4308  0.4079 -0.4591
  275OCTO   H21 7404   1.097   3.523   0.971  1.2687  2.1378  2.4019
  275OCTO   H22 7405   1.194   3.678   0.968  0.7667  0.9416 -1.4172
  275OCTO    C3 7406   1.081   3.653   0.783  0.4051  0.8992  0.4322
  275OCTO   H31 7407   1.031   3.566   0.736 -0.3609  1.0048  1.0383
  275OCTO   H32 7408   0.998   3.723   0.809 -1.3184 -0.2641 -1.5498
  275OCTO    C4 7409   1.174   3.731   0.690 -0.0754 -0.0735 -0.0445
  275OCTO   H41 7410   1.217   3.809   0.757  0.5256 -0.6887  0.2835
  275OCTO   H42 7411   1.253   3.658   0.663 -0.3464 -0.6335  0.6517
  275OCTO    C5 7412   1.098   3.774   0.561 -0.7130 -0.0739 -0.2418
  275OCTO   H51 7413   1.036   3.685   0.536  0.1517 -0.2306 -2.0254
  275OCTO   H52 7414   1.035   3.863   0.581  0.0013  0.3903 -0.0540
  275OCTO    C6 7415   1.190   3.800   0.440  0.8830 -0.1301 -0.3479
  275OCTO   H61 7416   1.273   3.867   0.472 -0.4133  0.6434  1.5774
  275OCTO   H62 7417   1.226   3.701   0.404 -0.3668 -0.6382 -0.2248
  275OCTO    C7 7418   1.111   3.862   0.318  0.0878 -0.5573 -0.4386
  275OCTO   H71 7419   1.029   3.792   0.293  0.0750 -0.2551 -1.2699
  275OCTO   H72 7420   1.061   3.957   0.348  0.2301 -0.5832 -0.1078
  275OCTO    C8 7421   1.192   3.896   0.193 -0.9212 -0.3523  0.4699
  275OCTO   H81 7422   1.265   3.814   0.177 -0.3654  0.2460 -0.1020
  275OCTO   H82 7423   1.254   3.988   0.198  0.6445 -1.2829 -0.9514
  275OCTO    O1 7424   1.117   3.895   0.073 -0.0654 -0.1421  0.0478
  275OCTO   HO1 7425   1.169   3.942   0.007  0.9445  1.9548  2.1920
  276OCTO    C1 7426   2.241   0.880   3.864  0.6943 -0.4988  0.7977
  276OCTO   H11 7427   2.227   0.773   3.892 -0.0436 -0.6885 -0.2509
  276OCTO   H12 7428   2.288   0.878   3.764  1.4707 -0.3780  1.1492
  276OCTO   H13 7429   2.310   0.924   3.940 -0.3052 -0.7750  1.9038
  276OCTO    C2 7430   2.104   0.950   3.864 -0.5935 -0.0026 -0.2291
  276OCTO   H21 7431   2.108   1.045   3.807 -0.7646  0.2247  0.1301
  276OCTO   H22 7432   2.037   0.898   3.792 -0.6402  1.4235 -1.2544
  276OCTO    C3 7433   2.022   0.964   4.003  0.4236  0.3857  0.0499
  276OCTO   H31 7434   2.004   0.864   4.047  0.1233  0.9809  1.3350
  276OCTO   H32 7435   2.095   1.013   4.072 -0.6159  2.1049 -0.0133
  276OCTO    C4 7436   1.891   1.038   3.991 -0.8786  0.3874 -0.2593
  276OCTO   H41 7437   1.825   0.986   3.918 -1.3377  2.1303 -1.1355
  276OCTO   H42 7438   1.842   1.035   4.090 -1.6135 -1.0196 -0.6325
  276OCTO    C5 7439   1.911   1.183   3.953 -0.2417  0.5176  0.8721
  276OCTO   H51 7440   1.980   1.234   4.022  0.3974  0.0658  0.5719
  276OCTO   H52 7441   1.952   1.183   3.850 -2.2033  1.3421  0.0304
  276OCTO    C6 7442   1.780   1.264   3.952  0.6983  0.4814 -0.3129
  276OCTO   H61 7443   1.725   1.230   3.862  2.9623  0.7247 -1.8752
  276OCTO   H62 7444   1.719   1.256   4.045  2.6383  1.2686  1.1060
  276OCTO    C7 7445   1.795   1.414   3.961 -0.2651 -0.6329 -0.3969
  276OCTO   H71 7446   1.864   1.440   4.044 -3.2877  3.0931  1.3039
  276OCTO   H72 7447   1.831   1.445   3.861 -0.3881  1.3434  0.1228
  276OCTO    C8 7448   1.667   1.489   3.979  0.6141  0.1108 -0.6865
  276OCTO   H81 7449   1.701   1.595   3.973  1.1329  0.0949  1.4251
  276OCTO   H82 7450   1.622   1.470   4.078 -1.6438  0.3752 -1.5917
  276OCTO    O1 7451   1.560   1.466   3.885 -0.0904 -0.6664 -0.2893
  276OCTO   HO1 7452   1.501   1.541   3.873  1.1564  0.2658 -0.9786
  277OCTO    C1 7453   4.053   0.853   1.845  0.5279 -0.1217 -0.1905
  277OCTO   H11 7454   4.101   0.848   1.945 -0.4258 -0.0109  0.2830
  277OCTO   H12 7455   3.993   0.759   1.838  2.7722 -1.6470  0.1186
  277OCTO   H13 7456   4.122   0.839   1.759  0.0137  0.6791 -0.7394
  277OCTO    C2 7457   3.965   0.982   1.829  0.3710 -0.0617  0.7738
  277OCTO   H21 7458   3.902   0.987   1.920 -0.5683 -2.9367  0.4088
  277OCTO   H22 7459   4.033   1.068   1.814 -1.2870  1.4163  1.3811
  277OCTO    C3 7460   3.872   0.973   1.711 -0.2656 -0.1148  0.1377
  277OCTO   H31 7461   3.797   0.891   1.720  1.0408 -1.4368 -0.5125
  277OCTO   H32 7462   3.811   1.066   1.708  0.6742  0.5156  0.3108
  277OCTO    C4 7463   3.946   0.980   1.574 -1.0285  0.4757  0.8025
  277OCTO   H41 7464   4.028   1.055   1.583  1.3342 -1.7832 -0.5760
  277OCTO   H42 7465   3.997   0.884   1.554  0.1080  1.4491 -1.3384
  277OCTO    C5 7466   3.855   1.031   1.458  0.6495  0.1668 -0.0295
  277OCTO   H51 7467   3.780   0.949   1.463  0.1167  0.7132  3.3989
  277OCTO   H52 7468   3.807   1.125   1.495 -2.9022 -1.0259 -1.1901
  277OCTO    C6 7469   3.930   1.041   1.333 -0.3306  0.1097  0.5167
  277OCTO   H61 7470   4.023   1.099   1.350 -1.0827  0.7356  2.9592
  277OCTO   H62 7471   3.961   0.940   1.300 -1.7609 -0.3790  0.5716
  277OCTO    C7 7472   3.839   1.092   1.218  0.4728 -0.2495  0.6264
  277OCTO   H71 7473   3.875   1.046   1.123  1.6396  0.8739  0.4833
  277OCTO   H72 7474   3.737   1.049   1.226  0.4486  0.0208  1.8857
  277OCTO    C8 7475   3.827   1.240   1.208 -0.3705  0.8278  0.2250
  277OCTO   H81 7476   3.788   1.279   1.305 -2.2679 -0.5040  0.0665
  277OCTO   H82 7477   3.764   1.280   1.125 -0.9025 -0.5714 -0.0633
  277OCTO    O1 7478   3.961   1.284   1.189 -0.1924  0.0790 -0.2855
  277OCTO   HO1 7479   3.968   1.373   1.222  2.2924  0.6036 -1.9630
  278OCTO    C1 7480   2.639   1.138   4.020 -0.4247 -0.9618  0.1150
  278OCTO   H11 7481   2.533   1.134   4.051  0.1701 -0.3644  2.4256
  278OCTO   H12 7482   2.666   1.227   4.081 -0.3408 -1.6056  1.0471
  278OCTO   H13 7483   2.666   1.156   3.914  0.3041 -1.1578  0.2620
  278OCTO    C2 7484   2.705   1.004   4.060 -0.0461 -0.6777 -0.2924
  278OCTO   H21 7485   2.813   1.010   4.086  0.3033 -1.8371 -1.3785
  278OCTO   H22 7486   2.674   0.986   4.165  0.7264  0.3359  0.1239
  278OCTO    C3 7487   2.666   0.881   3.987  0.3630 -0.3901  0.7618
  278OCTO   H31 7488   2.555   0.880   3.977  0.5403  0.5319 -2.4338
  278OCTO   H32 7489   2.701   0.889   3.881 -1.4377 -0.1620  0.1505
  278OCTO    C4 7490   2.723   0.742   4.038  0.2050 -0.0083 -0.3292
  278OCTO   H41 7491   2.831   0.768   4.044  0.3153  0.5691 -3.3531
  278OCTO   H42 7492   2.678   0.710   4.134 -2.6191  1.7435 -0.9687
  278OCTO    C5 7493   2.690   0.626   3.940  0.3137 -0.5689  0.3121
  278OCTO   H51 7494   2.749   0.644   3.847  0.0023 -2.3848 -0.2785
  278OCTO   H52 7495   2.725   0.527   3.975 -2.4510 -1.2591  1.3998
  278OCTO    C6 7496   2.539   0.622   3.894  0.3744  1.5518  0.0345
  278OCTO   H61 7497   2.467   0.609   3.977  0.1864  0.0136 -0.3407
  278OCTO   H62 7498   2.515   0.715   3.838 -2.3081  0.1841 -1.2562
  278OCTO    C7 7499   2.510   0.495   3.805 -0.2314 -0.3870 -0.2749
  278OCTO   H71 7500   2.545   0.405   3.860 -0.9050  0.1034  1.0185
  278OCTO   H72 7501   2.400   0.498   3.790 -0.2370  0.2677 -0.1197
  278OCTO    C8 7502   2.576   0.500   3.673 -0.1532 -0.3935 -0.3240
  278OCTO   H81 7503   2.685   0.512   3.687 -0.3529  2.4682 -0.7372
  278OCTO   H82 7504   2.528   0.568   3.599 -0.8682  0.0646  0.5410
  278OCTO    O1 7505   2.563   0.375   3.607 -0.6949 -0.5037 -0.0821
  278OCTO   HO1 7506   2.620   0.371   3.530  1.7280 -1.4310  1.6349
  279OCTO    C1 7507   2.182   1.135   2.163  0.7384 -0.5028  0.0116
  279OCTO   H11 7508   2.140   1.220   2.105  0.4652 -0.6142  0.0452
  279OCTO   H12 7509   2.231   1.059   2.099 -0.7031 -0.8651 -0.7043
  279OCTO   H13 7510   2.098   1.080   2.212  1.1927 -0.4893  0.8275
  279OCTO    C2 7511   2.282   1.185   2.268 -0.5404  0.7149 -0.4941
  279OCTO   H21 7512   2.332   1.098   2.315  2.0161  2.2743 -0.1426
  279OCTO   H22 7513   2.367   1.245   2.229  1.0257 -0.9086  0.3291
  279OCTO    C3 7514   2.221   1.248   2.392 -0.2783  0.3875  0.0049
  279OCTO   H31 7515   2.151   1.174   2.437 -0.7098 -1.1162 -2.8862
  279OCTO   H32 7516   2.294   1.264   2.475 -0.9036  2.8979  0.1645
  279OCTO    C4 7517   2.148   1.384   2.356 -0.1919  0.3475 -0.2592
  279OCTO   H41 7518   2.178   1.424   2.257 -0.0121  0.0148 -0.3394
  279OCTO   H42 7519   2.041   1.355   2.353 -0.7293  2.2140 -0.2777
  279OCTO    C5 7520   2.161   1.496   2.460 -0.1251 -0.1961  0.2623
  279OCTO   H51 7521   2.155   1.455   2.563  1.8295  3.2382  1.9432
  279OCTO   H52 7522   2.270   1.519   2.463  0.3018 -2.1468  1.9668
  279OCTO    C6 7523   2.064   1.615   2.451 -0.6558  0.1648  0.1385
  279OCTO   H61 7524   2.092   1.679   2.364  0.5934 -0.3585  0.1291
  279OCTO   H62 7525   1.959   1.586   2.431 -0.3555 -0.0903 -1.2063
  279OCTO    C7 7526   2.049   1.682   2.595 -0.7951 -0.2557 -0.2905
  279OCTO   H71 7527   1.966   1.755   2.588 -0.5141  0.3135  1.7238
  279OCTO   H72 7528   2.017   1.604   2.667 -0.3610 -0.5353 -0.3938
  279OCTO    C8 7529   2.174   1.751   2.645  0.3106  1.0926  0.4623
  279OCTO   H81 7530   2.259   1.679   2.640 -1.0409 -0.4802 -1.7234
  279OCTO   H82 7531   2.150   1.782   2.748 -1.9956  0.9106  0.0292
  279OCTO    O1 7532   2.208   1.864   2.562 -0.2436  0.4019 -0.3734
  279OCTO   HO1 7533   2.288   1.850   2.511  2.3332  0.7149  3.1707
  280OCTO    C1 7534   1.566   2.442   4.172  0.0402  0.7672  0.2264
  280OCTO   H11 7535   1.500   2.354   4.155  0.6034  0.5894 -1.1245
  280OCTO   H12 7536   1.569   2.502   4.078  1.3858  1.8132  0.9097
  280OCTO   H13 7537   1.667   2.400   4.189  0.6163  0.5898 -2.9704
  280OCTO    C2 7538   1.502   2.514   4.289 -0.0946 -0.0658 -0.2300
  280OCTO   H21 7539   1.570   2.591   4.331  0.9061 -0.5704 -0.8894
  280OCTO   H22 7540   1.409   2.561   4.252 -0.2535 -0.2272 -0.0359
  280OCTO    C3 7541   1.467   2.427   4.413 -0.1624  0.1708 -0.2928
  280OCTO   H31 7542   1.404   2.339   4.388  1.7772 -1.3792  0.0357
  280OCTO   H32 7543   1.561   2.368   4.424  0.6397  1.0940 -1.7682
  280OCTO    C4 7544   1.409   2.500   4.530 -0.4159  0.0590 -0.2042
  280OCTO   H41 7545   1.468   2.593   4.545  1.5655 -0.5576 -3.2966
  280OCTO   H42 7546   1.301   2.516   4.508 -0.7841 -1.4225  0.3992
  280OCTO    C5 7547   1.409   2.421   4.655  0.4839 -0.2096  0.0260
  280OCTO   H51 7548   1.343   2.334   4.640  2.4055 -2.1424  1.9996
  280OCTO   H52 7549   1.506   2.371   4.678 -0.2642 -0.8443  2.0214
  280OCTO    C6 7550   1.375   2.505   4.777  0.6913  0.1851 -0.5212
  280OCTO   H61 7551   1.468   2.552   4.815  1.0822 -1.4622  0.6397
  280OCTO   H62 7552   1.302   2.585   4.751 -1.5387 -1.5128  0.1760
  280OCTO    C7 7553   1.303   2.426   4.884  0.3245  0.0548  0.5076
  280OCTO   H71 7554   1.356   2.329   4.899 -2.8234 -1.8204  0.3158
  280OCTO   H72 7555   1.310   2.487   4.977  1.0955  1.2774 -0.3317
  280OCTO    C8 7556   1.154   2.389   4.864 -0.1546  0.0629  0.0751
  280OCTO   H81 7557   1.135   2.329   4.772 -0.3246  0.2172  0.0094
  280OCTO   H82 7558   1.091   2.480   4.860 -0.2228 -0.0267 -1.4467
  280OCTO    O1 7559   1.114   2.307   4.978  0.1582 -0.2855 -0.4082
  280OCTO   HO1 7560   1.030   2.272   4.947 -0.7699  1.8541 -0.4484
  281OCTO    C1 7561   0.978   0.774   3.542 -0.5222  0.2583 -0.6831
  281OCTO   H11 7562   1.017   0.793   3.644  0.7153 -0.0391 -1.0790
  281OCTO   H12 7563   0.975   0.663   3.531  0.6124  0.3580 -2.3956
  281OCTO   H13 7564   1.037   0.800   3.452 -1.5562  0.0298 -1.4513
  281OCTO    C2 7565   0.841   0.846   3.532  0.3692  0.5091 -0.2805
  281OCTO   H21 7566   0.792   0.863   3.630 -1.1183  0.6818 -1.0325
  281OCTO   H22 7567   0.846   0.946   3.483 -1.9364  0.8699  0.1299
  281OCTO    C3 7568   0.741   0.772   3.450  0.0806 -0.0386  0.4845
  281OCTO   H31 7569   0.722   0.672   3.497  0.0415  0.5053  1.6728
  281OCTO   H32 7570   0.638   0.815   3.449 -0.0196 -0.2105  1.7060
  281OCTO    C4 7571   0.790   0.737   3.316 -0.1484  0.3758  0.0451
  281OCTO   H41 7572   0.821   0.825   3.257  0.2527 -0.4609 -1.0392
  281OCTO   H42 7573   0.880   0.671   3.322 -0.7490 -0.4556  0.1716
  281OCTO    C5 7574   0.678   0.655   3.238 -0.0106 -0.3124  0.0983
  281OCTO   H51 7575   0.650   0.565   3.296 -0.5451 -0.1641  0.0752
  281OCTO   H52 7576   0.593   0.727   3.232 -0.6588 -0.8732  2.0460
  281OCTO    C6 7577   0.722   0.608   3.091 -0.1747 -0.1505 -0.4559
  281OCTO   H61 7578   0.632   0.575   3.035 -0.3794  0.3246 -0.4170
  281OCTO   H62 7579   0.756   0.699   3.037 -1.1666 -0.0038 -0.8559
  281OCTO    C7 7580   0.837   0.509   3.084 -0.2515  0.0019  0.1961
  281OCTO   H71 7581   0.937   0.551   3.107 -0.4354 -0.4465  1.9203
  281OCTO   H72 7582   0.812   0.428   3.155 -2.7017 -0.8326 -1.4618
  281OCTO    C8 7583   0.839   0.444   2.942  0.0697 -0.5418 -0.4821
  281OCTO   H81 7584   0.738   0.405   2.918 -0.4027 -0.3592  1.0873
  281OCTO   H82 7585   0.921   0.369   2.941  1.2682  0.6478  1.3354
  281OCTO    O1 7586   0.865   0.542   2.844 -0.2887  0.8115  0.2126
  281OCTO   HO1 7587   0.958   0.536   2.821 -0.7792 -0.5837 -1.6739
  282OCTO    C1 7588   0.619   1.523   2.236  0.0988  0.3202  0.1827
  282OCTO   H11 7589   0.564   1.491   2.145 -0.5838  1.3358  0.2238
  282OCTO   H12 7590   0.563   1.610   2.277  1.7142  1.4118  0.1446
  282OCTO   H13 7591   0.718   1.551   2.193  0.4080 -0.9399  0.0349
  282OCTO    C2 7592   0.649   1.414   2.345 -0.2376 -0.4102 -0.9118
  282OCTO   H21 7593   0.699   1.457   2.435 -2.0012 -0.6004  0.1990
  282OCTO   H22 7594   0.551   1.372   2.375 -1.2944  0.0875 -3.4266
  282OCTO    C3 7595   0.736   1.297   2.293 -0.0754 -0.0140  0.4581
  282OCTO   H31 7596   0.690   1.257   2.200  1.2665  2.0924 -1.1844
  282OCTO   H32 7597   0.833   1.348   2.276  0.0447 -0.8971 -1.9517
  282OCTO    C4 7598   0.759   1.183   2.392  0.1113  0.5069  0.0000
  282OCTO   H41 7599   0.818   1.214   2.481  1.1807  1.1709 -0.9113
  282OCTO   H42 7600   0.660   1.149   2.429  0.9464 -1.8754  0.1930
  282OCTO    C5 7601   0.813   1.049   2.328 -0.1925  0.4631  0.6431
  282OCTO   H51 7602   0.725   1.006   2.275 -0.2952 -0.3448  1.4366
  282OCTO   H52 7603   0.880   1.072   2.242 -0.2678  1.3827  0.8189
  282OCTO    C6 7604   0.865   0.950   2.429 -0.0104  0.6478  0.2552
  282OCTO   H61 7605   0.941   0.999   2.492  1.0945  0.2492 -0.7341
  282OCTO   H62 7606   0.779   0.931   2.497 -0.6779  0.5422 -0.5870
  282OCTO    C7 7607   0.922   0.826   2.358  0.5644  0.1284 -0.3260
  282OCTO   H71 7608   0.954   0.755   2.437  1.2013  0.7354 -0.0237
  282OCTO   H72 7609   0.837   0.781   2.303  0.6112 -0.4819  0.0819
  282OCTO    C8 7610   1.048   0.848   2.266 -0.4982 -0.2314  0.6098
  282OCTO   H81 7611   1.123   0.903   2.327 -2.0342  1.0500  1.3942
  282OCTO   H82 7612   1.026   0.891   2.167 -0.1773 -1.4827 -0.0332
  282OCTO    O1 7613   1.110   0.724   2.232 -0.1311 -0.3885 -0.8260
  282OCTO   HO1 7614   1.204   0.733   2.250 -0.7627 -0.0659  2.9243
  283OCTO    C1 7615   2.235   1.683   0.999 -0.7595  0.5362  0.1708
  283OCTO   H11 7616   2.137   1.692   1.051 -2.1746 -1.2812 -2.0143
  283OCTO   H12 7617   2.270   1.763   0.931 -0.6900 -0.1749 -0.6417
  283OCTO   H13 7618   2.242   1.583   0.951  2.7641  0.6852  0.1647
  283OCTO    C2 7619   2.334   1.680   1.114 -0.5777  0.0073 -0.2599
  283OCTO   H21 7620   2.341   1.784   1.152  2.4812 -0.1767 -0.0794
  283OCTO   H22 7621   2.307   1.612   1.197  2.8204  0.7380  1.6033
  283OCTO    C3 7622   2.476   1.647   1.068  0.5528 -0.7135  0.2174
  283OCTO   H31 7623   2.464   1.544   1.029 -1.2910 -0.4219 -0.0664
  283OCTO   H32 7624   2.511   1.709   0.983  1.4249 -0.5322  0.6927
  283OCTO    C4 7625   2.581   1.665   1.182  0.4489 -0.3807 -0.7731
  283OCTO   H41 7626   2.580   1.771   1.213  0.9643  0.0362 -2.1232
  283OCTO   H42 7627   2.530   1.617   1.269 -2.2746  1.2757 -1.3486
  283OCTO    C5 7628   2.722   1.609   1.159 -0.7709 -0.6144 -0.5198
  283OCTO   H51 7629   2.781   1.599   1.252 -1.9367 -1.3766  0.1703
  283OCTO   H52 7630   2.710   1.507   1.118 -1.3561 -0.5250 -0.5829
  283OCTO    C6 7631   2.810   1.686   1.061 -0.1210  0.6085 -0.3350
  283OCTO   H61 7632   2.758   1.684   0.963 -2.3560 -0.6834  0.7985
  283OCTO   H62 7633   2.827   1.792   1.093 -1.0080  0.7376 -0.2626
  283OCTO    C7 7634   2.956   1.629   1.047 -0.0718 -0.2423 -0.0010
  283OCTO   H71 7635   2.941   1.522   1.021 -1.2213 -0.2490  0.6507
  283OCTO   H72 7636   3.005   1.679   0.960  1.7093  0.7564  1.5135
  283OCTO    C8 7637   3.047   1.651   1.166 -0.5875 -0.4934 -1.7888
  283OCTO   H81 7638   3.001   1.607   1.257 -0.9815 -1.5270 -2.4751
  283OCTO   H82 7639   3.058   1.760   1.184  2.7897 -0.9555 -0.2105
  283OCTO    O1 7640   3.172   1.601   1.133 -0.3016  0.4503  0.2232
  283OCTO   HO1 7641   3.168   1.508   1.153  2.8362  0.1078 -0.1588
  284OCTO    C1 7642   2.351   0.848   1.788 -0.7331  0.0272  0.2090
  284OCTO   H11 7643   2.244   0.860   1.761 -0.4097  1.2369 -0.6042
  284OCTO   H12 7644   2.376   0.743   1.814  0.2421 -0.1986 -1.4640
  284OCTO   H13 7645   2.371   0.901   1.883 -0.7138 -1.8621  1.2998
  284OCTO    C2 7646   2.427   0.893   1.672 -0.0498  0.4994 -0.0839
  284OCTO   H21 7647   2.436   1.003   1.668  1.5171  0.3821 -1.5085
  284OCTO   H22 7648   2.529   0.862   1.706 -0.5642  1.2467  2.3213
  284OCTO    C3 7649   2.394   0.829   1.539 -0.0556 -0.1226  0.0091
  284OCTO   H31 7650   2.368   0.722   1.555  1.3977 -0.4315  0.3968
  284OCTO   H32 7651   2.293   0.867   1.510  0.7795  1.1379 -1.3384
  284OCTO    C4 7652   2.498   0.851   1.423 -0.4100 -0.1412 -0.2664
  284OCTO   H41 7653   2.519   0.960   1.415  0.8399 -0.4365 -1.3483
  284OCTO   H42 7654   2.588   0.799   1.463  0.1993  2.2588  1.8122
  284OCTO    C5 7655   2.443   0.788   1.297 -0.2124  0.2474 -0.0395
  284OCTO   H51 7656   2.433   0.682   1.327  0.7417  0.1143 -0.1734
  284OCTO   H52 7657   2.348   0.839   1.271 -0.3434  1.0965  1.9206
  284OCTO    C6 7658   2.522   0.783   1.165 -0.7987 -0.2959 -0.8589
  284OCTO   H61 7659   2.538   0.885   1.124  2.9658 -1.1310 -1.8136
  284OCTO   H62 7660   2.627   0.749   1.164 -0.8501 -0.5687 -3.2417
  284OCTO    C7 7661   2.458   0.692   1.061  0.4930  0.0914 -0.1142
  284OCTO   H71 7662   2.448   0.595   1.114  0.2521 -0.3745 -1.0003
  284OCTO   H72 7663   2.358   0.732   1.033  0.5582 -0.3857 -1.0709
  284OCTO    C8 7664   2.540   0.668   0.934  0.0282  0.0107  0.0674
  284OCTO   H81 7665   2.634   0.618   0.965 -1.6082 -2.2146  1.7235
  284OCTO   H82 7666   2.564   0.764   0.882  0.4857 -1.2612 -2.2225
  284OCTO    O1 7667   2.476   0.579   0.844 -0.1120 -0.0474  0.1883
  284OCTO   HO1 7668   2.411   0.631   0.796  1.0726  1.8588  0.5132
  285OCTO    C1 7669   0.411   2.798   0.379 -0.2183 -0.0089  0.3121
  285OCTO   H11 7670   0.511   2.750   0.372 -0.1844  0.2044 -0.8750
  285OCTO   H12 7671   0.443   2.904   0.370  0.8842 -0.4564 -1.7480
  285OCTO   H13 7672   0.370   2.771   0.478  0.3795 -2.8421 -0.1229
  285OCTO    C2 7673   0.325   2.750   0.254 -0.1578 -0.5471  0.4074
  285OCTO   H21 7674   0.232   2.811   0.250 -0.0840 -0.4779 -0.4587
  285OCTO   H22 7675   0.377   2.759   0.156 -2.9179 -0.9995 -1.2256
  285OCTO    C3 7676   0.301   2.604   0.269 -0.0550  0.4456 -0.0690
  285OCTO   H31 7677   0.386   2.539   0.301 -0.0329  0.2155 -0.5893
  285OCTO   H32 7678   0.233   2.592   0.357  0.4377 -0.5106  0.2069
  285OCTO    C4 7679   0.227   2.548   0.147  0.1921 -0.3944 -0.3631
  285OCTO   H41 7680   0.131   2.603   0.140  0.5211  0.0942 -1.2869
  285OCTO   H42 7681   0.292   2.577   0.061  0.4762  3.3149  0.9273
  285OCTO    C5 7682   0.218   2.397   0.161  0.0832  1.2528 -0.1011
  285OCTO   H51 7683   0.194   2.349   0.064 -0.8628 -0.1978  0.8098
  285OCTO   H52 7684   0.319   2.359   0.190 -0.3593  0.7252  0.7804
  285OCTO    C6 7685   0.123   2.336   0.277 -0.4175 -0.2689  0.0212
  285OCTO   H61 7686   0.163   2.234   0.296 -1.1240 -0.6412 -0.4811
  285OCTO   H62 7687   0.147   2.397   0.367  0.1259 -1.1298  0.4771
  285OCTO    C7 7688  -0.027   2.341   0.249 -0.8339 -0.5605 -0.0238
  285OCTO   H71 7689  -0.091   2.336   0.340  0.4956 -0.5937  0.9411
  285OCTO   H72 7690  -0.043   2.440   0.201 -1.2206 -1.0649 -0.9494
  285OCTO    C8 7691  -0.075   2.242   0.145 -0.2254 -0.0560  0.0795
  285OCTO   H81 7692  -0.100   2.148   0.199  0.5903  0.0011  0.5767
  285OCTO   H82 7693   0.012   2.209   0.085 -2.4713 -1.5150 -2.6303
  285OCTO    O1 7694  -0.187   2.290   0.070 -0.3153  0.5771 -0.9010
  285OCTO   HO1 7695  -0.148   2.345   0.002  0.2476  0.3535 -0.7651
  286OCTO    C1 7696   1.706   0.323   3.528 -0.1558  0.1910 -0.2591
  286OCTO   H11 7697   1.803   0.305   3.579  0.0360 -0.5232 -0.8569
  286OCTO   H12 7698   1.636   0.371   3.600  1.2992 -1.2349  2.2558
  286OCTO   H13 7699   1.676   0.218   3.509  1.1557 -0.6767  2.0650
  286OCTO    C2 7700   1.728   0.404   3.400  0.3059  0.4684 -0.2420
  286OCTO   H21 7701   1.641   0.385   3.333 -1.1428  0.7287  1.5118
  286OCTO   H22 7702   1.736   0.513   3.417 -1.1131  1.0274 -2.6821
  286OCTO    C3 7703   1.849   0.355   3.319  0.5566 -0.5341 -0.0240
  286OCTO   H31 7704   1.933   0.327   3.386  0.6540 -1.2833 -0.4411
  286OCTO   H32 7705   1.822   0.258   3.273 -1.1816  0.1777 -0.5812
  286OCTO    C4 7706   1.906   0.449   3.213 -0.9598 -0.2041  0.1107
  286OCTO   H41 7707   1.828   0.476   3.139 -0.5171  0.7848 -0.0065
  286OCTO   H42 7708   1.939   0.545   3.258  1.6644  0.3226 -2.6310
  286OCTO    C5 7709   2.033   0.405   3.122 -0.4783 -0.2931 -0.0034
  286OCTO   H51 7710   2.008   0.323   3.052 -0.1159 -0.8188  0.4727
  286OCTO   H52 7711   2.059   0.488   3.054 -1.7771 -1.1929 -1.6620
  286OCTO    C6 7712   2.149   0.367   3.214 -0.1275  0.6981  0.6128
  286OCTO   H61 7713   2.170   0.439   3.296 -1.1583  1.3640  0.3113
  286OCTO   H62 7714   2.118   0.275   3.266  1.2145 -0.5631 -0.7140
  286OCTO    C7 7715   2.268   0.328   3.130 -0.3690  0.7918  0.3305
  286OCTO   H71 7716   2.252   0.262   3.042  0.9964 -0.8736  1.2691
  286OCTO   H72 7717   2.320   0.419   3.096  0.2452 -0.5054 -2.4468
  286OCTO    C8 7718   2.363   0.270   3.228  0.0294  0.5868  0.1531
  286OCTO   H81 7719   2.324   0.169   3.253  0.2800  0.4946  0.1745
  286OCTO   H82 7720   2.367   0.314   3.329 -1.9922 -2.7876  1.9018
  286OCTO    O1 7721   2.489   0.243   3.172 -0.2346 -0.4331  0.2940
  286OCTO   HO1 7722   2.525   0.179   3.232 -1.2163  0.1426  1.5449
  287OCTO    C1 7723   3.281   2.648   2.460  0.3436  0.3390  0.7600
  287OCTO   H11 7724   3.239   2.750   2.476  2.1224  0.9489  1.7675
  287OCTO   H12 7725   3.292   2.606   2.358 -3.2468  0.3488  0.2358
  287OCTO   H13 7726   3.209   2.576   2.504 -0.5335 -0.3175 -1.6081
  287OCTO    C2 7727   3.416   2.652   2.534  0.4372  0.5163 -0.0527
  287OCTO   H21 7728   3.382   2.693   2.631 -1.6543  2.0470 -1.3492
  287OCTO   H22 7729   3.451   2.547   2.543 -1.1946  0.0668  1.4222
  287OCTO    C3 7730   3.512   2.755   2.487  0.7350 -0.5355 -0.0891
  287OCTO   H31 7731   3.458   2.851   2.501  1.0619  0.1028 -2.7575
  287OCTO   H32 7732   3.595   2.756   2.561 -1.0893  0.9483  2.1213
  287OCTO    C4 7733   3.558   2.731   2.346  0.2330 -0.1860  0.3140
  287OCTO   H41 7734   3.470   2.734   2.277 -1.4923 -2.8768  2.2011
  287OCTO   H42 7735   3.628   2.812   2.317  0.1788  0.4257  1.8289
  287OCTO    C5 7736   3.643   2.603   2.334  0.3481 -0.5353  0.1678
  287OCTO   H51 7737   3.716   2.618   2.416  0.3837  0.5325 -0.0458
  287OCTO   H52 7738   3.583   2.516   2.367  0.4806 -0.8648 -0.4430
  287OCTO    C6 7739   3.716   2.579   2.199 -0.0192  0.8786 -0.3305
  287OCTO   H61 7740   3.740   2.683   2.169 -0.3034  1.9224  2.6991
  287OCTO   H62 7741   3.804   2.514   2.222 -0.5109  0.8340  1.5835
  287OCTO    C7 7742   3.626   2.514   2.091 -0.0851  0.4403  0.0287
  287OCTO   H71 7743   3.636   2.406   2.112 -0.9875  0.4441  0.5105
  287OCTO   H72 7744   3.524   2.558   2.085  0.1224  1.0131  0.5618
  287OCTO    C8 7745   3.684   2.544   1.952 -0.0115  0.0906 -0.1456
  287OCTO   H81 7746   3.609   2.506   1.879 -0.8260 -0.5787  1.0102
  287OCTO   H82 7747   3.781   2.491   1.938 -0.8178 -1.3802 -0.3847
  287OCTO    O1 7748   3.701   2.688   1.930 -0.4772  0.5196 -0.2840
  287OCTO   HO1 7749   3.744   2.702   1.845  0.9392  1.7487  0.5789
  288OCTO    C1 7750   0.071   0.425   0.861  0.4574  0.0764 -0.7361
  288OCTO   H11 7751   0.030   0.331   0.820  0.3099  0.2927 -1.0837
  288OCTO   H12 7752   0.167   0.391   0.907 -0.1728  1.3336  1.6554
  288OCTO   H13 7753   0.004   0.465   0.940  1.7969 -0.4973  0.7700
  288OCTO    C2 7754   0.098   0.536   0.756  0.8257  0.6491 -0.6443
  288OCTO   H21 7755   0.145   0.624   0.806 -1.3666  0.9044  1.1643
  288OCTO   H22 7756   0.172   0.506   0.680  0.6929 -0.9851 -0.1640
  288OCTO    C3 7757  -0.027   0.584   0.682  0.5219  0.3220  0.4467
  288OCTO   H31 7758  -0.003   0.671   0.617 -0.6842  0.4026  0.1028
  288OCTO   H32 7759  -0.075   0.499   0.631 -1.1015 -1.0614  3.9591
  288OCTO    C4 7760  -0.125   0.639   0.780  0.1939  0.0590  0.5045
  288OCTO   H41 7761  -0.208   0.573   0.815 -0.2691  1.5400  2.3971
  288OCTO   H42 7762  -0.067   0.685   0.863  1.2420  1.1533 -0.7839
  288OCTO    C5 7763  -0.200   0.766   0.725  0.2410 -1.0814  0.0001
  288OCTO   H51 7764  -0.130   0.842   0.683 -0.4754 -0.3808  0.0542
  288OCTO   H52 7765  -0.259   0.734   0.636 -1.7261 -0.1636  0.9127
  288OCTO    C6 7766  -0.300   0.838   0.817  0.1403 -0.0647  0.0013
  288OCTO   H61 7767  -0.371   0.759   0.850  0.7122 -1.5482 -2.1226
  288OCTO   H62 7768  -0.247   0.874   0.908  2.1154 -1.4702 -0.5182
  288OCTO    C7 7769  -0.378   0.955   0.751 -0.8213  0.1051 -0.1989
  288OCTO   H71 7770  -0.423   1.017   0.832  0.4404  0.6734  0.0957
  288OCTO   H72 7771  -0.300   1.013   0.697 -1.5006 -0.5795 -1.9937
  288OCTO    C8 7772  -0.481   0.919   0.647  0.1504 -0.5064 -0.3395
  288OCTO   H81 7773  -0.436   0.854   0.568  0.1847 -0.6267 -0.2223
  288OCTO   H82 7774  -0.522   1.016   0.614 -2.1957 -0.8484  1.2627
  288OCTO    O1 7775  -0.591   0.856   0.720  0.1131  0.1209  0.2876
  288OCTO   HO1 7776  -0.641   0.812   0.651 -0.0995  0.2276  0.3733
  289OCTO    C1 7777   3.015   2.044   0.935 -0.5396 -0.2523  0.6858
  289OCTO   H11 7778   2.920   2.043   0.993 -1.1221  2.1622 -0.1225
  289OCTO   H12 7779   3.011   1.963   0.859  0.7036  0.7507 -0.5140
  289OCTO   H13 7780   3.101   2.021   1.002 -1.1069  0.8716  1.8437
  289OCTO    C2 7781   3.026   2.179   0.868 -0.1712  0.1022  0.0816
  289OCTO   H21 7782   2.979   2.253   0.936 -1.6962 -1.1603  0.4644
  289OCTO   H22 7783   3.135   2.198   0.865  0.1257  0.5631  5.1983
  289OCTO    C3 7784   2.962   2.188   0.735 -0.5393 -0.4864  0.1262
  289OCTO   H31 7785   3.000   2.105   0.671 -2.6387 -0.7829 -0.8334
  289OCTO   H32 7786   2.854   2.162   0.741  0.0107 -3.0688  0.0694
  289OCTO    C4 7787   2.988   2.327   0.663 -0.0266 -0.1644 -0.1060
  289OCTO   H41 7788   2.947   2.407   0.729 -2.1144 -1.3963  0.1908
  289OCTO   H42 7789   3.094   2.360   0.656  0.6688 -1.8115  1.7068
  289OCTO    C5 7790   2.922   2.329   0.524 -0.2546 -0.1852 -0.3651
  289OCTO   H51 7791   2.979   2.254   0.465  0.3130 -0.6869  0.7988
  289OCTO   H52 7792   2.813   2.313   0.538 -0.1505  0.2254  1.0527
  289OCTO    C6 7793   2.950   2.460   0.449  0.3800  0.0710 -0.0146
  289OCTO   H61 7794   2.928   2.552   0.506  1.6144  0.1778  0.2992
  289OCTO   H62 7795   3.058   2.465   0.426  0.0260  0.5150 -1.7661
  289OCTO    C7 7796   2.862   2.474   0.327 -0.8330 -0.0767 -0.6337
  289OCTO   H71 7797   2.877   2.384   0.263 -0.2244 -0.8176  0.5096
  289OCTO   H72 7798   2.758   2.459   0.362 -0.7826  0.0274 -0.4356
  289OCTO    C8 7799   2.895   2.592   0.240  0.0171  0.3067  0.3955
  289OCTO   H81 7800   3.001   2.574   0.209 -0.6393  1.0409 -2.5815
  289OCTO   H82 7801   2.891   2.683   0.304 -1.6684  0.0238  0.7174
  289OCTO    O1 7802   2.812   2.581   0.122  0.3390 -0.0541 -0.3438
  289OCTO   HO1 7803   2.722   2.601   0.151  0.3250 -1.2363  0.5230
  290OCTO    C1 7804   2.956   2.621   2.845 -0.3623  0.5598 -0.9749
  290OCTO   H11 7805   2.988   2.515   2.842  1.0240  0.9540 -1.0622
  290OCTO   H12 7806   2.992   2.654   2.945 -1.2543 -2.4166  0.4331
  290OCTO   H13 7807   2.846   2.631   2.850 -0.2144  2.2131 -0.3281
  290OCTO    C2 7808   3.039   2.693   2.736  0.1550  0.5803 -0.0386
  290OCTO   H21 7809   3.147   2.668   2.745 -0.3726 -1.5658  0.9419
  290OCTO   H22 7810   3.012   2.671   2.630 -2.5095 -1.5362  0.9535
  290OCTO    C3 7811   3.039   2.844   2.760 -0.5036 -1.0439 -0.4437
  290OCTO   H31 7812   2.934   2.882   2.763 -0.3111 -0.5456  0.3244
  290OCTO   H32 7813   3.097   2.873   2.850 -0.9407 -1.2296 -0.0976
  290OCTO    C4 7814   3.102   2.918   2.641  0.0295  0.1394 -0.5543
  290OCTO   H41 7815   3.208   2.886   2.639  0.5567  1.7881 -2.2723
  290OCTO   H42 7816   3.067   2.887   2.540 -1.6654 -2.2565  0.6557
  290OCTO    C5 7817   3.108   3.075   2.673  0.5800  0.0505  0.7320
  290OCTO   H51 7818   3.109   3.087   2.784  1.9192 -3.1936  1.2058
  290OCTO   H52 7819   3.206   3.109   2.634 -0.5435 -0.0776 -2.4378
  290OCTO    C6 7820   2.989   3.159   2.606 -0.2048  0.3001  0.2669
  290OCTO   H61 7821   3.017   3.174   2.499 -1.1952  0.1667 -0.0266
  290OCTO   H62 7822   2.897   3.096   2.617  0.5708 -0.5868  2.0452
  290OCTO    C7 7823   2.975   3.291   2.682 -0.0180 -0.5341 -0.9713
  290OCTO   H71 7824   2.955   3.263   2.788  0.6790  0.0520 -0.6768
  290OCTO   H72 7825   3.074   3.341   2.681  0.1802 -0.7891  1.2390
  290OCTO    C8 7826   2.856   3.378   2.641 -0.5671  0.3804  0.7848
  290OCTO   H81 7827   2.862   3.401   2.533 -2.8755 -0.0489  0.5125
  290OCTO   H82 7828   2.860   3.476   2.692 -0.4967  1.9656 -2.0683
  290OCTO    O1 7829   2.735   3.308   2.664  0.8413  0.0389  0.1072
  290OCTO   HO1 7830   2.736   3.240   2.597  1.2890 -0.9805  1.1008
  291OCTO    C1 7831   1.246   0.243   1.225 -1.3835  0.3390  0.8416
  291OCTO   H11 7832   1.276   0.283   1.126 -0.1221 -2.7927 -0.1327
  291OCTO   H12 7833   1.346   0.215   1.264 -0.2357  1.5822 -1.0654
  291OCTO   H13 7834   1.181   0.154   1.225  0.9068 -1.6781 -3.8418
  291OCTO    C2 7835   1.207   0.357   1.321  0.7369 -0.2107  0.5316
  291OCTO   H21 7836   1.098   0.366   1.307  0.6810  0.0920  1.1532
  291OCTO   H22 7837   1.214   0.313   1.423 -0.7196 -0.5845  0.4876
  291OCTO    C3 7838   1.277   0.487   1.300  0.3749 -0.0558 -0.5240
  291OCTO   H31 7839   1.385   0.460   1.295  0.5489  0.2965  0.8769
  291OCTO   H32 7840   1.250   0.531   1.201 -2.0050 -0.6462 -0.1998
  291OCTO    C4 7841   1.265   0.592   1.413 -0.0372 -0.5201  0.1814
  291OCTO   H41 7842   1.177   0.660   1.409 -0.8227 -1.5643 -1.8366
  291OCTO   H42 7843   1.260   0.534   1.507 -1.2216  0.8564  1.0150
  291OCTO    C5 7844   1.388   0.678   1.418  0.4621 -0.6128  0.4855
  291OCTO   H51 7845   1.474   0.612   1.441 -1.7989 -2.9968  2.7280
  291OCTO   H52 7846   1.407   0.736   1.326  1.1741  0.4479  1.2694
  291OCTO    C6 7847   1.379   0.768   1.539  0.2564 -0.2584 -0.2761
  291OCTO   H61 7848   1.295   0.838   1.520  0.2077 -1.0177 -3.3795
  291OCTO   H62 7849   1.349   0.710   1.628  1.7439 -0.1080  0.3629
  291OCTO    C7 7850   1.512   0.840   1.572 -0.6117 -0.3082  0.1525
  291OCTO   H71 7851   1.588   0.772   1.615  1.1329  1.6899  0.4294
  291OCTO   H72 7852   1.563   0.879   1.481 -0.8296 -1.5149 -0.5085
  291OCTO    C8 7853   1.498   0.945   1.678  0.6126  0.2994 -0.1067
  291OCTO   H81 7854   1.592   0.990   1.718  0.6720 -0.0839  0.1862
  291OCTO   H82 7855   1.454   0.901   1.770  0.3723 -0.4514 -0.5733
  291OCTO    O1 7856   1.421   1.055   1.631 -0.3446  0.4172  1.2981
  291OCTO   HO1 7857   1.335   1.015   1.616 -0.3225  0.1237  1.9009
  292OCTO    C1 7858   0.100   3.337   3.965 -0.1327  0.1434  0.1502
  292OCTO   H11 7859   0.021   3.290   4.027  0.3767  0.7542  1.2958
  292OCTO   H12 7860   0.157   3.402   4.035 -1.5289  1.4696  0.1084
  292OCTO   H13 7861   0.056   3.389   3.878  0.0470 -1.2525 -0.8222
  292OCTO    C2 7862   0.197   3.232   3.901 -0.7021  0.1276  0.0354
  292OCTO   H21 7863   0.265   3.291   3.836  0.7108  0.0818  1.4190
  292OCTO   H22 7864   0.258   3.185   3.981 -0.4607  1.0542  0.4069
  292OCTO    C3 7865   0.117   3.122   3.821  0.6622  0.0273 -1.0744
  292OCTO   H31 7866   0.039   3.161   3.752 -2.7509 -0.5699  2.0838
  292OCTO   H32 7867   0.193   3.079   3.753  0.3409 -0.5492 -1.0794
  292OCTO    C4 7868   0.063   3.007   3.904  1.1053 -0.1048  0.0783
  292OCTO   H41 7869   0.010   3.049   3.992 -1.3599 -0.0651 -1.3390
  292OCTO   H42 7870  -0.010   2.956   3.836  0.0714  1.0495  0.2969
  292OCTO    C5 7871   0.174   2.913   3.945  0.3992 -0.8310 -0.9485
  292OCTO   H51 7872   0.238   2.888   3.857  3.3543  1.9253  0.2195
  292OCTO   H52 7873   0.249   2.964   4.010  2.0323 -2.0242 -1.8036
  292OCTO    C6 7874   0.111   2.802   4.021  0.0742 -0.1884  0.0932
  292OCTO   H61 7875   0.039   2.834   4.100 -0.6270 -1.4120 -0.0172
  292OCTO   H62 7876   0.042   2.740   3.960  1.4748 -1.6086 -0.1017
  292OCTO    C7 7877   0.210   2.712   4.097 -0.8046  0.1730  0.8003
  292OCTO   H71 7878   0.292   2.775   4.136  0.4381 -0.0198 -1.3267
  292OCTO   H72 7879   0.149   2.656   4.171 -1.9450 -0.3083 -0.4591
  292OCTO    C8 7880   0.280   2.602   4.008 -0.8463 -0.9393 -0.2546
  292OCTO   H81 7881   0.345   2.534   4.067 -0.1874 -1.0471 -1.0876
  292OCTO   H82 7882   0.349   2.650   3.935 -2.4736 -1.4111 -2.1880
  292OCTO    O1 7883   0.182   2.531   3.940  0.1126 -0.1562 -0.0017
  292OCTO   HO1 7884   0.107   2.537   3.999  0.7246  1.9664  0.6626
  293OCTO    C1 7885   4.289   1.063   1.465 -0.3963  0.0437 -0.2786
  293OCTO   H11 7886   4.289   1.066   1.354  2.3652  2.3108 -0.3204
  293OCTO   H12 7887   4.206   0.994   1.492  0.2974 -0.6664  0.0652
  293OCTO   H13 7888   4.275   1.166   1.504  0.1488  0.6369 -1.5817
  293OCTO    C2 7889   4.433   1.014   1.508 -0.5114 -0.5662 -0.0984
  293OCTO   H21 7890   4.423   0.971   1.610 -1.8792  0.8844  0.4147
  293OCTO   H22 7891   4.471   0.935   1.439  2.3580 -0.0955  0.8021
  293OCTO    C3 7892   4.534   1.134   1.514 -0.1962  0.6790  0.5858
  293OCTO   H31 7893   4.554   1.173   1.411  1.1985  1.5351  1.1478
  293OCTO   H32 7894   4.498   1.212   1.584  0.8765  0.8637  0.9485
  293OCTO    C4 7895   4.671   1.092   1.568  0.1556 -0.2422  0.0739
  293OCTO   H41 7896   4.712   1.024   1.491 -1.5341 -0.5545 -0.5724
  293OCTO   H42 7897   4.746   1.175   1.573  0.3546 -0.2888 -1.6342
  293OCTO    C5 7898   4.673   1.023   1.706  0.2699  0.0325 -0.7816
  293OCTO   H51 7899   4.643   1.092   1.788  0.1705 -0.7626 -0.1334
  293OCTO   H52 7900   4.602   0.938   1.697  2.0881 -2.0129  2.2323
  293OCTO    C6 7901   4.811   0.956   1.738  0.7119 -0.5426  0.3275
  293OCTO   H61 7902   4.842   0.886   1.657  1.6610  0.7036 -0.4338
  293OCTO   H62 7903   4.894   1.030   1.739  1.6448 -1.5258 -0.5583
  293OCTO    C7 7904   4.817   0.901   1.876 -0.3980 -0.0114 -0.3989
  293OCTO   H71 7905   4.922   0.868   1.887 -0.1103  0.8508 -0.5648
  293OCTO   H72 7906   4.797   0.979   1.952 -2.7821  1.8684 -2.7680
  293OCTO    C8 7907   4.725   0.783   1.902  0.4846 -0.1204 -0.0683
  293OCTO   H81 7908   4.740   0.709   1.820 -0.9650 -0.8028  0.2586
  293OCTO   H82 7909   4.619   0.814   1.895  0.9468  1.4380 -0.6959
  293OCTO    O1 7910   4.742   0.717   2.030 -0.0958  0.2069 -0.3733
  293OCTO   HO1 7911   4.660   0.688   2.072 -0.1453 -2.9209 -2.2263
  294OCTO    C1 7912   3.130   0.155   0.841 -0.1699 -0.3075  0.3767
  294OCTO   H11 7913   3.196   0.120   0.758  0.9287 -2.6682  2.1000
  294OCTO   H12 7914   3.204   0.168   0.923 -0.0930  1.0148  0.1113
  294OCTO   H13 7915   3.058   0.073   0.864 -1.8281  0.9878 -0.0716
  294OCTO    C2 7916   3.043   0.277   0.818 -0.2422 -0.6039 -0.0452
  294OCTO   H21 7917   2.974   0.260   0.732 -2.2894 -0.1914  1.4543
  294OCTO   H22 7918   2.977   0.284   0.907 -1.4670  0.3895 -0.9953
  294OCTO    C3 7919   3.117   0.406   0.782 -0.5433  1.1392  0.2423
  294OCTO   H31 7920   3.185   0.439   0.863  0.9282  0.4964 -0.7062
  294OCTO   H32 7921   3.182   0.382   0.696 -0.6037  2.6313 -0.2571
  294OCTO    C4 7922   3.029   0.521   0.742 -0.2214 -0.3375  0.4640
  294OCTO   H41 7923   2.960   0.499   0.658 -1.0449  0.3069  0.9611
  294OCTO   H42 7924   2.962   0.557   0.823  1.5904  1.7317  1.1458
  294OCTO    C5 7925   3.117   0.645   0.690 -0.0153  0.1926 -0.6154
  294OCTO   H51 7926   3.185   0.679   0.771  2.6865 -1.0502 -2.1891
  294OCTO   H52 7927   3.185   0.613   0.607 -0.2065 -0.6648 -0.4483
  294OCTO    C6 7928   3.022   0.753   0.634 -0.2929  0.0695 -0.3868
  294OCTO   H61 7929   2.946   0.693   0.579  1.2466 -1.4958 -0.9254
  294OCTO   H62 7930   2.966   0.798   0.718  0.9507 -2.2977  1.8697
  294OCTO    C7 7931   3.091   0.857   0.534 -0.2192  0.8281 -0.1678
  294OCTO   H71 7932   3.127   0.799   0.445  1.4070  1.0791  0.2862
  294OCTO   H72 7933   3.009   0.928   0.511 -0.8161  0.0353 -0.5351
  294OCTO    C8 7934   3.211   0.941   0.587  0.7513 -0.0534 -0.4768
  294OCTO   H81 7935   3.233   1.020   0.511 -1.5191  1.2892  0.1863
  294OCTO   H82 7936   3.298   0.882   0.623 -0.1347  0.8112  3.4802
  294OCTO    O1 7937   3.178   1.002   0.712 -0.4628 -0.0772  0.0194
  294OCTO   HO1 7938   3.258   0.994   0.765  0.8862 -0.1197 -1.9367
  295OCTO    C1 7939   1.788   2.761   1.204 -0.3967  0.8058  0.3405
  295OCTO   H11 7940   1.881   2.709   1.173  0.3947  1.1867  1.9847
  295OCTO   H12 7941   1.805   2.811   1.302 -0.1439 -2.3747  2.0664
  295OCTO   H13 7942   1.702   2.694   1.226 -1.1856  0.5700 -2.9972
  295OCTO    C2 7943   1.749   2.862   1.104  0.1452 -0.0235  0.0212
  295OCTO   H21 7944   1.711   2.810   1.013  0.4647  1.4762 -1.0219
  295OCTO   H22 7945   1.671   2.931   1.141 -0.8225  0.8437 -3.2861
  295OCTO    C3 7946   1.852   2.962   1.054 -0.5323  0.0564 -0.0659
  295OCTO   H31 7947   1.795   3.022   0.979  0.9809  1.6756  0.0392
  295OCTO   H32 7948   1.887   3.030   1.135  2.1314 -3.0371  1.6052
  295OCTO    C4 7949   1.973   2.897   0.987  0.6720  0.6888  0.4494
  295OCTO   H41 7950   2.042   2.856   1.063 -0.1814 -0.1726  0.7777
  295OCTO   H42 7951   1.936   2.816   0.920  0.9517 -1.1152  2.3839
  295OCTO    C5 7952   2.047   3.002   0.901  0.0111  0.1181 -0.3751
  295OCTO   H51 7953   1.972   3.037   0.827  0.2969 -1.5239 -1.4950
  295OCTO   H52 7954   2.073   3.083   0.972 -0.5768 -2.7694  3.4811
  295OCTO    C6 7955   2.163   2.950   0.820  0.7261  0.7202 -0.0231
  295OCTO   H61 7956   2.247   2.908   0.880 -0.1492  1.0314  1.4662
  295OCTO   H62 7957   2.140   2.865   0.753  0.6475 -0.0292  0.9382
  295OCTO    C7 7958   2.213   3.065   0.733  0.5627  0.5147  0.2975
  295OCTO   H71 7959   2.122   3.095   0.677  0.5560 -1.9774 -1.1586
  295OCTO   H72 7960   2.239   3.154   0.795  3.1455 -0.0669  0.1599
  295OCTO    C8 7961   2.335   3.021   0.645 -0.1849 -0.3480 -0.8638
  295OCTO   H81 7962   2.303   2.942   0.573  1.1857 -0.1193 -1.7559
  295OCTO   H82 7963   2.412   2.996   0.720 -0.2609 -2.2970 -1.3786
  295OCTO    O1 7964   2.383   3.135   0.577 -0.1359  0.2498 -0.0474
  295OCTO   HO1 7965   2.454   3.105   0.520  0.5061 -0.4248  1.0597
  296OCTO    C1 7966   0.304   1.344   0.187  0.1363  0.7908  0.0056
  296OCTO   H11 7967   0.217   1.299   0.239  0.0343 -0.0847 -0.8843
  296OCTO   H12 7968   0.392   1.325   0.251 -0.4280  1.8246  1.1295
  296OCTO   H13 7969   0.311   1.455   0.181 -1.8228  0.8923 -1.4119
  296OCTO    C2 7970   0.315   1.277   0.051  0.1450  0.6862 -0.2303
  296OCTO   H21 7971   0.412   1.297  -0.001  1.1161 -1.1333  0.7664
  296OCTO   H22 7972   0.312   1.166   0.057 -0.7518  0.7776  1.4325
  296OCTO    C3 7973   0.201   1.314  -0.049 -0.0955 -0.0857 -0.2025
  296OCTO   H31 7974   0.109   1.272  -0.005  1.8123 -2.0742  2.1943
  296OCTO   H32 7975   0.193   1.425  -0.055 -1.5891 -0.2290 -1.3145
  296OCTO    C4 7976   0.225   1.253  -0.190  0.5771  0.3431 -1.0107
  296OCTO   H41 7977   0.299   1.315  -0.246  0.1352  1.5470 -0.3071
  296OCTO   H42 7978   0.267   1.151  -0.182 -1.9947 -0.7224  0.0913
  296OCTO    C5 7979   0.091   1.235  -0.261 -0.3056  0.0962 -0.0201
  296OCTO   H51 7980   0.013   1.178  -0.206  0.1155  0.5792  1.1183
  296OCTO   H52 7981   0.052   1.339  -0.265 -1.2541 -0.2007  1.0142
  296OCTO    C6 7982   0.113   1.177  -0.407  0.0102 -0.7591 -1.0692
  296OCTO   H61 7983   0.025   1.196  -0.474  0.9078  0.8431 -1.8382
  296OCTO   H62 7984   0.201   1.230  -0.448 -0.0947 -0.7565 -1.2941
  296OCTO    C7 7985   0.138   1.031  -0.410  0.5571  0.1006  0.2830
  296OCTO   H71 7986   0.158   0.996  -0.514  0.3066  0.0728  0.2419
  296OCTO   H72 7987   0.217   1.003  -0.338 -0.7330 -1.7902  1.0471
  296OCTO    C8 7988   0.022   0.936  -0.361  0.3845  0.7190  0.8070
  296OCTO   H81 7989  -0.066   0.933  -0.429  0.7013 -1.7930  0.4173
  296OCTO   H82 7990  -0.015   0.968  -0.262  2.9136 -1.2766  2.5211
  296OCTO    O1 7991   0.076   0.807  -0.331 -0.1516  0.8349  0.0958
  296OCTO   HO1 7992   0.007   0.743  -0.352  0.4777  0.6502 -1.6177
  297OCTO    C1 7993   3.084   3.515   1.354 -0.5563  0.3665  0.0408
  297OCTO   H11 7994   3.156   3.592   1.387  1.6711 -1.9250  0.8332
  297OCTO   H12 7995   2.985   3.537   1.401 -1.1123 -0.2008 -0.8383
  297OCTO   H13 7996   3.114   3.409   1.370 -2.2207 -0.0441  0.6641
  297OCTO    C2 7997   3.075   3.544   1.199 -0.9904 -0.2828  0.1512
  297OCTO   H21 7998   3.029   3.463   1.138 -0.5938  0.0780 -0.6340
  297OCTO   H22 7999   3.012   3.634   1.179  0.4136  0.8204  0.5443
  297OCTO    C3 8000   3.219   3.572   1.135  0.0528  0.0448 -0.2979
  297OCTO   H31 8001   3.250   3.666   1.186 -1.0441  0.1689  0.1604
  297OCTO   H32 8002   3.286   3.490   1.169 -1.2210 -1.1950 -0.7239
  297OCTO    C4 8003   3.221   3.599   0.983  1.0315 -0.3440 -0.2022
  297OCTO   H41 8004   3.327   3.610   0.952  2.0689  0.6751  3.1938
  297OCTO   H42 8005   3.171   3.512   0.936  0.2780 -0.4468  0.7631
  297OCTO    C5 8006   3.139   3.720   0.934  1.0168  0.2444 -0.0076
  297OCTO   H51 8007   3.033   3.694   0.955  1.1784 -0.5520 -0.1346
  297OCTO   H52 8008   3.171   3.805   0.998 -0.0499 -1.0765  2.4022
  297OCTO    C6 8009   3.165   3.744   0.785 -0.1651 -0.9960 -0.1618
  297OCTO   H61 8010   3.272   3.774   0.776 -0.4156  0.3352  0.9655
  297OCTO   H62 8011   3.135   3.657   0.723  2.4683 -2.1317  0.0522
  297OCTO    C7 8012   3.076   3.861   0.727  0.0792 -0.2098 -0.3054
  297OCTO   H71 8013   3.068   3.942   0.803  1.0492 -2.0824  1.9119
  297OCTO   H72 8014   3.128   3.901   0.637  0.2491  0.8314  0.2387
  297OCTO    C8 8015   2.937   3.818   0.694 -0.0456 -0.3977  0.2656
  297OCTO   H81 8016   2.878   3.800   0.787 -0.8668 -1.3106 -0.4045
  297OCTO   H82 8017   2.923   3.718   0.647 -3.4214 -0.0724  0.2929
  297OCTO    O1 8018   2.870   3.920   0.618  0.4359  0.0536  0.1221
  297OCTO   HO1 8019   2.891   4.008   0.650 -0.3630  0.1619  0.3737
  298OCTO    C1 8020   1.878   0.231   2.619  0.8556 -0.9431  0.4898
  298OCTO   H11 8021   1.983   0.197   2.607  2.0592  2.6715 -0.7479
  298OCTO   H12 8022   1.812   0.154   2.664 -1.6886  1.2844  0.8165
  298OCTO   H13 8023   1.849   0.253   2.514  0.5700 -1.2364  0.5058
  298OCTO    C2 8024   1.881   0.360   2.705  0.3248 -0.3806  0.0077
  298OCTO   H21 8025   1.783   0.411   2.716  0.0678 -0.7298 -0.6206
  298OCTO   H22 8026   1.919   0.332   2.806  1.5738  0.9925 -0.0524
  298OCTO    C3 8027   1.978   0.469   2.649 -0.4538 -0.0552  0.1616
  298OCTO   H31 8028   2.056   0.423   2.585  1.0371  0.3052  1.6559
  298OCTO   H32 8029   1.922   0.529   2.574  0.1701  0.3961  0.0483
  298OCTO    C4 8030   2.039   0.562   2.762  0.1883  0.2750  0.1241
  298OCTO   H41 8031   2.099   0.494   2.826  0.0580 -0.6170 -0.6638
  298OCTO   H42 8032   2.110   0.637   2.723  0.5994  0.6565  1.5507
  298OCTO    C5 8033   1.935   0.638   2.845 -0.6827 -0.1289 -0.1564
  298OCTO   H51 8034   1.856   0.680   2.779 -0.0339 -0.3459 -1.0935
  298OCTO   H52 8035   1.898   0.564   2.920  0.4651  0.4010  0.9792
  298OCTO    C6 8036   1.991   0.750   2.934 -0.3430  0.5290  0.9997
  298OCTO   H61 8037   2.032   0.696   3.022 -1.3175 -1.4716  0.2814
  298OCTO   H62 8038   2.059   0.814   2.874 -0.6837  0.4674  0.5367
  298OCTO    C7 8039   1.883   0.843   2.995 -0.0370  0.2987 -0.5064
  298OCTO   H71 8040   1.933   0.914   3.064  1.3608 -1.0279 -0.0955
  298OCTO   H72 8041   1.831   0.895   2.911 -0.8454 -1.3541 -1.0551
  298OCTO    C8 8042   1.775   0.776   3.089 -0.7595 -0.1710 -0.4667
  298OCTO   H81 8043   1.824   0.727   3.175 -0.3693  2.8484  1.1763
  298OCTO   H82 8044   1.723   0.703   3.024 -2.9527  1.7444 -1.0149
  298OCTO    O1 8045   1.685   0.878   3.129 -0.1142 -0.5215  0.0030
  298OCTO   HO1 8046   1.626   0.833   3.189  0.6703 -2.0502 -0.3059
  299OCTO    C1 8047   1.412   2.913   0.267 -0.2346 -0.2575  0.3750
  299OCTO   H11 8048   1.454   2.943   0.365  0.7106 -1.2528  0.2985
  299OCTO   H12 8049   1.304   2.940   0.265  0.2806  1.9827  0.4564
  299OCTO   H13 8050   1.428   2.804   0.252  1.0611  0.0752 -0.8984
  299OCTO    C2 8051   1.479   2.989   0.154  0.0942  0.5393 -0.2944
  299OCTO   H21 8052   1.588   2.966   0.158 -0.5744 -3.3921 -0.8697
  299OCTO   H22 8053   1.441   2.943   0.060 -2.8529  1.8167  0.1503
  299OCTO    C3 8054   1.443   3.135   0.164 -0.9942  0.4692  0.2011
  299OCTO   H31 8055   1.337   3.162   0.141 -0.9780  1.4256  1.1894
  299OCTO   H32 8056   1.478   3.166   0.265  0.5678 -0.7479  0.0625
  299OCTO    C4 8057   1.521   3.218   0.068 -0.5424 -0.4197  0.5382
  299OCTO   H41 8058   1.494   3.187  -0.036  2.2286  0.0974 -0.4118
  299OCTO   H42 8059   1.500   3.327   0.075  1.1221 -0.0496  0.1822
  299OCTO    C5 8060   1.672   3.218   0.099  0.2810 -0.1595  0.0013
  299OCTO   H51 8061   1.697   3.248   0.203  0.0212  0.0806 -0.0041
  299OCTO   H52 8062   1.701   3.115   0.070 -4.6206 -1.3281 -1.7298
  299OCTO    C6 8063   1.740   3.318   0.011 -0.5719  0.1055  0.3059
  299OCTO   H61 8064   1.719   3.285  -0.093 -0.6077  0.0257  0.3381
  299OCTO   H62 8065   1.702   3.422   0.014  1.3871  0.8559  0.4422
  299OCTO    C7 8066   1.894   3.335   0.034  0.6530 -0.1983  0.5251
  299OCTO   H71 8067   1.947   3.241   0.009  1.6490  0.9769 -2.1889
  299OCTO   H72 8068   1.934   3.407  -0.041  0.6145 -1.2732 -0.5522
  299OCTO    C8 8069   1.927   3.387   0.175 -0.8925  0.3003 -0.3419
  299OCTO   H81 8070   1.894   3.295   0.227  1.1833 -0.6719 -0.6258
  299OCTO   H82 8071   1.867   3.475   0.206 -2.7969  0.0020 -2.8777
  299OCTO    O1 8072   2.071   3.402   0.197 -0.2895  0.3375  0.5173
  299OCTO   HO1 8073   2.091   3.397   0.290 -2.4491 -2.2771  0.9746
  300OCTO    C1 8074   1.763   3.645   2.367  0.4574  0.0377 -0.0527
  300OCTO   H11 8075   1.847   3.717   2.372  0.1953  0.2828  0.9633
  300OCTO   H12 8076   1.688   3.710   2.317  0.4852  1.1297  1.2730
  300OCTO   H13 8077   1.744   3.633   2.476  1.8859  1.0495  0.3305
  300OCTO    C2 8078   1.787   3.520   2.280 -0.2998  0.0701  0.5909
  300OCTO   H21 8079   1.796   3.552   2.174 -2.1064  2.0480  0.9735
  300OCTO   H22 8080   1.884   3.480   2.319 -0.3815  0.0450  0.7699
  300OCTO    C3 8081   1.673   3.420   2.295  0.4451  0.7418 -0.2129
  300OCTO   H31 8082   1.664   3.394   2.402 -0.8456 -1.4648 -0.8006
  300OCTO   H32 8083   1.587   3.477   2.253  1.2130  1.4523 -0.8511
  300OCTO    C4 8084   1.692   3.301   2.210 -0.2269 -0.0036 -0.0334
  300OCTO   H41 8085   1.706   3.339   2.107 -1.0136 -0.5857 -0.3612
  300OCTO   H42 8086   1.789   3.250   2.227  0.0377  0.6053  0.3141
  300OCTO    C5 8087   1.576   3.200   2.213  0.0437 -0.6789 -0.3367
  300OCTO   H51 8088   1.571   3.178   2.322  0.5765 -0.7742 -0.3278
  300OCTO   H52 8089   1.480   3.249   2.185  0.7274  0.9846  0.0873
  300OCTO    C6 8090   1.596   3.087   2.117  0.6817  0.2771 -0.5270
  300OCTO   H61 8091   1.589   3.130   2.014 -1.3163  1.6523  0.1244
  300OCTO   H62 8092   1.697   3.045   2.137  0.4040 -0.1053  0.0905
  300OCTO    C7 8093   1.472   2.990   2.133 -0.2752 -0.5300  0.3650
  300OCTO   H71 8094   1.379   3.051   2.129  0.5332  0.6897 -0.4122
  300OCTO   H72 8095   1.462   2.940   2.034  3.4097  0.1547 -0.4946
  300OCTO    C8 8096   1.471   2.901   2.252 -0.7745 -0.7405  0.5719
  300OCTO   H81 8097   1.436   2.956   2.342 -1.9235 -0.9905  0.2961
  300OCTO   H82 8098   1.563   2.846   2.282 -0.7266 -0.3069  1.2564
  300OCTO    O1 8099   1.364   2.817   2.230 -0.0895  0.3421 -0.1467
  300OCTO   HO1 8100   1.358   2.756   2.304 -0.3765  0.4797 -0.0584
  301SOL     OW 8101   0.989   2.454   1.105  0.3769 -0.4543 -0.7190
  301SOL    HW1 8102   1.056   2.402   1.060  1.8164 -0.2348  1.0821
  301SOL    HW2 8103   0.988   2.537   1.058  2.6990  0.2109  0.2454
  302SOL     OW 8104   0.612   0.166   1.824 -0.3429  0.1593 -0.1763
  302SOL    HW1 8105   0.707   0.161   1.835 -0.0617 -1.0508 -2.5700
  302SOL    HW2 8106   0.594   0.259   1.809  0.3979  0.4475  0.6698
  303SOL     OW 8107   0.700   0.709   2.115 -0.2166 -0.7319  0.0362
  303SOL    HW1 8108   0.622   0.763   2.114 -0.7907 -1.5549 -0.6986
  303SOL    HW2 8109   0.672   0.626   2.152  0.5685 -0.6715  0.8052
  304SOL     OW 8110   3.021   1.538   2.743 -0.0952  0.2510  0.7827
  304SOL    HW1 8111   3.007   1.529   2.837 -1.1673 -1.8516  0.4631
  304SOL    HW2 8112   2.982   1.460   2.705  0.2610  1.0861 -1.4349
  305SOL     OW 8113   0.598   0.467   2.191 -0.1987  0.1846 -0.6449
  305SOL    HW1 8114   0.681   0.422   2.176 -0.9747 -1.0049 -1.5229
  305SOL    HW2 8115   0.535   0.397   2.206 -0.8334  1.0958  1.3187
  306SOL     OW 8116   2.696   2.633   3.888  0.2474 -0.0729  0.5595
  306SOL    HW1 8117   2.602   2.648   3.882 -0.7016 -4.7805 -0.4551
  306SOL    HW2 8118   2.711   2.611   3.980  0.2694  0.1762  0.6162
  307SOL     OW 8119   0.833   3.845   0.065  0.2973 -1.0871 -0.0385
  307SOL    HW1 8120   0.802   3.935   0.075  0.2298 -1.2213  1.0677
  307SOL    HW2 8121   0.928   3.853   0.063  0.3116 -1.0442  0.6893
  308SOL     OW 8122   2.555   1.385   2.356 -0.2427 -0.2972  0.4363
  308SOL    HW1 8123   2.559   1.294   2.385 -1.6977 -0.0459  1.5075
  308SOL    HW2 8124   2.566   1.437   2.435 -0.4833  0.4488 -0.0065
  309SOL     OW 8125   3.634   1.603   1.336 -0.0476  0.0330 -0.6662
  309SOL    HW1 8126   3.566   1.629   1.274  1.5810  1.5348 -1.9069
  309SOL    HW2 8127   3.609   1.646   1.418  0.3164  2.1271 -1.5912
  310SOL     OW 8128   2.857   1.244   3.109 -0.0708 -0.3412  0.2584
  310SOL    HW1 8129   2.873   1.243   3.203 -0.4226  0.3180  0.3304
  310SOL    HW2 8130   2.771   1.204   3.098 -0.9471  1.4219  0.4195
  311SOL     OW 8131   2.889   1.332   2.607  0.0734 -0.1276 -0.3060
  311SOL    HW1 8132   2.839   1.276   2.666 -0.3037  1.4922  0.9970
  311SOL    HW2 8133   2.823   1.387   2.564  0.6126  1.3259  0.6636
  312SOL     OW 8134   1.417   1.660   0.390  0.6393  0.0470  0.0701
  312SOL    HW1 8135   1.490   1.609   0.426  0.0655 -2.0693 -1.5567
  312SOL    HW2 8136   1.339   1.606   0.409  0.0210  0.2262 -1.8214
  313SOL     OW 8137   1.126   1.616   3.760 -0.2778 -0.5024 -0.3694
  313SOL    HW1 8138   1.146   1.600   3.668 -0.6307  0.2981 -0.5956
  313SOL    HW2 8139   1.045   1.666   3.759  0.3145  0.5084  0.3273
  314SOL     OW 8140   3.946   3.901   2.095 -0.1732  0.2725 -0.0550
  314SOL    HW1 8141   3.944   3.988   2.135 -3.1395  0.7765 -1.0388
  314SOL    HW2 8142   3.900   3.845   2.158  0.1461 -0.1767 -0.2212
  315SOL     OW 8143   0.940   0.745   1.957  0.4872 -0.0228  0.2765
  315SOL    HW1 8144   0.978   0.693   2.028 -0.7262 -1.0760  0.2004
  315SOL    HW2 8145   0.846   0.727   1.963  0.2907  0.4504 -1.1436
  316SOL     OW 8146   0.116   0.019   1.718 -0.1530 -0.3558 -0.4297
  316SOL    HW1 8147   0.137   0.069   1.639 -0.9336 -1.2630 -1.2408
  316SOL    HW2 8148   0.042  -0.036   1.692 -3.3120  2.2515  2.0347
  317SOL     OW 8149   1.348   0.948   2.012  0.7897  0.0431  0.4251
  317SOL    HW1 8150   1.278   0.896   1.972  0.5349 -0.4938  1.5277
  317SOL    HW2 8151   1.330   1.037   1.983 -0.9030  0.0656  1.3798
  318SOL     OW 8152   1.224   1.486   0.478  1.0186  0.5550 -0.0667
  318SOL    HW1 8153   1.290   1.417   0.488  0.4912  0.0287 -0.1444
  318SOL    HW2 8154   1.145   1.449   0.517  0.7235  1.1135 -0.1287
  319SOL     OW 8155   1.421   0.829   2.268 -0.0123  0.4249  0.5083
  319SOL    HW1 8156   1.456   0.872   2.190  2.1334 -0.6254  0.7941
  319SOL    HW2 8157   1.404   0.900   2.329 -0.2948  1.1468 -0.3876
  320SOL     OW 8158   1.217   0.830   2.554 -0.0889  0.2413  0.5933
  320SOL    HW1 8159   1.252   0.904   2.505 -2.3104  0.6635 -0.4762
  320SOL    HW2 8160   1.294   0.782   2.583  1.3725  2.0636 -0.0971
  321SOL     OW 8161   0.286   4.056   0.303 -0.0145  0.2772 -0.3089
  321SOL    HW1 8162   0.258   4.142   0.333  0.4879  0.4032 -0.1838
  321SOL    HW2 8163   0.326   4.073   0.217 -0.6367  0.0479 -0.6528
  322SOL     OW 8164   2.719   0.051   0.853 -0.2301  0.0547 -0.4742
  322SOL    HW1 8165   2.655   0.059   0.782  0.7437  1.9075 -1.2185
  322SOL    HW2 8166   2.703   0.128   0.908 -0.0249 -0.5971  0.5106
  323SOL     OW 8167   3.111   1.219   2.950  0.4580  0.2884 -0.1713
  323SOL    HW1 8168   3.184   1.202   3.010 -0.6377 -0.8914  0.8931
  323SOL    HW2 8169   3.033   1.200   3.002 -0.6368  1.7314 -1.2133
  324SOL     OW 8170   3.187   1.317   1.170 -0.4263  0.2181 -0.5434
  324SOL    HW1 8171   3.098   1.284   1.181 -0.4885  0.8750  1.2573
  324SOL    HW2 8172   3.241   1.254   1.218  0.0102  0.1875 -1.0673
  325SOL     OW 8173   3.177   1.652   1.786  0.5501  0.2448  0.3813
  325SOL    HW1 8174   3.222   1.629   1.705  0.6156  1.3541  0.0833
  325SOL    HW2 8175   3.086   1.629   1.770  0.6970 -0.3061  0.3065
  326SOL     OW 8176   3.816   2.915   1.999 -0.1419 -0.0578 -0.0212
  326SOL    HW1 8177   3.758   2.840   1.991  1.3819 -1.1861 -0.9301
  326SOL    HW2 8178   3.829   2.946   1.910  1.4252 -0.4447  0.0534
  327SOL     OW 8179   2.664   1.534   2.602  0.3827 -0.0931  0.4061
  327SOL    HW1 8180   2.660   1.626   2.576 -0.2812 -0.0628  0.6000
  327SOL    HW2 8181   2.626   1.532   2.690  0.6926 -0.5041  0.5346
  328SOL     OW 8182   4.159   2.494   4.170  0.1974  0.1915 -0.6800
  328SOL    HW1 8183   4.137   2.421   4.111 -0.4548 -2.1179  2.1879
  328SOL    HW2 8184   4.075   2.537   4.186  0.1987  0.2039 -0.7061
  329SOL     OW 8185   1.097   2.237   3.473  0.2014  0.0391 -0.0599
  329SOL    HW1 8186   1.159   2.286   3.527 -0.7456  2.0033 -0.6621
  329SOL    HW2 8187   1.114   2.268   3.384 -1.7047  0.7679 -0.2131
  330SOL     OW 8188   2.680   0.926   2.917  0.1516  0.3571 -0.2272
  330SOL    HW1 8189   2.754   0.866   2.923 -0.3012 -0.1376  0.7345
  330SOL    HW2 8190   2.639   0.905   2.833 -0.1475 -0.8722  0.2056
  331SOL     OW 8191   1.931   2.247   2.718 -0.7131 -0.3425 -0.1048
  331SOL    HW1 8192   1.979   2.233   2.637 -2.5179  1.7547 -1.6321
  331SOL    HW2 8193   1.973   2.187   2.781  1.6419 -1.0216 -2.1638
  332SOL     OW 8194   3.237   2.099   3.852 -0.2194 -0.4391 -0.0985
  332SOL    HW1 8195   3.213   2.177   3.802  0.2496 -0.1789  0.0836
  332SOL    HW2 8196   3.248   2.129   3.942  3.0119 -0.0543 -0.5035
  333SOL     OW 8197   1.916   3.728   0.412  0.1029  0.8253  0.0309
  333SOL    HW1 8198   1.971   3.652   0.430  1.0454  1.7124  1.0297
  333SOL    HW2 8199   1.973   3.803   0.428 -1.0731  1.7597 -0.0399
  334SOL     OW 8200   0.730   2.717   2.607 -0.1729  0.3862 -0.1860
  334SOL    HW1 8201   0.766   2.804   2.617  1.6355 -0.0135 -2.4205
  334SOL    HW2 8202   0.786   2.660   2.660  0.9435  0.1415 -1.5611
  335SOL     OW 8203   3.450   1.816   1.815 -0.2980 -0.1763 -0.0275
  335SOL    HW1 8204   3.376   1.757   1.831  0.0124 -0.6344 -0.2489
  335SOL    HW2 8205   3.513   1.794   1.884 -0.2950  0.0930  0.0569
  336SOL     OW 8206   1.323   2.728   2.507  0.2939  0.2099  0.1253
  336SOL    HW1 8207   1.238   2.706   2.545  0.0501  0.0409 -0.5082
  336SOL    HW2 8208   1.362   2.789   2.570  0.1298 -0.4773  0.9107
  337SOL     OW 8209   1.925   3.760   4.253  0.0690  0.0271 -0.7594
  337SOL    HW1 8210   2.010   3.720   4.275  0.2355 -1.3608 -3.4570
  337SOL    HW2 8211   1.868   3.736   4.325  1.4511 -0.8922  0.0768
  338SOL     OW 8212   1.732   3.720   0.185 -0.2799  0.1277  0.1116
  338SOL    HW1 8213   1.709   3.808   0.155 -1.7957  0.2180  1.4030
  338SOL    HW2 8214   1.805   3.735   0.246 -0.7579  0.5386  0.5902
  339SOL     OW 8215   3.576   1.316   1.400 -0.3432  0.3030  0.0101
  339SOL    HW1 8216   3.617   1.321   1.487 -1.8698 -0.2819  0.8134
  339SOL    HW2 8217   3.601   1.398   1.357  0.0698  0.8280  1.1879
  340SOL     OW 8218   0.831   4.241   2.105 -0.3255  0.3359 -0.1437
  340SOL    HW1 8219   0.739   4.263   2.119 -0.4591  1.0931 -1.9583
  340SOL    HW2 8220   0.875   4.273   2.184 -1.6226 -0.3034  0.8853
  341SOL     OW 8221   1.472   1.025   0.286 -0.3755  0.1712  0.0966
  341SOL    HW1 8222   1.549   0.968   0.291 -1.7956 -2.0713 -1.6204
  341SOL    HW2 8223   1.447   1.022   0.194 -2.2938  1.1522  0.5461
  342SOL     OW 8224   2.533   2.192   3.964 -0.5629 -0.0474 -0.0382
  342SOL    HW1 8225   2.536   2.230   3.876 -2.2142 -0.3117 -0.2274
  342SOL    HW2 8226   2.526   2.098   3.950 -2.5183  0.0021  0.2982
  343SOL     OW 8227   3.724   2.571   0.140  0.3395 -0.0124  0.1286
  343SOL    HW1 8228   3.776   2.496   0.169 -0.1455 -0.9477 -1.2811
  343SOL    HW2 8229   3.634   2.540   0.140 -0.5064  1.9248  3.6100
  344SOL     OW 8230   2.813   0.551   2.972 -0.1628  0.0394 -0.0258
  344SOL    HW1 8231   2.750   0.480   2.970  1.5223 -1.6845  2.4447
  344SOL    HW2 8232   2.862   0.543   2.890 -1.6150  0.0202 -0.9299
  345SOL     OW 8233   0.021   0.535   3.865  0.1399  0.1652  0.1560
  345SOL    HW1 8234   0.107   0.554   3.828  0.0672 -0.3442 -0.2964
  345SOL    HW2 8235   0.014   0.440   3.862 -0.9225  0.2415 -0.9618
  346SOL     OW 8236   2.395   3.375   0.725  0.1804 -0.2614 -0.3083
  346SOL    HW1 8237   2.379   3.306   0.660  1.6101  0.1022 -1.0822
  346SOL    HW2 8238   2.367   3.336   0.808 -1.9619 -0.6385 -1.1431
  347SOL     OW 8239   2.924   1.502   3.025 -0.0144  0.0132 -0.0769
  347SOL    HW1 8240   2.921   1.408   3.043 -0.5755 -0.8738 -3.9639
  347SOL    HW2 8241   3.012   1.528   3.054  0.6009 -1.9750  0.0460
  348SOL     OW 8242   3.743   1.657   1.733  0.4223 -0.0424  0.7453
  348SOL    HW1 8243   3.691   1.692   1.660  0.0192 -0.5698  0.7678
  348SOL    HW2 8244   3.797   1.730   1.762 -0.8060  0.7229  1.1599
  349SOL     OW 8245   2.705   1.551   2.192 -0.1413 -0.3094  0.4241
  349SOL    HW1 8246   2.645   1.503   2.249  0.5490  0.2064  1.6193
  349SOL    HW2 8247   2.788   1.504   2.200 -0.1013 -0.4123 -0.4225
  350SOL     OW 8248   2.608   3.499   3.795  0.3410  0.0727  0.1152
  350SOL    HW1 8249   2.551   3.533   3.726 -0.1508 -1.6481 -0.3799
  350SOL    HW2 8250   2.548   3.476   3.866  0.7503  0.9160  0.7588
  351SOL     OW 8251   2.163   3.599   4.049 -0.6613 -0.2217  0.3872
  351SOL    HW1 8252   2.163   3.579   4.143 -1.1353 -0.9716  0.2350
  351SOL    HW2 8253   2.075   3.577   4.020  0.0355 -1.8740 -0.6197
  352SOL     OW 8254   0.258   0.050   1.964 -0.4467 -0.2463  0.3342
  352SOL    HW1 8255   0.244   0.027   1.872 -0.0510 -0.7222  0.3905
  352SOL    HW2 8256   0.265   0.146   1.964 -3.1966  0.0483  0.2398
  353SOL     OW 8257   2.921   1.115   2.395  0.5441  0.7139  0.3274
  353SOL    HW1 8258   2.878   1.156   2.319  0.6313  0.6090  0.2221
  353SOL    HW2 8259   2.903   1.175   2.467  0.8578  1.0484  0.1273
  354SOL     OW 8260   0.372   0.178   3.909  0.3007  0.2805  0.3988
  354SOL    HW1 8261   0.450   0.146   3.863 -0.4690 -0.8667 -0.1679
  354SOL    HW2 8262   0.375   0.134   3.994 -0.8306 -1.5567 -0.4306
  355SOL     OW 8263   3.290   1.247   2.727  0.2441 -0.1097  0.0461
  355SOL    HW1 8264   3.241   1.199   2.660  0.6762 -1.7129  0.8273
  355SOL    HW2 8265   3.230   1.253   2.801  0.0860  0.8674 -0.1448
  356SOL     OW 8266   3.346   2.280   4.063 -0.0549  0.7681  0.1858
  356SOL    HW1 8267   3.392   2.300   4.144 -1.0677 -0.7566  1.1931
  356SOL    HW2 8268   3.394   2.328   3.995  0.1659  2.9772  1.7908
  357SOL     OW 8269   0.429   0.089   1.407  0.2189  0.1373  0.2489
  357SOL    HW1 8270   0.450   0.047   1.491 -0.6421 -0.0745  0.3658
  357SOL    HW2 8271   0.507   0.075   1.353  0.0303 -1.4552  0.3460
  358SOL     OW 8272   3.973   3.656   1.969 -0.3518 -0.0600  1.0782
  358SOL    HW1 8273   3.893   3.660   1.917  0.8392 -0.1814 -0.8407
  358SOL    HW2 8274   3.976   3.740   2.015 -1.0117  0.4254  0.2647
  359SOL     OW 8275   2.376   3.460   3.909  0.2551 -0.6227 -0.1187
  359SOL    HW1 8276   2.333   3.379   3.882  0.0719 -0.4704 -0.2847
  359SOL    HW2 8277   2.306   3.514   3.944  0.0709  0.1599 -1.6211
  360SOL     OW 8278   2.346   3.695   0.439 -0.5523 -0.2206  0.2284
  360SOL    HW1 8279   2.419   3.706   0.378 -1.0639 -0.1472 -0.3773
  360SOL    HW2 8280   2.388   3.678   0.523  0.1587 -1.4852 -0.3582
  361SOL     OW 8281   0.397   3.837   4.239 -0.0228 -0.9191  0.5285
  361SOL    HW1 8282   0.344   3.772   4.194 -0.6676 -0.1717  0.1932
  361SOL    HW2 8283   0.461   3.785   4.289  1.6290 -1.7825 -2.2542
  362SOL     OW 8284   0.532   4.017   4.027 -0.6431  0.0474 -0.3440
  362SOL    HW1 8285   0.614   3.989   3.986 -0.1696  1.4166 -0.3672
  362SOL    HW2 8286   0.494   3.936   4.061  0.0474 -0.8014 -1.5182
  363SOL     OW 8287   3.801   2.147   3.883  0.4664  0.3959 -0.1256
  363SOL    HW1 8288   3.826   2.109   3.967  0.3043  1.4854  0.4327
  363SOL    HW2 8289   3.749   2.079   3.840 -0.2754  0.1785  1.0645
  364SOL     OW 8290   0.855   0.299   2.205  0.2034  0.6604  0.0142
  364SOL    HW1 8291   0.895   0.212   2.211 -1.5508 -0.1837  0.4757
  364SOL    HW2 8292   0.926   0.360   2.223  1.5053 -0.6753 -0.4063
  365SOL     OW 8293   0.707   3.473   4.243 -0.2090 -0.3865  0.2281
  365SOL    HW1 8294   0.638   3.460   4.177 -0.1770 -1.6223  0.4150
  365SOL    HW2 8295   0.787   3.449   4.198 -0.1117 -0.6337  0.5326
  366SOL     OW 8296   0.274   0.352   1.994 -0.4461  0.2799  0.0039
  366SOL    HW1 8297   0.196   0.374   1.943 -0.9233 -0.5568  0.3551
  366SOL    HW2 8298   0.242   0.341   2.084  0.0427 -0.2780  0.1143
  367SOL     OW 8299   0.528   0.469   1.831 -0.2864 -0.1438  0.7782
  367SOL    HW1 8300   0.550   0.537   1.894  0.7071 -0.4945  0.8286
  367SOL    HW2 8301   0.452   0.425   1.868  0.1641 -0.2104  1.6334
  368SOL     OW 8302   2.543   2.947   0.204  0.3685 -0.2875  0.1053
  368SOL    HW1 8303   2.544   2.851   0.200 -0.9272 -0.3602  0.9257
  368SOL    HW2 8304   2.481   2.972   0.136  0.1054 -0.0825  0.4178
  369SOL     OW 8305   3.569   1.785   1.532  0.1271 -0.0240 -0.2352
  369SOL    HW1 8306   3.556   1.840   1.609 -0.8720  1.0042 -1.1075
  369SOL    HW2 8307   3.484   1.787   1.487  1.0225  0.3093 -1.9515
  370SOL     OW 8308   0.455   4.314   1.670 -0.3769 -0.0796 -0.0660
  370SOL    HW1 8309   0.530   4.346   1.721  0.2462 -0.1349 -0.9136
  370SOL    HW2 8310   0.441   4.225   1.700  0.7864 -0.5440 -0.8443
  371SOL     OW 8311   0.123   0.435   1.472 -0.4010  0.0112 -0.4504
  371SOL    HW1 8312   0.204   0.481   1.454 -0.7980  0.9369  0.0555
  371SOL    HW2 8313   0.150   0.348   1.500  0.4248  0.4000 -0.0218
  372SOL     OW 8314   2.512   3.499   4.308  0.2979 -0.1412  0.4341
  372SOL    HW1 8315   2.479   3.421   4.352  1.6709 -0.0891  1.6400
  372SOL    HW2 8316   2.476   3.494   4.219 -1.5794 -0.8724  1.1799
  373SOL     OW 8317   2.605   1.176   2.530  0.6827  0.6117  0.4034
  373SOL    HW1 8318   2.555   1.095   2.538  2.3342 -0.5598 -0.4905
  373SOL    HW2 8319   2.632   1.197   2.619  0.3723  0.0876  0.6272
  374SOL     OW 8320   0.284   4.273   2.489 -0.0856  0.2363  0.3663
  374SOL    HW1 8321   0.201   4.302   2.451 -0.8888  0.6252  2.3232
  374SOL    HW2 8322   0.339   4.254   2.413 -1.4023  1.5320 -0.9935
  375SOL     OW 8323   0.390   3.678   4.000  0.3510  0.0680 -0.0169
  375SOL    HW1 8324   0.296   3.693   4.010  0.4002 -0.0065  0.6382
  375SOL    HW2 8325   0.416   3.733   3.926 -0.0702  0.6661  0.2768
  376SOL     OW 8326   3.281   1.940   1.637  0.1307  0.0898 -0.4169
  376SOL    HW1 8327   3.325   1.923   1.721  1.1710  0.6189 -0.8398
  376SOL    HW2 8328   3.238   1.857   1.616 -0.5585  0.0931  0.8695
  377SOL     OW 8329   1.086   0.439   2.209 -0.0702 -0.0821  0.0844
  377SOL    HW1 8330   1.088   0.521   2.258 -0.0466 -0.7828  1.3030
  377SOL    HW2 8331   1.145   0.454   2.135  0.9901  0.5547  1.0235
  378SOL     OW 8332   1.340   1.646   3.927  0.1254  0.6667  0.2134
  378SOL    HW1 8333   1.259   1.646   3.877  0.3879 -0.4093 -0.2387
  378SOL    HW2 8334   1.317   1.687   4.010 -0.8236  0.5775  0.0060
  379SOL     OW 8335   2.681   2.538   4.152 -0.2088  0.3075  0.2707
  379SOL    HW1 8336   2.726   2.565   4.233 -2.2827  0.6528  1.3714
  379SOL    HW2 8337   2.607   2.486   4.182 -0.6628 -0.1059 -1.4696
  380SOL     OW 8338   0.379   4.091   0.056  0.1356 -0.4072  0.5202
  380SOL    HW1 8339   0.369   4.172   0.006 -0.1499 -0.2202  0.8783
  380SOL    HW2 8340   0.347   4.022  -0.003  0.3122 -0.2533  0.2423
  381SOL     OW 8341   3.877   1.846   1.871  0.1970 -0.4030  0.2749
  381SOL    HW1 8342   3.924   1.840   1.955  1.2449 -0.2371 -0.2795
  381SOL    HW2 8343   3.815   1.918   1.884  0.1043 -0.6102  1.0225
  382SOL     OW 8344   1.184   0.792   1.831  0.4397  0.2740  0.2314
  382SOL    HW1 8345   1.099   0.768   1.866  0.7927 -0.0861  0.8533
  382SOL    HW2 8346   1.168   0.875   1.786 -0.1820  0.3512  0.5765
  383SOL     OW 8347   2.609   4.068   0.757 -0.7597  0.4881  0.5609
  383SOL    HW1 8348   2.670   4.084   0.829  1.2772 -0.0453 -0.9712
  383SOL    HW2 8349   2.665   4.045   0.682 -2.8358  0.1665 -0.9776
  384SOL     OW 8350   4.192   3.968   1.888 -0.3386  0.3690  0.1599
  384SOL    HW1 8351   4.207   3.875   1.870 -2.4326  0.1766 -0.7960
  384SOL    HW2 8352   4.098   3.975   1.904  0.1080  1.9596  2.7466
  385SOL     OW 8353   0.917   0.044   1.863 -0.2034 -0.1872 -0.0060
  385SOL    HW1 8354   0.895   0.012   1.950  1.0972  0.2947  0.5271
  385SOL    HW2 8355   0.928   0.139   1.873  1.2222 -0.2808 -0.3832
  386SOL     OW 8356   0.121   3.710   4.046 -0.0361 -0.5540  0.6042
  386SOL    HW1 8357   0.030   3.721   4.018 -0.2918 -0.1945  1.5349
  386SOL    HW2 8358   0.116   3.706   4.142  1.0680  1.0087  0.7616
  387SOL     OW 8359   3.768   3.613   0.992  0.3512  0.1652  0.6011
  387SOL    HW1 8360   3.775   3.589   1.084 -1.6916  0.5523  0.9084
  387SOL    HW2 8361   3.700   3.681   0.990 -0.7634 -0.9109 -1.3334
  388SOL     OW 8362   0.449   4.262   2.180  0.4018  0.4125  0.4247
  388SOL    HW1 8363   0.396   4.305   2.112  1.7171  0.7258 -0.4350
  388SOL    HW2 8364   0.517   4.326   2.201 -0.2526  0.5111  2.4036
  389SOL     OW 8365   2.662   3.085   2.465 -0.4846  0.0919  0.0751
  389SOL    HW1 8366   2.668   3.034   2.383 -1.3762  0.3530 -0.1574
  389SOL    HW2 8367   2.665   3.018   2.534 -1.2092 -0.2617 -0.2179
  390SOL     OW 8368   2.683   2.925   2.670 -0.5262 -0.2612  0.1204
  390SOL    HW1 8369   2.596   2.886   2.681 -0.2548 -0.4848  1.5584
  390SOL    HW2 8370   2.738   2.880   2.734  0.9747 -0.9999 -1.6000
  391SOL     OW 8371   0.603   0.157   2.163 -0.5388 -0.1178 -0.5081
  391SOL    HW1 8372   0.606   0.235   2.108 -1.7932  0.3370  0.0410
  391SOL    HW2 8373   0.690   0.153   2.203  0.0560  0.1049 -1.7401
  392SOL     OW 8374   2.672   3.752   3.344  0.4549 -0.3444  0.0677
  392SOL    HW1 8375   2.720   3.822   3.389 -0.2239  0.5526 -0.5792
  392SOL    HW2 8376   2.740   3.689   3.320  1.0336 -0.0789  0.9386
  393SOL     OW 8377   0.432   4.240   2.715 -0.0555  0.4925 -0.3584
  393SOL    HW1 8378   0.347   4.262   2.677 -1.6904 -0.1872  2.5778
  393SOL    HW2 8379   0.444   4.147   2.696 -0.5951  0.2896  0.2598
  394SOL     OW 8380   0.137   4.279   2.201  0.0733 -0.3318 -0.2815
  394SOL    HW1 8381   0.072   4.347   2.216 -0.1170 -0.6901  0.5706
  394SOL    HW2 8382   0.198   4.317   2.137  1.3307  1.5890  1.9223
  395SOL     OW 8383   0.592   3.454   4.006  0.1088 -0.4446  1.2491
  395SOL    HW1 8384   0.517   3.425   3.954  1.1902  1.7160 -1.8180
  395SOL    HW2 8385   0.578   3.547   4.020  1.9736 -0.0754  0.9853
  396SOL     OW 8386   1.490   3.648   0.092 -0.7909 -0.3120 -0.3042
  396SOL    HW1 8387   1.464   3.653   0.184 -0.6647 -0.6038 -0.2514
  396SOL    HW2 8388   1.585   3.642   0.094 -0.4803  2.7517 -0.5628
  397SOL     OW 8389   3.565   3.821   0.936 -0.1143  0.2053 -0.1305
  397SOL    HW1 8390   3.535   3.790   0.850 -1.0491  0.4036  0.1049
  397SOL    HW2 8391   3.599   3.909   0.919 -2.3640  1.1926  0.0027
  398SOL     OW 8392   2.987   3.622   3.512 -0.1914  0.4120  0.2473
  398SOL    HW1 8393   3.000   3.577   3.595 -2.1230  0.1036  0.4174
  398SOL    HW2 8394   2.967   3.553   3.450  1.0213  0.6663 -0.4617
  399SOL     OW 8395   0.589   3.704   0.045  0.0181 -0.3329 -0.4325
  399SOL    HW1 8396   0.620   3.616   0.023  1.2258  0.0640 -0.3776
  399SOL    HW2 8397   0.668   3.758   0.046 -0.4700  0.4096  1.2579
  400SOL     OW 8398   2.720   1.225   2.795  0.0788  0.1396 -0.3326
  400SOL    HW1 8399   2.687   1.202   2.882  1.9577  1.2105  0.7404
  400SOL    HW2 8400   2.729   1.320   2.797  4.1024 -0.0780 -0.0484
   4.31446   4.31446   4.31446
