GROningen MAchine for Chemical Simulation
 8400
    1OCT     C1    1   4.823   2.662   0.343
    1OCT    H11    2   4.740   2.696   0.409
    1OCT    H12    3   4.830   2.731   0.256
    1OCT    H13    4   4.799   2.561   0.304
    1OCT     C2    5   4.955   2.660   0.420
    1OCT    H21    6   4.975   2.762   0.460
    1OCT    H22    7   4.944   2.591   0.508
    1OCT     C3    8   5.076   2.614   0.337
    1OCT    H31    9   5.056   2.512   0.298
    1OCT    H32   10   5.087   2.683   0.250
    1OCT     C4   11   5.207   2.613   0.417
    1OCT    H41   12   5.227   2.715   0.456
    1OCT    H42   13   5.196   2.544   0.504
    1OCT     C5   14   5.328   2.568   0.334
    1OCT    H51   15   5.309   2.465   0.294
    1OCT    H52   16   5.340   2.636   0.246
    1OCT     C6   17   5.459   2.566   0.414
    1OCT    H61   18   5.479   2.668   0.453
    1OCT    H62   19   5.448   2.498   0.500
    1OCT     C7   20   5.580   2.521   0.330
    1OCT    H71   21   5.561   2.418   0.291
    1OCT    H72   22   5.592   2.589   0.243
    1OCT     C8   23   5.711   2.519   0.411
    1OCT    H81   24   5.702   2.450   0.496
    1OCT    H82   25   5.733   2.621   0.448
    1OCT     O1   26   5.820   2.477   0.329
    1OCT    HO1   27   5.897   2.478   0.386
    2OCT     C1   28   3.332   3.379   4.331
    2OCT    H11   29   3.369   3.461   4.396
    2OCT    H12   30   3.226   3.358   4.357
    2OCT    H13   31   3.391   3.287   4.353
    2OCT     C2   32   3.344   3.417   4.184
    2OCT    H21   33   3.286   3.510   4.166
    2OCT    H22   34   3.451   3.439   4.161
    2OCT     C3   35   3.295   3.309   4.087
    2OCT    H31   36   3.354   3.216   4.104
    2OCT    H32   37   3.188   3.287   4.109
    2OCT     C4   38   3.309   3.350   3.939
    2OCT    H41   39   3.250   3.442   3.922
    2OCT    H42   40   3.415   3.371   3.917
    2OCT     C5   41   3.260   3.241   3.842
    2OCT    H51   42   3.318   3.148   3.859
    2OCT    H52   43   3.152   3.219   3.864
    2OCT     C6   44   3.273   3.282   3.695
    2OCT    H61   45   3.214   3.375   3.677
    2OCT    H62   46   3.380   3.304   3.673
    2OCT     C7   47   3.224   3.173   3.598
    2OCT    H71   48   3.282   3.080   3.614
    2OCT    H72   49   3.117   3.151   3.619
    2OCT     C8   50   3.238   3.215   3.450
    2OCT    H81   51   3.344   3.235   3.426
    2OCT    H82   52   3.178   3.306   3.431
    2OCT     O1   53   3.191   3.111   3.364
    2OCT    HO1   54   3.202   3.144   3.275
    3OCT     C1   55   4.117   1.147   5.613
    3OCT    H11   56   4.056   1.178   5.700
    3OCT    H12   57   4.163   1.049   5.635
    3OCT    H13   58   4.199   1.221   5.599
    3OCT     C2   59   4.031   1.139   5.487
    3OCT    H21   60   3.948   1.066   5.505
    3OCT    H22   61   3.984   1.239   5.469
    3OCT     C3   62   4.107   1.097   5.361
    3OCT    H31   63   4.189   1.170   5.343
    3OCT    H32   64   4.153   0.997   5.379
    3OCT     C4   65   4.018   1.089   5.236
    3OCT    H41   66   3.936   1.016   5.254
    3OCT    H42   67   3.972   1.189   5.218
    3OCT     C5   68   4.094   1.047   5.110
    3OCT    H51   69   4.177   1.120   5.091
    3OCT    H52   70   4.141   0.947   5.127
    3OCT     C6   71   4.005   1.039   4.985
    3OCT    H61   72   3.924   0.966   5.003
    3OCT    H62   73   3.959   1.139   4.967
    3OCT     C7   74   4.083   0.997   4.859
    3OCT    H71   75   4.164   1.070   4.840
    3OCT    H72   76   4.128   0.897   4.876
    3OCT     C8   77   3.992   0.989   4.734
    3OCT    H81   78   3.947   1.088   4.714
    3OCT    H82   79   3.912   0.916   4.750
    3OCT     O1   80   4.068   0.950   4.620
    3OCT    HO1   81   4.006   0.947   4.547
    4OCT     C1   82   1.062   3.423   2.331
    4OCT    H11   83   0.997   3.436   2.419
    4OCT    H12   84   1.141   3.348   2.356
    4OCT    H13   85   1.113   3.520   2.308
    4OCT     C2   86   0.981   3.376   2.210
    4OCT    H21   87   0.930   3.281   2.236
    4OCT    H22   88   0.901   3.452   2.189
    4OCT     C3   89   1.063   3.355   2.083
    4OCT    H31   90   1.113   3.450   2.057
    4OCT    H32   91   1.142   3.279   2.104
    4OCT     C4   92   0.979   3.308   1.963
    4OCT    H41   93   0.929   3.212   1.989
    4OCT    H42   94   0.900   3.384   1.942
    4OCT     C5   95   1.061   3.287   1.836
    4OCT    H51   96   1.112   3.382   1.809
    4OCT    H52   97   1.140   3.211   1.856
    4OCT     C6   98   0.977   3.240   1.716
    4OCT    H61   99   0.926   3.144   1.743
    4OCT    H62  100   0.898   3.316   1.695
    4OCT     C7  101   1.060   3.218   1.589
    4OCT    H71  102   1.110   3.314   1.562
    4OCT    H72  103   1.138   3.142   1.609
    4OCT     C8  104   0.975   3.172   1.470
    4OCT    H81  105   0.897   3.247   1.446
    4OCT    H82  106   0.925   3.076   1.494
    4OCT     O1  107   1.056   3.153   1.354
    4OCT    HO1  108   0.996   3.124   1.284
    5OCT     C1  109   5.011   4.418   4.701
    5OCT    H11  110   4.947   4.333   4.671
    5OCT    H12  111   5.007   4.495   4.621
    5OCT    H13  112   5.116   4.383   4.710
    5OCT     C2  113   4.963   4.477   4.834
    5OCT    H21  114   4.856   4.509   4.822
    5OCT    H22  115   4.965   4.397   4.911
    5OCT     C3  116   5.045   4.596   4.884
    5OCT    H31  117   5.151   4.563   4.896
    5OCT    H32  118   5.042   4.676   4.807
    5OCT     C4  119   4.995   4.653   5.017
    5OCT    H41  120   4.889   4.686   5.005
    5OCT    H42  121   4.997   4.573   5.094
    5OCT     C5  122   5.077   4.772   5.067
    5OCT    H51  123   5.183   4.741   5.079
    5OCT    H52  124   5.075   4.853   4.990
    5OCT     C6  125   5.026   4.829   5.200
    5OCT    H61  126   4.921   4.862   5.188
    5OCT    H62  127   5.029   4.749   5.277
    5OCT     C7  128   5.110   4.949   5.250
    5OCT    H71  129   5.215   4.917   5.263
    5OCT    H72  130   5.107   5.029   5.173
    5OCT     C8  131   5.058   5.005   5.383
    5OCT    H81  132   5.062   4.927   5.462
    5OCT    H82  133   4.954   5.040   5.372
    5OCT     O1  134   5.138   5.116   5.426
    5OCT    HO1  135   5.101   5.145   5.509
    6OCT     C1  136   4.540   1.762   0.268
    6OCT    H11  137   4.481   1.802   0.183
    6OCT    H12  138   4.470   1.709   0.337
    6OCT    H13  139   4.586   1.847   0.324
    6OCT     C2  140   4.648   1.666   0.218
    6OCT    H21  141   4.599   1.584   0.161
    6OCT    H22  142   4.714   1.721   0.147
    6OCT     C3  143   4.734   1.605   0.329
    6OCT    H31  144   4.783   1.687   0.385
    6OCT    H32  145   4.668   1.550   0.399
    6OCT     C4  146   4.842   1.509   0.275
    6OCT    H41  147   4.793   1.427   0.219
    6OCT    H42  148   4.908   1.564   0.205
    6OCT     C5  149   4.928   1.448   0.386
    6OCT    H51  150   4.978   1.530   0.443
    6OCT    H52  151   4.863   1.392   0.457
    6OCT     C6  152   5.036   1.352   0.332
    6OCT    H61  153   4.987   1.270   0.276
    6OCT    H62  154   5.102   1.407   0.262
    6OCT     C7  155   5.122   1.291   0.444
    6OCT    H71  156   5.172   1.372   0.500
    6OCT    H72  157   5.057   1.235   0.514
    6OCT     C8  158   5.230   1.195   0.390
    6OCT    H81  159   5.298   1.249   0.321
    6OCT    H82  160   5.182   1.112   0.335
    6OCT     O1  161   5.308   1.141   0.496
    6OCT    HO1  162   5.372   1.083   0.455
    7OCT     C1  163   3.735   6.090   5.220
    7OCT    H11  164   3.672   6.104   5.311
    7OCT    H12  165   3.825   6.154   5.229
    7OCT    H13  166   3.677   6.124   5.132
    7OCT     C2  167   3.774   5.943   5.205
    7OCT    H21  168   3.830   5.911   5.296
    7OCT    H22  169   3.681   5.882   5.198
    7OCT     C3  170   3.861   5.914   5.082
    7OCT    H31  171   3.805   5.946   4.991
    7OCT    H32  172   3.954   5.975   5.089
    7OCT     C4  173   3.900   5.766   5.068
    7OCT    H41  174   3.955   5.735   5.159
    7OCT    H42  175   3.807   5.705   5.061
    7OCT     C5  176   3.986   5.737   4.945
    7OCT    H51  177   3.931   5.769   4.853
    7OCT    H52  178   4.080   5.798   4.951
    7OCT     C6  179   4.025   5.589   4.932
    7OCT    H61  180   4.081   5.558   5.023
    7OCT    H62  181   3.932   5.528   4.925
    7OCT     C7  182   4.112   5.561   4.808
    7OCT    H71  183   4.057   5.591   4.717
    7OCT    H72  184   4.205   5.621   4.815
    7OCT     C8  185   4.150   5.412   4.796
    7OCT    H81  186   4.059   5.350   4.787
    7OCT    H82  187   4.207   5.380   4.885
    7OCT     O1  188   4.231   5.390   4.680
    7OCT    HO1  189   4.250   5.296   4.679
    8OCT     C1  190   0.884   4.844   2.540
    8OCT    H11  191   0.919   4.784   2.626
    8OCT    H12  192   0.914   4.950   2.556
    8OCT    H13  193   0.773   4.840   2.536
    8OCT     C2  194   0.944   4.791   2.409
    8OCT    H21  195   1.055   4.794   2.417
    8OCT    H22  196   0.914   4.684   2.397
    8OCT     C3  197   0.901   4.869   2.284
    8OCT    H31  198   0.790   4.865   2.277
    8OCT    H32  199   0.931   4.975   2.296
    8OCT     C4  200   0.962   4.813   2.155
    8OCT    H41  201   1.073   4.817   2.162
    8OCT    H42  202   0.932   4.707   2.143
    8OCT     C5  203   0.919   4.890   2.030
    8OCT    H51  204   0.808   4.887   2.021
    8OCT    H52  205   0.949   4.997   2.041
    8OCT     C6  206   0.980   4.835   1.900
    8OCT    H61  207   1.091   4.839   1.908
    8OCT    H62  208   0.950   4.729   1.888
    8OCT     C7  209   0.937   4.913   1.775
    8OCT    H71  210   0.826   4.909   1.766
    8OCT    H72  211   0.967   5.019   1.786
    8OCT     C8  212   0.999   4.857   1.646
    8OCT    H81  213   0.968   4.751   1.632
    8OCT    H82  214   1.109   4.862   1.651
    8OCT     O1  215   0.956   4.932   1.532
    8OCT    HO1  216   0.998   4.891   1.457
    9OCT     C1  217   4.731   5.133   2.837
    9OCT    H11  218   4.703   5.158   2.732
    9OCT    H12  219   4.837   5.162   2.853
    9OCT    H13  220   4.723   5.023   2.851
    9OCT     C2  221   4.640   5.207   2.936
    9OCT    H21  222   4.649   5.317   2.917
    9OCT    H22  223   4.534   5.178   2.915
    9OCT     C3  224   4.672   5.179   3.083
    9OCT    H31  225   4.663   5.069   3.101
    9OCT    H32  226   4.777   5.208   3.103
    9OCT     C4  227   4.579   5.254   3.180
    9OCT    H41  228   4.589   5.363   3.162
    9OCT    H42  229   4.474   5.224   3.160
    9OCT     C5  230   4.611   5.225   3.327
    9OCT    H51  231   4.602   5.116   3.347
    9OCT    H52  232   4.717   5.255   3.349
    9OCT     C6  233   4.518   5.300   3.424
    9OCT    H61  234   4.528   5.410   3.406
    9OCT    H62  235   4.413   5.271   3.405
    9OCT     C7  236   4.551   5.272   3.572
    9OCT    H71  237   4.541   5.163   3.591
    9OCT    H72  238   4.656   5.301   3.593
    9OCT     C8  239   4.457   5.347   3.669
    9OCT    H81  240   4.352   5.317   3.651
    9OCT    H82  241   4.467   5.456   3.653
    9OCT     O1  242   4.491   5.318   3.804
    9OCT    HO1  243   4.429   5.368   3.858
   10OCT     C1  244   2.831   0.961   3.140
   10OCT    H11  245   2.896   0.936   3.055
   10OCT    H12  246   2.764   1.045   3.111
   10OCT    H13  247   2.894   0.995   3.225
   10OCT     C2  248   2.748   0.839   3.181
   10OCT    H21  249   2.687   0.806   3.093
   10OCT    H22  250   2.817   0.756   3.208
   10OCT     C3  251   2.653   0.864   3.299
   10OCT    H31  252   2.714   0.896   3.387
   10OCT    H32  253   2.584   0.946   3.272
   10OCT     C4  254   2.571   0.740   3.338
   10OCT    H41  255   2.511   0.708   3.251
   10OCT    H42  256   2.640   0.658   3.365
   10OCT     C5  257   2.477   0.765   3.457
   10OCT    H51  258   2.536   0.798   3.545
   10OCT    H52  259   2.407   0.848   3.431
   10OCT     C6  260   2.395   0.641   3.495
   10OCT    H61  261   2.334   0.609   3.408
   10OCT    H62  262   2.464   0.559   3.522
   10OCT     C7  263   2.300   0.667   3.614
   10OCT    H71  264   2.360   0.699   3.702
   10OCT    H72  265   2.230   0.749   3.588
   10OCT     C8  266   2.218   0.542   3.653
   10OCT    H81  267   2.286   0.460   3.681
   10OCT    H82  268   2.156   0.510   3.567
   10OCT     O1  269   2.132   0.570   3.763
   10OCT    HO1  270   2.085   0.489   3.781
   11OCT     C1  271   3.154   2.396   2.093
   11OCT    H11  272   3.083   2.475   2.062
   11OCT    H12  273   3.240   2.443   2.144
   11OCT    H13  274   3.191   2.345   2.001
   11OCT     C2  275   3.085   2.295   2.186
   11OCT    H21  276   3.047   2.350   2.275
   11OCT    H22  277   2.998   2.251   2.133
   11OCT     C3  278   3.176   2.181   2.233
   11OCT    H31  279   3.214   2.127   2.144
   11OCT    H32  280   3.263   2.225   2.286
   11OCT     C4  281   3.105   2.082   2.326
   11OCT    H41  282   3.068   2.137   2.415
   11OCT    H42  283   3.018   2.038   2.273
   11OCT     C5  284   3.196   1.968   2.374
   11OCT    H51  285   3.235   1.913   2.285
   11OCT    H52  286   3.284   2.011   2.427
   11OCT     C6  287   3.125   1.869   2.467
   11OCT    H61  288   3.088   1.924   2.556
   11OCT    H62  289   3.038   1.825   2.414
   11OCT     C7  290   3.217   1.755   2.514
   11OCT    H71  291   3.255   1.700   2.426
   11OCT    H72  292   3.304   1.798   2.568
   11OCT     C8  293   3.145   1.656   2.608
   11OCT    H81  294   3.059   1.610   2.555
   11OCT    H82  295   3.109   1.709   2.698
   11OCT     O1  296   3.234   1.552   2.649
   11OCT    HO1  297   3.182   1.495   2.706
   12OCT     C1  298   3.963   4.260   0.827
   12OCT    H11  299   3.908   4.334   0.765
   12OCT    H12  300   4.013   4.187   0.760
   12OCT    H13  301   3.890   4.205   0.890
   12OCT     C2  302   4.066   4.332   0.915
   12OCT    H21  303   4.136   4.388   0.849
   12OCT    H22  304   4.013   4.406   0.979
   12OCT     C3  305   4.148   4.238   1.005
   12OCT    H31  306   4.078   4.182   1.071
   12OCT    H32  307   4.201   4.165   0.941
   12OCT     C4  308   4.250   4.312   1.092
   12OCT    H41  309   4.320   4.368   1.026
   12OCT    H42  310   4.197   4.386   1.156
   12OCT     C5  311   4.332   4.219   1.182
   12OCT    H51  312   4.262   4.162   1.248
   12OCT    H52  313   4.386   4.144   1.118
   12OCT     C6  314   4.434   4.293   1.269
   12OCT    H61  315   4.504   4.349   1.203
   12OCT    H62  316   4.381   4.366   1.333
   12OCT     C7  317   4.516   4.198   1.359
   12OCT    H71  318   4.447   4.143   1.425
   12OCT    H72  319   4.570   4.125   1.295
   12OCT     C8  320   4.618   4.274   1.446
   12OCT    H81  321   4.567   4.346   1.512
   12OCT    H82  322   4.690   4.328   1.381
   12OCT     O1  323   4.692   4.183   1.527
   12OCT    HO1  324   4.753   4.236   1.578
   13OCT     C1  325   3.366   3.982  -0.179
   13OCT    H11  326   3.326   4.085  -0.172
   13OCT    H12  327   3.442   3.978  -0.261
   13OCT    H13  328   3.283   3.913  -0.206
   13OCT     C2  329   3.430   3.939  -0.047
   13OCT    H21  330   3.511   4.011  -0.021
   13OCT    H22  331   3.352   3.946   0.034
   13OCT     C3  332   3.488   3.797  -0.047
   13OCT    H31  333   3.407   3.726  -0.072
   13OCT    H32  334   3.565   3.791  -0.127
   13OCT     C4  335   3.551   3.757   0.087
   13OCT    H41  336   3.632   3.829   0.112
   13OCT    H42  337   3.474   3.763   0.167
   13OCT     C5  338   3.609   3.616   0.086
   13OCT    H51  339   3.529   3.543   0.061
   13OCT    H52  340   3.687   3.608   0.007
   13OCT     C6  341   3.672   3.576   0.221
   13OCT    H61  342   3.753   3.647   0.246
   13OCT    H62  343   3.595   3.582   0.300
   13OCT     C7  344   3.731   3.433   0.219
   13OCT    H71  345   3.650   3.361   0.195
   13OCT    H72  346   3.808   3.426   0.140
   13OCT     C8  347   3.793   3.394   0.354
   13OCT    H81  348   3.717   3.398   0.434
   13OCT    H82  349   3.876   3.463   0.380
   13OCT     O1  350   3.846   3.261   0.349
   13OCT    HO1  351   3.883   3.244   0.435
   14OCT     C1  352   2.999   3.838   1.423
   14OCT    H11  353   2.996   3.815   1.314
   14OCT    H12  354   2.949   3.935   1.441
   14OCT    H13  355   3.106   3.848   1.454
   14OCT     C2  356   2.932   3.727   1.503
   14OCT    H21  357   2.826   3.717   1.468
   14OCT    H22  358   2.983   3.630   1.481
   14OCT     C3  359   2.932   3.749   1.655
   14OCT    H31  360   3.037   3.758   1.689
   14OCT    H32  361   2.880   3.845   1.676
   14OCT     C4  362   2.863   3.636   1.733
   14OCT    H41  363   2.758   3.627   1.698
   14OCT    H42  364   2.915   3.540   1.711
   14OCT     C5  365   2.863   3.659   1.884
   14OCT    H51  366   2.968   3.668   1.920
   14OCT    H52  367   2.811   3.755   1.907
   14OCT     C6  368   2.794   3.546   1.962
   14OCT    H61  369   2.689   3.537   1.928
   14OCT    H62  370   2.846   3.450   1.941
   14OCT     C7  371   2.795   3.569   2.114
   14OCT    H71  372   2.900   3.578   2.150
   14OCT    H72  373   2.743   3.664   2.137
   14OCT     C8  374   2.726   3.455   2.192
   14OCT    H81  375   2.777   3.359   2.173
   14OCT    H82  376   2.620   3.446   2.160
   14OCT     O1  377   2.728   3.481   2.332
   14OCT    HO1  378   2.684   3.406   2.373
   15OCT     C1  379   2.869   0.513   2.590
   15OCT    H11  380   2.775   0.555   2.631
   15OCT    H12  381   2.845   0.456   2.498
   15OCT    H13  382   2.912   0.442   2.665
   15OCT     C2  383   2.969   0.624   2.559
   15OCT    H21  384   2.923   0.695   2.486
   15OCT    H22  385   2.989   0.682   2.653
   15OCT     C3  386   3.103   0.575   2.502
   15OCT    H31  387   3.149   0.506   2.575
   15OCT    H32  388   3.082   0.519   2.409
   15OCT     C4  389   3.201   0.689   2.472
   15OCT    H41  390   3.155   0.759   2.398
   15OCT    H42  391   3.221   0.745   2.565
   15OCT     C5  392   3.335   0.640   2.414
   15OCT    H51  393   3.382   0.570   2.487
   15OCT    H52  394   3.315   0.583   2.320
   15OCT     C6  395   3.433   0.754   2.384
   15OCT    H61  396   3.387   0.823   2.311
   15OCT    H62  397   3.453   0.810   2.478
   15OCT     C7  398   3.567   0.703   2.327
   15OCT    H71  399   3.614   0.634   2.400
   15OCT    H72  400   3.547   0.647   2.233
   15OCT     C8  401   3.665   0.818   2.296
   15OCT    H81  402   3.687   0.874   2.389
   15OCT    H82  403   3.620   0.888   2.222
   15OCT     O1  404   3.787   0.768   2.244
   15OCT    HO1  405   3.842   0.844   2.227
   16OCT     C1  406   0.621   4.578   4.514
   16OCT    H11  407   0.640   4.535   4.413
   16OCT    H12  408   0.679   4.673   4.524
   16OCT    H13  409   0.659   4.507   4.591
   16OCT     C2  410   0.472   4.605   4.534
   16OCT    H21  411   0.437   4.675   4.454
   16OCT    H22  412   0.416   4.509   4.521
   16OCT     C3  413   0.436   4.665   4.671
   16OCT    H31  414   0.471   4.595   4.750
   16OCT    H32  415   0.491   4.760   4.683
   16OCT     C4  416   0.286   4.690   4.688
   16OCT    H41  417   0.252   4.760   4.609
   16OCT    H42  418   0.231   4.595   4.676
   16OCT     C5  419   0.250   4.750   4.825
   16OCT    H51  420   0.285   4.680   4.905
   16OCT    H52  421   0.305   4.846   4.838
   16OCT     C6  422   0.100   4.776   4.842
   16OCT    H61  423   0.066   4.846   4.763
   16OCT    H62  424   0.045   4.680   4.830
   16OCT     C7  425   0.065   4.835   4.980
   16OCT    H71  426   0.099   4.766   5.059
   16OCT    H72  427   0.119   4.932   4.992
   16OCT     C8  428  -0.086   4.861   4.996
   16OCT    H81  429  -0.142   4.766   4.986
   16OCT    H82  430  -0.121   4.932   4.919
   16OCT     O1  431  -0.114   4.916   5.125
   16OCT    HO1  432  -0.209   4.929   5.128
   17OCT     C1  433   4.324   0.842   3.698
   17OCT    H11  434   4.316   0.769   3.781
   17OCT    H12  435   4.411   0.909   3.718
   17OCT    H13  436   4.232   0.905   3.697
   17OCT     C2  437   4.341   0.770   3.564
   17OCT    H21  438   4.433   0.707   3.570
   17OCT    H22  439   4.254   0.703   3.549
   17OCT     C3  440   4.354   0.864   3.444
   17OCT    H31  441   4.262   0.927   3.438
   17OCT    H32  442   4.441   0.931   3.460
   17OCT     C4  443   4.371   0.789   3.311
   17OCT    H41  444   4.463   0.727   3.316
   17OCT    H42  445   4.284   0.723   3.295
   17OCT     C5  446   4.383   0.883   3.190
   17OCT    H51  447   4.292   0.947   3.184
   17OCT    H52  448   4.470   0.951   3.205
   17OCT     C6  449   4.401   0.808   3.057
   17OCT    H61  450   4.492   0.746   3.062
   17OCT    H62  451   4.313   0.742   3.041
   17OCT     C7  452   4.413   0.903   2.936
   17OCT    H71  453   4.321   0.966   2.930
   17OCT    H72  454   4.500   0.970   2.951
   17OCT     C8  455   4.430   0.827   2.803
   17OCT    H81  456   4.343   0.762   2.785
   17OCT    H82  457   4.522   0.766   2.807
   17OCT     O1  458   4.441   0.919   2.694
   17OCT    HO1  459   4.452   0.865   2.616
   18OCT     C1  460   5.498   5.800  -0.342
   18OCT    H11  461   5.432   5.746  -0.414
   18OCT    H12  462   5.489   5.909  -0.361
   18OCT    H13  463   5.603   5.770  -0.361
   18OCT     C2  464   5.457   5.768  -0.198
   18OCT    H21  465   5.350   5.797  -0.184
   18OCT    H22  466   5.465   5.658  -0.183
   18OCT     C3  467   5.542   5.838  -0.092
   18OCT    H31  468   5.648   5.809  -0.106
   18OCT    H32  469   5.534   5.948  -0.107
   18OCT     C4  470   5.499   5.804   0.052
   18OCT    H41  471   5.393   5.833   0.066
   18OCT    H42  472   5.507   5.694   0.067
   18OCT     C5  473   5.584   5.874   0.158
   18OCT    H51  474   5.691   5.846   0.145
   18OCT    H52  475   5.577   5.985   0.144
   18OCT     C6  476   5.541   5.840   0.302
   18OCT    H61  477   5.435   5.869   0.316
   18OCT    H62  478   5.549   5.730   0.317
   18OCT     C7  479   5.627   5.911   0.408
   18OCT    H71  480   5.733   5.882   0.395
   18OCT    H72  481   5.619   6.021   0.394
   18OCT     C8  482   5.583   5.876   0.552
   18OCT    H81  483   5.592   5.767   0.569
   18OCT    H82  484   5.478   5.906   0.568
   18OCT     O1  485   5.665   5.944   0.647
   18OCT    HO1  486   5.632   5.917   0.733
   19OCT     C1  487   4.084   4.960  -0.162
   19OCT    H11  488   4.154   5.007  -0.234
   19OCT    H12  489   4.010   4.899  -0.218
   19OCT    H13  490   4.028   5.041  -0.109
   19OCT     C2  491   4.160   4.874  -0.062
   19OCT    H21  492   4.217   4.795  -0.118
   19OCT    H22  493   4.235   4.938  -0.009
   19OCT     C3  494   4.071   4.805   0.043
   19OCT    H31  495   4.015   4.883   0.099
   19OCT    H32  496   3.997   4.741  -0.010
   19OCT     C4  497   4.150   4.719   0.142
   19OCT    H41  498   4.206   4.641   0.086
   19OCT    H42  499   4.224   4.783   0.195
   19OCT     C5  500   4.061   4.650   0.247
   19OCT    H51  501   4.005   4.728   0.303
   19OCT    H52  502   3.987   4.586   0.195
   19OCT     C6  503   4.141   4.564   0.346
   19OCT    H61  504   4.196   4.486   0.290
   19OCT    H62  505   4.214   4.628   0.399
   19OCT     C7  506   4.051   4.495   0.451
   19OCT    H71  507   3.995   4.573   0.507
   19OCT    H72  508   3.977   4.431   0.398
   19OCT     C8  509   4.131   4.409   0.550
   19OCT    H81  510   4.204   4.472   0.605
   19OCT    H82  511   4.186   4.330   0.496
   19OCT     O1  512   4.044   4.348   0.645
   19OCT    HO1  513   4.101   4.296   0.702
   20OCT     C1  514   1.155   0.684   3.113
   20OCT    H11  515   1.180   0.777   3.167
   20OCT    H12  516   1.103   0.615   3.183
   20OCT    H13  517   1.249   0.634   3.081
   20OCT     C2  518   1.067   0.713   2.992
   20OCT    H21  519   0.974   0.765   3.027
   20OCT    H22  520   1.121   0.784   2.925
   20OCT     C3  521   1.027   0.589   2.911
   20OCT    H31  522   1.119   0.539   2.876
   20OCT    H32  523   0.972   0.520   2.978
   20OCT     C4  524   0.938   0.622   2.790
   20OCT    H41  525   0.846   0.673   2.825
   20OCT    H42  526   0.993   0.692   2.723
   20OCT     C5  527   0.898   0.498   2.709
   20OCT    H51  528   0.990   0.447   2.673
   20OCT    H52  529   0.843   0.427   2.775
   20OCT     C6  530   0.810   0.531   2.588
   20OCT    H61  531   0.717   0.582   2.623
   20OCT    H62  532   0.864   0.601   2.521
   20OCT     C7  533   0.770   0.407   2.507
   20OCT    H71  534   0.862   0.356   2.471
   20OCT    H72  535   0.715   0.336   2.573
   20OCT     C8  536   0.681   0.441   2.386
   20OCT    H81  537   0.735   0.509   2.317
   20OCT    H82  538   0.588   0.490   2.420
   20OCT     O1  539   0.647   0.322   2.314
   20OCT    HO1  540   0.592   0.351   2.241
   21OCT     C1  541   5.809   1.449   1.511
   21OCT    H11  542   5.727   1.435   1.438
   21OCT    H12  543   5.802   1.552   1.554
   21OCT    H13  544   5.906   1.442   1.457
   21OCT     C2  545   5.802   1.345   1.622
   21OCT    H21  546   5.703   1.353   1.672
   21OCT    H22  547   5.807   1.243   1.576
   21OCT     C3  548   5.912   1.356   1.728
   21OCT    H31  549   6.011   1.347   1.677
   21OCT    H32  550   5.906   1.457   1.774
   21OCT     C4  551   5.902   1.250   1.838
   21OCT    H41  552   5.803   1.259   1.888
   21OCT    H42  553   5.908   1.149   1.791
   21OCT     C5  554   6.012   1.262   1.943
   21OCT    H51  555   6.112   1.253   1.894
   21OCT    H52  556   6.008   1.363   1.990
   21OCT     C6  557   6.002   1.155   2.053
   21OCT    H61  558   5.904   1.164   2.104
   21OCT    H62  559   6.008   1.054   2.007
   21OCT     C7  560   6.113   1.168   2.159
   21OCT    H71  561   6.212   1.158   2.110
   21OCT    H72  562   6.108   1.268   2.206
   21OCT     C8  563   6.102   1.060   2.269
   21OCT    H81  564   6.110   0.959   2.225
   21OCT    H82  565   6.005   1.070   2.322
   21OCT     O1  566   6.207   1.075   2.365
   21OCT    HO1  567   6.194   1.006   2.430
   22OCT     C1  568   1.503   5.818   0.211
   22OCT    H11  569   1.613   5.834   0.219
   22OCT    H12  570   1.485   5.726   0.151
   22OCT    H13  571   1.458   5.904   0.158
   22OCT     C2  572   1.441   5.803   0.350
   22OCT    H21  573   1.490   5.718   0.403
   22OCT    H22  574   1.463   5.895   0.409
   22OCT     C3  575   1.290   5.780   0.350
   22OCT    H31  576   1.241   5.866   0.298
   22OCT    H32  577   1.268   5.688   0.291
   22OCT     C4  578   1.230   5.765   0.490
   22OCT    H41  579   1.279   5.680   0.542
   22OCT    H42  580   1.251   5.858   0.549
   22OCT     C5  581   1.078   5.742   0.490
   22OCT    H51  582   1.028   5.828   0.438
   22OCT    H52  583   1.056   5.650   0.431
   22OCT     C6  584   1.019   5.728   0.630
   22OCT    H61  585   1.067   5.642   0.682
   22OCT    H62  586   1.040   5.820   0.689
   22OCT     C7  587   0.867   5.704   0.629
   22OCT    H71  588   0.817   5.790   0.578
   22OCT    H72  589   0.845   5.612   0.571
   22OCT     C8  590   0.808   5.690   0.770
   22OCT    H81  591   0.827   5.782   0.829
   22OCT    H82  592   0.854   5.604   0.822
   22OCT     O1  593   0.667   5.669   0.764
   22OCT    HO1  594   0.638   5.661   0.855
   23OCT     C1  595   6.442   0.959   1.005
   23OCT    H11  596   6.541   0.992   1.043
   23OCT    H12  597   6.417   0.861   1.051
   23OCT    H13  598   6.449   0.944   0.895
   23OCT     C2  599   6.335   1.063   1.038
   23OCT    H21  600   6.332   1.077   1.149
   23OCT    H22  601   6.364   1.160   0.993
   23OCT     C3  602   6.194   1.026   0.990
   23OCT    H31  603   6.197   1.012   0.880
   23OCT    H32  604   6.165   0.929   1.036
   23OCT     C4  605   6.089   1.132   1.025
   23OCT    H41  606   6.086   1.146   1.135
   23OCT    H42  607   6.118   1.229   0.979
   23OCT     C5  608   5.948   1.095   0.977
   23OCT    H51  609   5.950   1.081   0.866
   23OCT    H52  610   5.918   0.998   1.022
   23OCT     C6  611   5.842   1.201   1.012
   23OCT    H61  612   5.839   1.215   1.122
   23OCT    H62  613   5.871   1.298   0.965
   23OCT     C7  614   5.701   1.163   0.963
   23OCT    H71  615   5.703   1.150   0.853
   23OCT    H72  616   5.671   1.067   1.009
   23OCT     C8  617   5.596   1.270   0.998
   23OCT    H81  618   5.623   1.367   0.951
   23OCT    H82  619   5.591   1.284   1.108
   23OCT     O1  620   5.467   1.232   0.951
   23OCT    HO1  621   5.408   1.302   0.977
   24OCT     C1  622   4.956   2.399   1.948
   24OCT    H11  623   4.866   2.461   1.931
   24OCT    H12  624   5.042   2.446   1.895
   24OCT    H13  625   4.939   2.298   1.904
   24OCT     C2  626   4.986   2.387   2.098
   24OCT    H21  627   5.000   2.489   2.140
   24OCT    H22  628   4.897   2.342   2.148
   24OCT     C3  629   5.110   2.302   2.131
   24OCT    H31  630   5.095   2.200   2.089
   24OCT    H32  631   5.198   2.348   2.081
   24OCT     C4  632   5.137   2.292   2.282
   24OCT    H41  633   5.152   2.394   2.323
   24OCT    H42  634   5.049   2.247   2.332
   24OCT     C5  635   5.261   2.207   2.315
   24OCT    H51  636   5.247   2.104   2.273
   24OCT    H52  637   5.350   2.252   2.265
   24OCT     C6  638   5.288   2.197   2.465
   24OCT    H61  639   5.303   2.299   2.507
   24OCT    H62  640   5.200   2.152   2.515
   24OCT     C7  641   5.412   2.112   2.498
   24OCT    H71  642   5.398   2.010   2.457
   24OCT    H72  643   5.501   2.157   2.449
   24OCT     C8  644   5.439   2.102   2.649
   24OCT    H81  645   5.353   2.055   2.700
   24OCT    H82  646   5.456   2.203   2.691
   24OCT     O1  647   5.555   2.022   2.675
   24OCT    HO1  648   5.565   2.021   2.770
   25OCT     C1  649   1.704   4.302   2.508
   25OCT    H11  650   1.650   4.267   2.417
   25OCT    H12  651   1.786   4.230   2.530
   25OCT    H13  652   1.633   4.302   2.594
   25OCT     C2  653   1.761   4.442   2.486
   25OCT    H21  654   1.829   4.440   2.398
   25OCT    H22  655   1.677   4.511   2.461
   25OCT     C3  656   1.838   4.499   2.606
   25OCT    H31  657   1.769   4.501   2.694
   25OCT    H32  658   1.921   4.430   2.630
   25OCT     C4  659   1.893   4.639   2.581
   25OCT    H41  660   1.962   4.636   2.494
   25OCT    H42  661   1.810   4.708   2.558
   25OCT     C5  662   1.970   4.696   2.702
   25OCT    H51  663   1.902   4.699   2.790
   25OCT    H52  664   2.055   4.627   2.726
   25OCT     C6  665   2.026   4.837   2.677
   25OCT    H61  666   2.095   4.834   2.589
   25OCT    H62  667   1.942   4.905   2.653
   25OCT     C7  668   2.103   4.893   2.798
   25OCT    H71  669   2.035   4.896   2.886
   25OCT    H72  670   2.188   4.824   2.822
   25OCT     C8  671   2.159   5.034   2.772
   25OCT    H81  672   2.076   5.104   2.750
   25OCT    H82  673   2.229   5.032   2.686
   25OCT     O1  674   2.229   5.082   2.887
   25OCT    HO1  675   2.261   5.169   2.863
   26OCT     C1  676   2.957   5.792   2.033
   26OCT    H11  677   3.003   5.852   1.952
   26OCT    H12  678   2.971   5.684   2.011
   26OCT    H13  679   2.847   5.813   2.035
   26OCT     C2  680   3.020   5.827   2.168
   26OCT    H21  681   3.130   5.807   2.162
   26OCT    H22  682   3.006   5.936   2.187
   26OCT     C3  683   2.962   5.749   2.287
   26OCT    H31  684   2.853   5.769   2.293
   26OCT    H32  685   2.977   5.640   2.268
   26OCT     C4  686   3.027   5.786   2.421
   26OCT    H41  687   3.136   5.766   2.415
   26OCT    H42  688   3.013   5.894   2.439
   26OCT     C5  689   2.970   5.708   2.540
   26OCT    H51  690   2.860   5.727   2.546
   26OCT    H52  691   2.983   5.599   2.522
   26OCT     C6  692   3.035   5.745   2.673
   26OCT    H61  693   3.144   5.725   2.668
   26OCT    H62  694   3.020   5.854   2.692
   26OCT     C7  695   2.976   5.666   2.792
   26OCT    H71  696   2.867   5.686   2.799
   26OCT    H72  697   2.991   5.558   2.775
   26OCT     C8  698   3.042   5.704   2.926
   26OCT    H81  699   3.027   5.812   2.947
   26OCT    H82  700   3.151   5.683   2.922
   26OCT     O1  701   2.985   5.629   3.033
   26OCT    HO1  702   3.031   5.658   3.113
   27OCT     C1  703   4.760   3.830   0.577
   27OCT    H11  704   4.827   3.918   0.577
   27OCT    H12  705   4.693   3.836   0.665
   27OCT    H13  706   4.823   3.738   0.587
   27OCT     C2  707   4.679   3.824   0.448
   27OCT    H21  708   4.619   3.918   0.439
   27OCT    H22  709   4.749   3.821   0.361
   27OCT     C3  710   4.583   3.704   0.439
   27OCT    H31  711   4.642   3.611   0.447
   27OCT    H32  712   4.513   3.709   0.525
   27OCT     C4  713   4.502   3.702   0.308
   27OCT    H41  714   4.443   3.795   0.300
   27OCT    H42  715   4.572   3.697   0.222
   27OCT     C5  716   4.407   3.582   0.299
   27OCT    H51  717   4.465   3.487   0.307
   27OCT    H52  718   4.336   3.585   0.385
   27OCT     C6  719   4.326   3.579   0.168
   27OCT    H61  720   4.266   3.673   0.160
   27OCT    H62  721   4.396   3.575   0.082
   27OCT     C7  722   4.230   3.459   0.160
   27OCT    H71  723   4.289   3.365   0.168
   27OCT    H72  724   4.159   3.463   0.246
   27OCT     C8  725   4.150   3.457   0.029
   27OCT    H81  726   4.218   3.451  -0.058
   27OCT    H82  727   4.089   3.548   0.020
   27OCT     O1  728   4.062   3.344   0.025
   27OCT    HO1  729   4.016   3.349  -0.059
   28OCT     C1  730   0.548   2.454   0.081
   28OCT    H11  731   0.651   2.424   0.053
   28OCT    H12  732   0.486   2.363   0.092
   28OCT    H13  733   0.505   2.515  -0.002
   28OCT     C2  734   0.548   2.535   0.211
   28OCT    H21  735   0.594   2.472   0.292
   28OCT    H22  736   0.613   2.624   0.197
   28OCT     C3  737   0.410   2.581   0.257
   28OCT    H31  738   0.365   2.643   0.177
   28OCT    H32  739   0.345   2.491   0.272
   28OCT     C4  740   0.413   2.661   0.388
   28OCT    H41  741   0.458   2.598   0.468
   28OCT    H42  742   0.477   2.751   0.374
   28OCT     C5  743   0.274   2.707   0.435
   28OCT    H51  744   0.228   2.770   0.355
   28OCT    H52  745   0.209   2.618   0.449
   28OCT     C6  746   0.278   2.788   0.565
   28OCT    H61  747   0.323   2.725   0.645
   28OCT    H62  748   0.342   2.877   0.551
   28OCT     C7  749   0.139   2.834   0.611
   28OCT    H71  750   0.093   2.897   0.532
   28OCT    H72  751   0.074   2.744   0.626
   28OCT     C8  752   0.143   2.914   0.743
   28OCT    H81  753   0.205   3.004   0.729
   28OCT    H82  754   0.186   2.852   0.823
   28OCT     O1  755   0.012   2.955   0.781
   28OCT    HO1  756   0.023   3.004   0.863
   29OCT     C1  757   5.870   1.862   3.891
   29OCT    H11  758   5.889   1.923   3.800
   29OCT    H12  759   5.925   1.766   3.881
   29OCT    H13  760   5.761   1.840   3.897
   29OCT     C2  761   5.917   1.937   4.015
   29OCT    H21  762   6.026   1.960   4.005
   29OCT    H22  763   5.863   2.034   4.021
   29OCT     C3  764   5.896   1.861   4.147
   29OCT    H31  765   5.787   1.839   4.157
   29OCT    H32  766   5.950   1.764   4.141
   29OCT     C4  767   5.943   1.938   4.270
   29OCT    H41  768   6.052   1.960   4.260
   29OCT    H42  769   5.889   2.035   4.276
   29OCT     C5  770   5.922   1.862   4.401
   29OCT    H51  771   5.813   1.839   4.413
   29OCT    H52  772   5.976   1.764   4.396
   29OCT     C6  773   5.970   1.939   4.525
   29OCT    H61  774   6.078   1.961   4.514
   29OCT    H62  775   5.915   2.036   4.531
   29OCT     C7  776   5.948   1.862   4.656
   29OCT    H71  777   5.840   1.840   4.668
   29OCT    H72  778   6.003   1.765   4.651
   29OCT     C8  779   5.996   1.940   4.780
   29OCT    H81  780   5.941   2.036   4.788
   29OCT    H82  781   6.104   1.962   4.771
   29OCT     O1  782   5.974   1.865   4.899
   29OCT    HO1  783   6.006   1.920   4.971
   30OCT     C1  784   4.778   4.578   5.433
   30OCT    H11  785   4.781   4.626   5.533
   30OCT    H12  786   4.882   4.576   5.391
   30OCT    H13  787   4.715   4.640   5.365
   30OCT     C2  788   4.722   4.436   5.444
   30OCT    H21  789   4.786   4.378   5.514
   30OCT    H22  790   4.620   4.442   5.488
   30OCT     C3  791   4.714   4.361   5.310
   30OCT    H31  792   4.650   4.420   5.241
   30OCT    H32  793   4.816   4.355   5.267
   30OCT     C4  794   4.657   4.219   5.324
   30OCT    H41  795   4.721   4.161   5.394
   30OCT    H42  796   4.555   4.225   5.367
   30OCT     C5  797   4.649   4.144   5.191
   30OCT    H51  798   4.585   4.202   5.120
   30OCT    H52  799   4.751   4.138   5.146
   30OCT     C6  800   4.592   4.002   5.204
   30OCT    H61  801   4.656   3.944   5.274
   30OCT    H62  802   4.490   4.008   5.248
   30OCT     C7  803   4.584   3.928   5.070
   30OCT    H71  804   4.520   3.985   5.000
   30OCT    H72  805   4.686   3.921   5.026
   30OCT     C8  806   4.527   3.785   5.085
   30OCT    H81  807   4.425   3.790   5.126
   30OCT    H82  808   4.591   3.726   5.153
   30OCT     O1  809   4.522   3.720   4.958
   30OCT    HO1  810   4.485   3.633   4.975
   31OCT     C1  811   3.654   1.844   4.760
   31OCT    H11  812   3.623   1.916   4.840
   31OCT    H12  813   3.588   1.755   4.767
   31OCT    H13  814   3.758   1.812   4.780
   31OCT     C2  815   3.642   1.909   4.622
   31OCT    H21  816   3.537   1.942   4.607
   31OCT    H22  817   3.707   2.000   4.620
   31OCT     C3  818   3.682   1.817   4.506
   31OCT    H31  819   3.787   1.785   4.521
   31OCT    H32  820   3.617   1.727   4.509
   31OCT     C4  821   3.669   1.884   4.369
   31OCT    H41  822   3.564   1.917   4.354
   31OCT    H42  823   3.734   1.974   4.366
   31OCT     C5  824   3.709   1.792   4.253
   31OCT    H51  825   3.815   1.759   4.267
   31OCT    H52  826   3.645   1.701   4.254
   31OCT     C6  827   3.697   1.860   4.115
   31OCT    H61  828   3.592   1.892   4.100
   31OCT    H62  829   3.762   1.950   4.113
   31OCT     C7  830   3.737   1.767   3.999
   31OCT    H71  831   3.842   1.734   4.013
   31OCT    H72  832   3.672   1.677   4.001
   31OCT     C8  833   3.724   1.835   3.862
   31OCT    H81  834   3.789   1.924   3.858
   31OCT    H82  835   3.619   1.867   3.845
   31OCT     O1  836   3.762   1.746   3.757
   31OCT    HO1  837   3.752   1.795   3.676
   32OCT     C1  838   5.980   0.520   3.171
   32OCT    H11  839   5.995   0.554   3.066
   32OCT    H12  840   6.073   0.468   3.205
   32OCT    H13  841   5.897   0.446   3.173
   32OCT     C2  842   5.949   0.639   3.262
   32OCT    H21  843   6.033   0.712   3.255
   32OCT    H22  844   5.857   0.690   3.224
   32OCT     C3  845   5.928   0.601   3.409
   32OCT    H31  846   5.843   0.529   3.415
   32OCT    H32  847   6.019   0.551   3.446
   32OCT     C4  848   5.897   0.723   3.498
   32OCT    H41  849   5.981   0.795   3.492
   32OCT    H42  850   5.805   0.773   3.461
   32OCT     C5  851   5.875   0.685   3.645
   32OCT    H51  852   5.791   0.612   3.653
   32OCT    H52  853   5.967   0.634   3.684
   32OCT     C6  854   5.844   0.806   3.734
   32OCT    H61  855   5.928   0.879   3.728
   32OCT    H62  856   5.752   0.857   3.697
   32OCT     C7  857   5.822   0.768   3.882
   32OCT    H71  858   5.738   0.696   3.889
   32OCT    H72  859   5.914   0.718   3.920
   32OCT     C8  860   5.791   0.890   3.971
   32OCT    H81  861   5.699   0.940   3.935
   32OCT    H82  862   5.875   0.962   3.967
   32OCT     O1  863   5.772   0.850   4.106
   32OCT    HO1  864   5.753   0.931   4.155
   33OCT     C1  865   1.915   3.064   4.185
   33OCT    H11  866   1.851   3.079   4.096
   33OCT    H12  867   2.020   3.090   4.158
   33OCT    H13  868   1.913   2.956   4.212
   33OCT     C2  869   1.867   3.149   4.302
   33OCT    H21  870   1.868   3.256   4.270
   33OCT    H22  871   1.761   3.122   4.324
   33OCT     C3  872   1.950   3.134   4.430
   33OCT    H31  873   1.947   3.027   4.461
   33OCT    H32  874   2.055   3.162   4.407
   33OCT     C4  875   1.898   3.221   4.545
   33OCT    H41  876   1.900   3.328   4.514
   33OCT    H42  877   1.793   3.193   4.568
   33OCT     C5  878   1.981   3.206   4.674
   33OCT    H51  879   1.980   3.099   4.706
   33OCT    H52  880   2.087   3.233   4.652
   33OCT     C6  881   1.930   3.293   4.789
   33OCT    H61  882   1.932   3.400   4.758
   33OCT    H62  883   1.825   3.265   4.812
   33OCT     C7  884   2.014   3.277   4.917
   33OCT    H71  885   2.012   3.171   4.949
   33OCT    H72  886   2.119   3.305   4.896
   33OCT     C8  887   1.962   3.365   5.033
   33OCT    H81  888   1.857   3.337   5.058
   33OCT    H82  889   1.965   3.472   5.004
   33OCT     O1  890   2.042   3.348   5.150
   33OCT    HO1  891   2.004   3.405   5.216
   34OCT     C1  892   3.499   0.267  -0.118
   34OCT    H11  893   3.398   0.265  -0.165
   34OCT    H12  894   3.575   0.273  -0.198
   34OCT    H13  895   3.514   0.172  -0.063
   34OCT     C2  896   3.511   0.386  -0.023
   34OCT    H21  897   3.493   0.480  -0.080
   34OCT    H22  898   3.432   0.378   0.055
   34OCT     C3  899   3.648   0.397   0.047
   34OCT    H31  900   3.665   0.303   0.105
   34OCT    H32  901   3.727   0.405  -0.031
   34OCT     C4  902   3.658   0.517   0.142
   34OCT    H41  903   3.640   0.610   0.084
   34OCT    H42  904   3.579   0.509   0.220
   34OCT     C5  905   3.794   0.527   0.212
   34OCT    H51  906   3.813   0.434   0.270
   34OCT    H52  907   3.874   0.535   0.135
   34OCT     C6  908   3.804   0.648   0.306
   34OCT    H61  909   3.786   0.741   0.249
   34OCT    H62  910   3.725   0.640   0.384
   34OCT     C7  911   3.941   0.658   0.376
   34OCT    H71  912   3.959   0.565   0.435
   34OCT    H72  913   4.020   0.666   0.299
   34OCT     C8  914   3.950   0.779   0.471
   34OCT    H81  915   3.873   0.771   0.550
   34OCT    H82  916   3.934   0.872   0.415
   34OCT     O1  917   4.078   0.784   0.533
   34OCT    HO1  918   4.076   0.861   0.590
   35OCT     C1  919   0.234   3.899   1.954
   35OCT    H11  920   0.174   3.936   2.040
   35OCT    H12  921   0.284   3.804   1.985
   35OCT    H13  922   0.313   3.974   1.932
   35OCT     C2  923   0.146   3.876   1.832
   35OCT    H21  924   0.067   3.802   1.858
   35OCT    H22  925   0.096   3.972   1.805
   35OCT     C3  926   0.222   3.824   1.709
   35OCT    H31  927   0.301   3.898   1.682
   35OCT    H32  928   0.272   3.728   1.735
   35OCT     C4  929   0.131   3.802   1.587
   35OCT    H41  930   0.052   3.728   1.613
   35OCT    H42  931   0.081   3.898   1.560
   35OCT     C5  932   0.207   3.750   1.464
   35OCT    H51  933   0.286   3.824   1.436
   35OCT    H52  934   0.257   3.654   1.489
   35OCT     C6  935   0.116   3.728   1.342
   35OCT    H61  936   0.037   3.654   1.369
   35OCT    H62  937   0.066   3.824   1.316
   35OCT     C7  938   0.193   3.676   1.219
   35OCT    H71  939   0.271   3.750   1.192
   35OCT    H72  940   0.242   3.580   1.244
   35OCT     C8  941   0.101   3.654   1.097
   35OCT    H81  942   0.052   3.749   1.069
   35OCT    H82  943   0.023   3.580   1.122
   35OCT     O1  944   0.175   3.607   0.986
   35OCT    HO1  945   0.112   3.595   0.915
   36OCT     C1  946   5.845   4.840   1.214
   36OCT    H11  947   5.784   4.891   1.137
   36OCT    H12  948   5.877   4.915   1.290
   36OCT    H13  949   5.937   4.799   1.165
   36OCT     C2  950   5.766   4.727   1.281
   36OCT    H21  951   5.674   4.771   1.326
   36OCT    H22  952   5.734   4.655   1.202
   36OCT     C3  953   5.844   4.651   1.389
   36OCT    H31  954   5.935   4.608   1.343
   36OCT    H32  955   5.875   4.724   1.467
   36OCT     C4  956   5.762   4.539   1.454
   36OCT    H41  957   5.670   4.583   1.500
   36OCT    H42  958   5.730   4.467   1.376
   36OCT     C5  959   5.839   4.463   1.562
   36OCT    H51  960   5.931   4.419   1.518
   36OCT    H52  961   5.871   4.535   1.642
   36OCT     C6  962   5.757   4.351   1.628
   36OCT    H61  963   5.666   4.394   1.673
   36OCT    H62  964   5.725   4.278   1.549
   36OCT     C7  965   5.835   4.275   1.736
   36OCT    H71  966   5.926   4.230   1.691
   36OCT    H72  967   5.867   4.346   1.815
   36OCT     C8  968   5.752   4.162   1.801
   36OCT    H81  969   5.722   4.089   1.724
   36OCT    H82  970   5.662   4.205   1.849
   36OCT     O1  971   5.828   4.095   1.901
   36OCT    HO1  972   5.771   4.027   1.936
   37OCT     C1  973   4.323   1.741   2.837
   37OCT    H11  974   4.277   1.655   2.890
   37OCT    H12  975   4.269   1.757   2.741
   37OCT    H13  976   4.429   1.717   2.813
   37OCT     C2  977   4.315   1.868   2.923
   37OCT    H21  978   4.208   1.888   2.946
   37OCT    H22  979   4.368   1.849   3.019
   37OCT     C3  980   4.376   1.992   2.857
   37OCT    H31  981   4.483   1.971   2.834
   37OCT    H32  982   4.323   2.011   2.761
   37OCT     C4  983   4.367   2.118   2.945
   37OCT    H41  984   4.261   2.138   2.968
   37OCT    H42  985   4.420   2.098   3.041
   37OCT     C5  986   4.428   2.242   2.880
   37OCT    H51  987   4.536   2.222   2.856
   37OCT    H52  988   4.376   2.262   2.783
   37OCT     C6  989   4.419   2.367   2.968
   37OCT    H61  990   4.313   2.388   2.991
   37OCT    H62  991   4.472   2.348   3.064
   37OCT     C7  992   4.481   2.492   2.902
   37OCT    H71  993   4.588   2.472   2.879
   37OCT    H72  994   4.428   2.512   2.806
   37OCT     C8  995   4.471   2.617   2.991
   37OCT    H81  996   4.525   2.600   3.086
   37OCT    H82  997   4.365   2.640   3.013
   37OCT     O1  998   4.529   2.730   2.926
   37OCT    HO1  999   4.520   2.803   2.987
   38OCT     C1 1000   0.728   5.110   3.928
   38OCT    H11 1001   0.670   5.068   4.013
   38OCT    H12 1002   0.835   5.085   3.943
   38OCT    H13 1003   0.718   5.220   3.928
   38OCT     C2 1004   0.678   5.052   3.796
   38OCT    H21 1005   0.687   4.940   3.800
   38OCT    H22 1006   0.570   5.076   3.785
   38OCT     C3 1007   0.753   5.103   3.672
   38OCT    H31 1008   0.743   5.214   3.668
   38OCT    H32 1009   0.860   5.078   3.683
   38OCT     C4 1010   0.700   5.043   3.541
   38OCT    H41 1011   0.710   4.933   3.545
   38OCT    H42 1012   0.593   5.068   3.530
   38OCT     C5 1013   0.775   5.094   3.417
   38OCT    H51 1014   0.766   5.206   3.412
   38OCT    H52 1015   0.884   5.070   3.427
   38OCT     C6 1016   0.723   5.035   3.286
   38OCT    H61 1017   0.733   4.924   3.290
   38OCT    H62 1018   0.615   5.059   3.275
   38OCT     C7 1019   0.799   5.087   3.162
   38OCT    H71 1020   0.789   5.197   3.157
   38OCT    H72 1021   0.906   5.062   3.172
   38OCT     C8 1022   0.746   5.026   3.031
   38OCT    H81 1023   0.639   5.051   3.018
   38OCT    H82 1024   0.756   4.916   3.033
   38OCT     O1 1025   0.818   5.077   2.919
   38OCT    HO1 1026   0.780   5.035   2.842
   39OCT     C1 1027   1.558   2.157   0.471
   39OCT    H11 1028   1.653   2.155   0.414
   39OCT    H12 1029   1.517   2.054   0.475
   39OCT    H13 1030   1.485   2.221   0.417
   39OCT     C2 1031   1.581   2.210   0.613
   39OCT    H21 1032   1.656   2.145   0.664
   39OCT    H22 1033   1.625   2.312   0.606
   39OCT     C3 1034   1.455   2.216   0.699
   39OCT    H31 1035   1.381   2.282   0.649
   39OCT    H32 1036   1.412   2.114   0.707
   39OCT     C4 1037   1.481   2.270   0.841
   39OCT    H41 1038   1.555   2.204   0.891
   39OCT    H42 1039   1.524   2.372   0.834
   39OCT     C5 1040   1.355   2.276   0.927
   39OCT    H51 1041   1.279   2.341   0.878
   39OCT    H52 1042   1.310   2.174   0.935
   39OCT     C6 1043   1.381   2.329   1.069
   39OCT    H61 1044   1.455   2.264   1.119
   39OCT    H62 1045   1.424   2.432   1.062
   39OCT     C7 1046   1.253   2.335   1.155
   39OCT    H71 1047   1.179   2.401   1.106
   39OCT    H72 1048   1.210   2.233   1.163
   39OCT     C8 1049   1.281   2.389   1.297
   39OCT    H81 1050   1.322   2.492   1.291
   39OCT    H82 1051   1.353   2.324   1.349
   39OCT     O1 1052   1.160   2.393   1.373
   39OCT    HO1 1053   1.185   2.427   1.459
   40OCT     C1 1054   4.254   4.644   3.345
   40OCT    H11 1055   4.172   4.696   3.398
   40OCT    H12 1056   4.267   4.691   3.245
   40OCT    H13 1057   4.225   4.538   3.330
   40OCT     C2 1058   4.384   4.653   3.425
   40OCT    H21 1059   4.409   4.760   3.441
   40OCT    H22 1060   4.367   4.607   3.526
   40OCT     C3 1061   4.504   4.583   3.359
   40OCT    H31 1062   4.479   4.476   3.344
   40OCT    H32 1063   4.521   4.630   3.259
   40OCT     C4 1064   4.633   4.594   3.442
   40OCT    H41 1065   4.658   4.701   3.457
   40OCT    H42 1066   4.616   4.547   3.541
   40OCT     C5 1067   4.753   4.524   3.376
   40OCT    H51 1068   4.728   4.416   3.360
   40OCT    H52 1069   4.770   4.570   3.275
   40OCT     C6 1070   4.882   4.535   3.458
   40OCT    H61 1071   4.907   4.642   3.473
   40OCT    H62 1072   4.865   4.488   3.558
   40OCT     C7 1073   5.001   4.465   3.391
   40OCT    H71 1074   4.977   4.357   3.376
   40OCT    H72 1075   5.019   4.511   3.292
   40OCT     C8 1076   5.130   4.476   3.475
   40OCT    H81 1077   5.115   4.428   3.574
   40OCT    H82 1078   5.157   4.582   3.489
   40OCT     O1 1079   5.238   4.410   3.409
   40OCT    HO1 1080   5.314   4.421   3.467
   41OCT     C1 1081   2.945   0.144   1.315
   41OCT    H11 1082   2.906   0.103   1.411
   41OCT    H12 1083   2.936   0.255   1.317
   41OCT    H13 1084   2.881   0.106   1.232
   41OCT     C2 1085   3.090   0.103   1.294
   41OCT    H21 1086   3.151   0.140   1.380
   41OCT    H22 1087   3.096  -0.009   1.295
   41OCT     C3 1088   3.152   0.154   1.164
   41OCT    H31 1089   3.092   0.116   1.079
   41OCT    H32 1090   3.147   0.265   1.164
   41OCT     C4 1091   3.299   0.112   1.145
   41OCT    H41 1092   3.359   0.150   1.231
   41OCT    H42 1093   3.304   0.001   1.146
   41OCT     C5 1094   3.361   0.163   1.015
   41OCT    H51 1095   3.301   0.126   0.929
   41OCT    H52 1096   3.355   0.275   1.013
   41OCT     C6 1097   3.507   0.120   0.997
   41OCT    H61 1098   3.567   0.159   1.082
   41OCT    H62 1099   3.513   0.009   0.997
   41OCT     C7 1100   3.568   0.173   0.865
   41OCT    H71 1101   3.509   0.135   0.780
   41OCT    H72 1102   3.563   0.284   0.865
   41OCT     C8 1103   3.715   0.129   0.848
   41OCT    H81 1104   3.722   0.019   0.846
   41OCT    H82 1105   3.776   0.168   0.931
   41OCT     O1 1106   3.768   0.180   0.725
   41OCT    HO1 1107   3.859   0.149   0.721
   42OCT     C1 1108   3.117   2.825   1.737
   42OCT    H11 1109   3.102   2.919   1.681
   42OCT    H12 1110   3.053   2.827   1.828
   42OCT    H13 1111   3.223   2.819   1.770
   42OCT     C2 1112   3.081   2.704   1.650
   42OCT    H21 1113   2.975   2.714   1.617
   42OCT    H22 1114   3.145   2.706   1.559
   42OCT     C3 1115   3.099   2.569   1.720
   42OCT    H31 1116   3.204   2.559   1.753
   42OCT    H32 1117   3.034   2.567   1.811
   42OCT     C4 1118   3.062   2.449   1.631
   42OCT    H41 1119   2.956   2.459   1.599
   42OCT    H42 1120   3.126   2.451   1.540
   42OCT     C5 1121   3.080   2.314   1.701
   42OCT    H51 1122   3.186   2.303   1.734
   42OCT    H52 1123   3.016   2.311   1.792
   42OCT     C6 1124   3.043   2.195   1.611
   42OCT    H61 1125   2.937   2.204   1.579
   42OCT    H62 1126   3.107   2.196   1.521
   42OCT     C7 1127   3.061   2.059   1.682
   42OCT    H71 1128   3.167   2.048   1.714
   42OCT    H72 1129   2.997   2.057   1.772
   42OCT     C8 1130   3.024   1.940   1.592
   42OCT    H81 1131   3.089   1.939   1.502
   42OCT    H82 1132   2.919   1.948   1.560
   42OCT     O1 1133   3.042   1.817   1.661
   42OCT    HO1 1134   3.018   1.748   1.599
   43OCT     C1 1135   2.643   5.385   0.597
   43OCT    H11 1136   2.658   5.411   0.490
   43OCT    H12 1137   2.619   5.276   0.605
   43OCT    H13 1138   2.555   5.442   0.636
   43OCT     C2 1139   2.768   5.418   0.678
   43OCT    H21 1140   2.854   5.362   0.636
   43OCT    H22 1141   2.790   5.527   0.667
   43OCT     C3 1142   2.756   5.386   0.828
   43OCT    H31 1143   2.671   5.443   0.870
   43OCT    H32 1144   2.735   5.278   0.839
   43OCT     C4 1145   2.883   5.421   0.907
   43OCT    H41 1146   2.969   5.364   0.865
   43OCT    H42 1147   2.905   5.529   0.896
   43OCT     C5 1148   2.872   5.388   1.057
   43OCT    H51 1149   2.786   5.445   1.100
   43OCT    H52 1150   2.850   5.280   1.069
   43OCT     C6 1151   2.999   5.423   1.136
   43OCT    H61 1152   3.085   5.366   1.094
   43OCT    H62 1153   3.021   5.531   1.124
   43OCT     C7 1154   2.987   5.390   1.286
   43OCT    H71 1155   2.902   5.447   1.328
   43OCT    H72 1156   2.966   5.282   1.298
   43OCT     C8 1157   3.115   5.425   1.364
   43OCT    H81 1158   3.136   5.533   1.355
   43OCT    H82 1159   3.201   5.368   1.324
   43OCT     O1 1160   3.099   5.393   1.502
   43OCT    HO1 1161   3.182   5.418   1.544
   44OCT     C1 1162   3.211   2.214   4.416
   44OCT    H11 1163   3.150   2.143   4.476
   44OCT    H12 1164   3.318   2.188   4.428
   44OCT    H13 1165   3.196   2.317   4.456
   44OCT     C2 1166   3.170   2.208   4.269
   44OCT    H21 1167   3.184   2.104   4.232
   44OCT    H22 1168   3.062   2.232   4.260
   44OCT     C3 1169   3.249   2.303   4.177
   44OCT    H31 1170   3.234   2.407   4.214
   44OCT    H32 1171   3.357   2.278   4.186
   44OCT     C4 1172   3.206   2.295   4.030
   44OCT    H41 1173   3.221   2.191   3.994
   44OCT    H42 1174   3.098   2.319   4.022
   44OCT     C5 1175   3.285   2.390   3.939
   44OCT    H51 1176   3.271   2.495   3.975
   44OCT    H52 1177   3.394   2.366   3.947
   44OCT     C6 1178   3.242   2.381   3.792
   44OCT    H61 1179   3.257   2.277   3.756
   44OCT    H62 1180   3.134   2.406   3.784
   44OCT     C7 1181   3.322   2.477   3.701
   44OCT    H71 1182   3.307   2.581   3.736
   44OCT    H72 1183   3.430   2.452   3.708
   44OCT     C8 1184   3.278   2.468   3.554
   44OCT    H81 1185   3.171   2.494   3.544
   44OCT    H82 1186   3.294   2.365   3.516
   44OCT     O1 1187   3.354   2.558   3.473
   44OCT    HO1 1188   3.322   2.547   3.384
   45OCT     C1 1189   5.507   3.075   5.003
   45OCT    H11 1190   5.478   2.999   4.929
   45OCT    H12 1191   5.531   3.024   5.099
   45OCT    H13 1192   5.419   3.142   5.021
   45OCT     C2 1193   5.626   3.156   4.954
   45OCT    H21 1194   5.711   3.086   4.935
   45OCT    H22 1195   5.600   3.204   4.857
   45OCT     C3 1196   5.674   3.265   5.051
   45OCT    H31 1197   5.589   3.335   5.070
   45OCT    H32 1198   5.701   3.217   5.148
   45OCT     C4 1199   5.794   3.345   4.999
   45OCT    H41 1200   5.878   3.275   4.980
   45OCT    H42 1201   5.767   3.393   4.903
   45OCT     C5 1202   5.841   3.453   5.096
   45OCT    H51 1203   5.757   3.524   5.116
   45OCT    H52 1204   5.869   3.406   5.194
   45OCT     C6 1205   5.962   3.533   5.044
   45OCT    H61 1206   6.046   3.463   5.025
   45OCT    H62 1207   5.934   3.581   4.948
   45OCT     C7 1208   6.008   3.642   5.142
   45OCT    H71 1209   5.925   3.712   5.161
   45OCT    H72 1210   6.036   3.595   5.239
   45OCT     C8 1211   6.129   3.721   5.089
   45OCT    H81 1212   6.103   3.771   4.994
   45OCT    H82 1213   6.215   3.653   5.072
   45OCT     O1 1214   6.169   3.821   5.183
   45OCT    HO1 1215   6.244   3.866   5.143
   46OCT     C1 1216   1.941   5.143   6.352
   46OCT    H11 1217   2.002   5.089   6.427
   46OCT    H12 1218   1.933   5.250   6.383
   46OCT    H13 1219   1.838   5.100   6.352
   46OCT     C2 1220   2.004   5.132   6.214
   46OCT    H21 1221   2.107   5.173   6.217
   46OCT    H22 1222   2.012   5.024   6.187
   46OCT     C3 1223   1.925   5.204   6.103
   46OCT    H31 1224   1.823   5.162   6.099
   46OCT    H32 1225   1.918   5.311   6.130
   46OCT     C4 1226   1.990   5.191   5.965
   46OCT    H41 1227   2.093   5.233   5.969
   46OCT    H42 1228   1.998   5.084   5.938
   46OCT     C5 1229   1.912   5.263   5.854
   46OCT    H51 1230   1.809   5.222   5.849
   46OCT    H52 1231   1.904   5.372   5.880
   46OCT     C6 1232   1.977   5.250   5.716
   46OCT    H61 1233   2.080   5.293   5.720
   46OCT    H62 1234   1.985   5.143   5.689
   46OCT     C7 1235   1.898   5.323   5.606
   46OCT    H71 1236   1.796   5.281   5.601
   46OCT    H72 1237   1.891   5.431   5.631
   46OCT     C8 1238   1.964   5.310   5.467
   46OCT    H81 1239   1.971   5.203   5.438
   46OCT    H82 1240   2.066   5.353   5.469
   46OCT     O1 1241   1.888   5.378   5.368
   46OCT    HO1 1242   1.935   5.366   5.285
   47OCT     C1 1243   0.611   3.407   4.816
   47OCT    H11 1244   0.528   3.420   4.744
   47OCT    H12 1245   0.697   3.469   4.783
   47OCT    H13 1246   0.643   3.301   4.815
   47OCT     C2 1247   0.566   3.448   4.956
   47OCT    H21 1248   0.532   3.555   4.953
   47OCT    H22 1249   0.478   3.386   4.986
   47OCT     C3 1250   0.675   3.434   5.064
   47OCT    H31 1251   0.708   3.328   5.067
   47OCT    H32 1252   0.762   3.497   5.035
   47OCT     C4 1253   0.627   3.476   5.204
   47OCT    H41 1254   0.594   3.582   5.200
   47OCT    H42 1255   0.540   3.414   5.233
   47OCT     C5 1256   0.736   3.462   5.311
   47OCT    H51 1257   0.770   3.356   5.315
   47OCT    H52 1258   0.824   3.525   5.283
   47OCT     C6 1259   0.688   3.505   5.451
   47OCT    H61 1260   0.655   3.611   5.448
   47OCT    H62 1261   0.601   3.442   5.480
   47OCT     C7 1262   0.797   3.490   5.558
   47OCT    H71 1263   0.830   3.384   5.562
   47OCT    H72 1264   0.884   3.553   5.530
   47OCT     C8 1265   0.749   3.533   5.698
   47OCT    H81 1266   0.663   3.470   5.729
   47OCT    H82 1267   0.717   3.638   5.697
   47OCT     O1 1268   0.853   3.518   5.794
   47OCT    HO1 1269   0.816   3.546   5.878
   48OCT     C1 1270   2.353   4.635   1.072
   48OCT    H11 1271   2.401   4.546   1.027
   48OCT    H12 1272   2.308   4.606   1.170
   48OCT    H13 1273   2.270   4.668   1.005
   48OCT     C2 1274   2.454   4.748   1.091
   48OCT    H21 1275   2.537   4.711   1.156
   48OCT    H22 1276   2.499   4.773   0.991
   48OCT     C3 1277   2.396   4.876   1.152
   48OCT    H31 1278   2.314   4.913   1.087
   48OCT    H32 1279   2.353   4.851   1.251
   48OCT     C4 1280   2.501   4.987   1.170
   48OCT    H41 1281   2.582   4.950   1.235
   48OCT    H42 1282   2.544   5.012   1.071
   48OCT     C5 1283   2.443   5.115   1.231
   48OCT    H51 1284   2.360   5.153   1.166
   48OCT    H52 1285   2.398   5.091   1.331
   48OCT     C6 1286   2.547   5.226   1.249
   48OCT    H61 1287   2.629   5.190   1.314
   48OCT    H62 1288   2.590   5.251   1.150
   48OCT     C7 1289   2.488   5.354   1.311
   48OCT    H71 1290   2.406   5.392   1.245
   48OCT    H72 1291   2.445   5.330   1.410
   48OCT     C8 1292   2.593   5.466   1.328
   48OCT    H81 1293   2.636   5.493   1.229
   48OCT    H82 1294   2.674   5.431   1.394
   48OCT     O1 1295   2.534   5.582   1.385
   48OCT    HO1 1296   2.605   5.646   1.393
   49OCT     C1 1297   3.671   2.702  -0.338
   49OCT    H11 1298   3.683   2.743  -0.440
   49OCT    H12 1299   3.771   2.693  -0.291
   49OCT    H13 1300   3.627   2.600  -0.345
   49OCT     C2 1301   3.582   2.794  -0.254
   49OCT    H21 1302   3.628   2.895  -0.251
   49OCT    H22 1303   3.483   2.803  -0.305
   49OCT     C3 1304   3.559   2.745  -0.110
   49OCT    H31 1305   3.512   2.644  -0.114
   49OCT    H32 1306   3.657   2.736  -0.060
   49OCT     C4 1307   3.469   2.839  -0.029
   49OCT    H41 1308   3.515   2.940  -0.025
   49OCT    H42 1309   3.370   2.848  -0.079
   49OCT     C5 1310   3.446   2.790   0.115
   49OCT    H51 1311   3.399   2.689   0.113
   49OCT    H52 1312   3.544   2.781   0.167
   49OCT     C6 1313   3.356   2.884   0.197
   49OCT    H61 1314   3.402   2.985   0.201
   49OCT    H62 1315   3.257   2.893   0.146
   49OCT     C7 1316   3.333   2.835   0.341
   49OCT    H71 1317   3.287   2.734   0.338
   49OCT    H72 1318   3.431   2.826   0.392
   49OCT     C8 1319   3.243   2.929   0.422
   49OCT    H81 1320   3.144   2.938   0.374
   49OCT    H82 1321   3.289   3.030   0.428
   49OCT     O1 1322   3.225   2.880   0.555
   49OCT    HO1 1323   3.168   2.943   0.599
   50OCT     C1 1324   3.630   5.563   5.453
   50OCT    H11 1325   3.696   5.498   5.514
   50OCT    H12 1326   3.673   5.666   5.452
   50OCT    H13 1327   3.530   5.569   5.503
   50OCT     C2 1328   3.616   5.509   5.311
   50OCT    H21 1329   3.718   5.503   5.265
   50OCT    H22 1330   3.575   5.406   5.316
   50OCT     C3 1331   3.526   5.594   5.220
   50OCT    H31 1332   3.425   5.600   5.265
   50OCT    H32 1333   3.568   5.697   5.215
   50OCT     C4 1334   3.515   5.537   5.078
   50OCT    H41 1335   3.616   5.532   5.032
   50OCT    H42 1336   3.473   5.434   5.083
   50OCT     C5 1337   3.425   5.622   4.986
   50OCT    H51 1338   3.323   5.628   5.031
   50OCT    H52 1339   3.466   5.726   4.981
   50OCT     C6 1340   3.413   5.565   4.844
   50OCT    H61 1341   3.514   5.560   4.799
   50OCT    H62 1342   3.371   5.462   4.849
   50OCT     C7 1343   3.323   5.651   4.753
   50OCT    H71 1344   3.221   5.656   4.798
   50OCT    H72 1345   3.364   5.754   4.747
   50OCT     C8 1346   3.311   5.593   4.611
   50OCT    H81 1347   3.268   5.491   4.614
   50OCT    H82 1348   3.411   5.589   4.564
   50OCT     O1 1349   3.227   5.675   4.530
   50OCT    HO1 1350   3.225   5.634   4.444
   51OCT     C1 1351   1.361   1.979   2.794
   51OCT    H11 1352   1.442   2.052   2.773
   51OCT    H12 1353   1.322   1.998   2.896
   51OCT    H13 1354   1.403   1.876   2.791
   51OCT     C2 1355   1.249   1.993   2.691
   51OCT    H21 1356   1.210   2.098   2.694
   51OCT    H22 1357   1.292   1.976   2.589
   51OCT     C3 1358   1.132   1.896   2.711
   51OCT    H31 1359   1.171   1.792   2.707
   51OCT    H32 1360   1.089   1.914   2.812
   51OCT     C4 1361   1.021   1.913   2.606
   51OCT    H41 1362   0.982   2.017   2.610
   51OCT    H42 1363   1.064   1.895   2.505
   51OCT     C5 1364   0.904   1.816   2.627
   51OCT    H51 1365   0.942   1.711   2.623
   51OCT    H52 1366   0.860   1.832   2.728
   51OCT     C6 1367   0.793   1.832   2.522
   51OCT    H61 1368   0.754   1.936   2.526
   51OCT    H62 1369   0.836   1.815   2.421
   51OCT     C7 1370   0.675   1.735   2.543
   51OCT    H71 1371   0.713   1.631   2.539
   51OCT    H72 1372   0.632   1.752   2.644
   51OCT     C8 1373   0.565   1.752   2.438
   51OCT    H81 1374   0.606   1.733   2.337
   51OCT    H82 1375   0.524   1.855   2.441
   51OCT     O1 1376   0.458   1.660   2.461
   51OCT    HO1 1377   0.394   1.676   2.392
   52OCT     C1 1378   5.228   2.375   4.820
   52OCT    H11 1379   5.328   2.421   4.827
   52OCT    H12 1380   5.196   2.342   4.922
   52OCT    H13 1381   5.235   2.284   4.756
   52OCT     C2 1382   5.127   2.474   4.761
   52OCT    H21 1383   5.124   2.564   4.826
   52OCT    H22 1384   5.163   2.506   4.661
   52OCT     C3 1385   4.985   2.418   4.747
   52OCT    H31 1386   4.988   2.328   4.682
   52OCT    H32 1387   4.949   2.387   4.848
   52OCT     C4 1388   4.886   2.520   4.688
   52OCT    H41 1389   4.883   2.609   4.754
   52OCT    H42 1390   4.922   2.551   4.588
   52OCT     C5 1391   4.744   2.464   4.674
   52OCT    H51 1392   4.746   2.374   4.609
   52OCT    H52 1393   4.707   2.432   4.775
   52OCT     C6 1394   4.645   2.566   4.615
   52OCT    H61 1395   4.641   2.656   4.680
   52OCT    H62 1396   4.681   2.597   4.515
   52OCT     C7 1397   4.502   2.509   4.601
   52OCT    H71 1398   4.505   2.420   4.536
   52OCT    H72 1399   4.466   2.478   4.702
   52OCT     C8 1400   4.404   2.612   4.542
   52OCT    H81 1401   4.437   2.643   4.441
   52OCT    H82 1402   4.398   2.701   4.607
   52OCT     O1 1403   4.273   2.556   4.531
   52OCT    HO1 1404   4.218   2.625   4.494
   53OCT     C1 1405   0.973   1.569   5.164
   53OCT    H11 1406   0.917   1.519   5.246
   53OCT    H12 1407   0.976   1.678   5.186
   53OCT    H13 1408   0.918   1.555   5.069
   53OCT     C2 1409   1.114   1.513   5.153
   53OCT    H21 1410   1.166   1.527   5.251
   53OCT    H22 1411   1.108   1.403   5.134
   53OCT     C3 1412   1.199   1.577   5.043
   53OCT    H31 1413   1.148   1.562   4.946
   53OCT    H32 1414   1.206   1.686   5.063
   53OCT     C4 1415   1.341   1.518   5.034
   53OCT    H41 1416   1.393   1.533   5.131
   53OCT    H42 1417   1.334   1.409   5.014
   53OCT     C5 1418   1.426   1.583   4.924
   53OCT    H51 1419   1.375   1.569   4.825
   53OCT    H52 1420   1.434   1.693   4.942
   53OCT     C6 1421   1.568   1.524   4.915
   53OCT    H61 1422   1.619   1.539   5.012
   53OCT    H62 1423   1.561   1.415   4.895
   53OCT     C7 1424   1.652   1.589   4.804
   53OCT    H71 1425   1.602   1.575   4.706
   53OCT    H72 1426   1.660   1.698   4.823
   53OCT     C8 1427   1.794   1.530   4.796
   53OCT    H81 1428   1.789   1.421   4.775
   53OCT    H82 1429   1.847   1.545   4.892
   53OCT     O1 1430   1.869   1.593   4.692
   53OCT    HO1 1431   1.956   1.551   4.693
   54OCT     C1 1432   4.370   2.440   3.943
   54OCT    H11 1433   4.339   2.466   3.839
   54OCT    H12 1434   4.428   2.525   3.985
   54OCT    H13 1435   4.437   2.351   3.938
   54OCT     C2 1436   4.247   2.410   4.029
   54OCT    H21 1437   4.181   2.500   4.030
   54OCT    H22 1438   4.190   2.327   3.983
   54OCT     C3 1439   4.281   2.373   4.174
   54OCT    H31 1440   4.346   2.283   4.173
   54OCT    H32 1441   4.337   2.456   4.220
   54OCT     C4 1442   4.156   2.343   4.259
   54OCT    H41 1443   4.091   2.433   4.260
   54OCT    H42 1444   4.099   2.260   4.213
   54OCT     C5 1445   4.189   2.306   4.404
   54OCT    H51 1446   4.255   2.216   4.404
   54OCT    H52 1447   4.246   2.389   4.451
   54OCT     C6 1448   4.065   2.276   4.489
   54OCT    H61 1449   3.999   2.366   4.490
   54OCT    H62 1450   4.008   2.193   4.443
   54OCT     C7 1451   4.099   2.239   4.634
   54OCT    H71 1452   4.164   2.149   4.634
   54OCT    H72 1453   4.155   2.322   4.681
   54OCT     C8 1454   3.973   2.210   4.718
   54OCT    H81 1455   3.917   2.125   4.675
   54OCT    H82 1456   3.908   2.299   4.722
   54OCT     O1 1457   4.009   2.175   4.852
   54OCT    HO1 1458   3.927   2.159   4.898
   55OCT     C1 1459   4.306   2.831  -0.192
   55OCT    H11 1460   4.328   2.874  -0.291
   55OCT    H12 1461   4.336   2.724  -0.192
   55OCT    H13 1462   4.196   2.835  -0.174
   55OCT     C2 1463   4.380   2.907  -0.082
   55OCT    H21 1464   4.490   2.902  -0.103
   55OCT    H22 1465   4.350   3.014  -0.086
   55OCT     C3 1466   4.356   2.853   0.060
   55OCT    H31 1467   4.247   2.858   0.081
   55OCT    H32 1468   4.387   2.747   0.063
   55OCT     C4 1469   4.432   2.931   0.168
   55OCT    H41 1470   4.541   2.926   0.147
   55OCT    H42 1471   4.401   3.038   0.164
   55OCT     C5 1472   4.407   2.878   0.310
   55OCT    H51 1473   4.298   2.882   0.332
   55OCT    H52 1474   4.438   2.771   0.314
   55OCT     C6 1475   4.483   2.956   0.418
   55OCT    H61 1476   4.592   2.951   0.397
   55OCT    H62 1477   4.452   3.063   0.414
   55OCT     C7 1478   4.458   2.902   0.560
   55OCT    H71 1479   4.349   2.907   0.582
   55OCT    H72 1480   4.489   2.795   0.564
   55OCT     C8 1481   4.534   2.981   0.667
   55OCT    H81 1482   4.503   3.087   0.666
   55OCT    H82 1483   4.643   2.975   0.648
   55OCT     O1 1484   4.508   2.927   0.797
   55OCT    HO1 1485   4.558   2.981   0.858
   56OCT     C1 1486   5.432   4.270   2.622
   56OCT    H11 1487   5.508   4.277   2.702
   56OCT    H12 1488   5.370   4.363   2.625
   56OCT    H13 1489   5.366   4.184   2.643
   56OCT     C2 1490   5.499   4.255   2.486
   56OCT    H21 1491   5.567   4.342   2.469
   56OCT    H22 1492   5.562   4.163   2.487
   56OCT     C3 1493   5.401   4.245   2.368
   56OCT    H31 1494   5.334   4.158   2.385
   56OCT    H32 1495   5.338   4.337   2.367
   56OCT     C4 1496   5.471   4.230   2.232
   56OCT    H41 1497   5.537   4.317   2.215
   56OCT    H42 1498   5.533   4.138   2.234
   56OCT     C5 1499   5.372   4.220   2.115
   56OCT    H51 1500   5.305   4.133   2.131
   56OCT    H52 1501   5.309   4.312   2.112
   56OCT     C6 1502   5.442   4.205   1.979
   56OCT    H61 1503   5.509   4.292   1.962
   56OCT    H62 1504   5.505   4.113   1.980
   56OCT     C7 1505   5.343   4.195   1.861
   56OCT    H71 1506   5.276   4.108   1.877
   56OCT    H72 1507   5.281   4.287   1.859
   56OCT     C8 1508   5.414   4.180   1.726
   56OCT    H81 1509   5.475   4.088   1.725
   56OCT    H82 1510   5.480   4.267   1.707
   56OCT     O1 1511   5.319   4.171   1.620
   56OCT    HO1 1512   5.370   4.162   1.539
   57OCT     C1 1513   1.688   3.799   2.821
   57OCT    H11 1514   1.676   3.878   2.898
   57OCT    H12 1515   1.794   3.766   2.820
   57OCT    H13 1516   1.664   3.842   2.721
   57OCT     C2 1517   1.597   3.680   2.851
   57OCT    H21 1518   1.621   3.641   2.953
   57OCT    H22 1519   1.491   3.716   2.855
   57OCT     C3 1520   1.606   3.565   2.750
   57OCT    H31 1521   1.581   3.605   2.649
   57OCT    H32 1522   1.711   3.529   2.748
   57OCT     C4 1523   1.513   3.448   2.783
   57OCT    H41 1524   1.539   3.408   2.884
   57OCT    H42 1525   1.408   3.484   2.785
   57OCT     C5 1526   1.523   3.333   2.682
   57OCT    H51 1527   1.498   3.371   2.580
   57OCT    H52 1528   1.629   3.296   2.678
   57OCT     C6 1529   1.430   3.215   2.715
   57OCT    H61 1530   1.456   3.176   2.815
   57OCT    H62 1531   1.325   3.251   2.717
   57OCT     C7 1532   1.441   3.100   2.613
   57OCT    H71 1533   1.415   3.139   2.512
   57OCT    H72 1534   1.546   3.063   2.610
   57OCT     C8 1535   1.347   2.983   2.647
   57OCT    H81 1536   1.242   3.017   2.648
   57OCT    H82 1537   1.373   2.941   2.746
   57OCT     O1 1538   1.360   2.879   2.550
   57OCT    HO1 1539   1.300   2.810   2.577
   58OCT     C1 1540   0.905   3.817   5.570
   58OCT    H11 1541   0.853   3.719   5.567
   58OCT    H12 1542   0.901   3.863   5.469
   58OCT    H13 1543   1.011   3.801   5.597
   58OCT     C2 1544   0.838   3.910   5.672
   58OCT    H21 1545   0.731   3.922   5.644
   58OCT    H22 1546   0.841   3.861   5.772
   58OCT     C3 1547   0.903   4.049   5.683
   58OCT    H31 1548   1.009   4.036   5.711
   58OCT    H32 1549   0.899   4.097   5.583
   58OCT     C4 1550   0.834   4.139   5.786
   58OCT    H41 1551   0.727   4.152   5.758
   58OCT    H42 1552   0.838   4.090   5.886
   58OCT     C5 1553   0.898   4.278   5.797
   58OCT    H51 1554   1.006   4.266   5.825
   58OCT    H52 1555   0.895   4.328   5.698
   58OCT     C6 1556   0.829   4.368   5.900
   58OCT    H61 1557   0.723   4.381   5.872
   58OCT    H62 1558   0.833   4.320   6.000
   58OCT     C7 1559   0.895   4.507   5.911
   58OCT    H71 1560   1.001   4.495   5.940
   58OCT    H72 1561   0.891   4.557   5.812
   58OCT     C8 1562   0.825   4.598   6.015
   58OCT    H81 1563   0.830   4.551   6.115
   58OCT    H82 1564   0.719   4.613   5.987
   58OCT     O1 1565   0.889   4.725   6.021
   58OCT    HO1 1566   0.840   4.775   6.087
   59OCT     C1 1567   0.858   4.532   3.307
   59OCT    H11 1568   0.806   4.612   3.362
   59OCT    H12 1569   0.846   4.436   3.363
   59OCT    H13 1570   0.967   4.556   3.304
   59OCT     C2 1571   0.802   4.518   3.166
   59OCT    H21 1572   0.693   4.496   3.172
   59OCT    H22 1573   0.814   4.615   3.113
   59OCT     C3 1574   0.869   4.408   3.082
   59OCT    H31 1575   0.978   4.430   3.075
   59OCT    H32 1576   0.857   4.311   3.134
   59OCT     C4 1577   0.811   4.396   2.940
   59OCT    H41 1578   0.703   4.374   2.947
   59OCT    H42 1579   0.823   4.493   2.888
   59OCT     C5 1580   0.878   4.287   2.856
   59OCT    H51 1581   0.988   4.308   2.849
   59OCT    H52 1582   0.867   4.188   2.909
   59OCT     C6 1583   0.820   4.275   2.715
   59OCT    H61 1584   0.712   4.252   2.722
   59OCT    H62 1585   0.832   4.372   2.662
   59OCT     C7 1586   0.888   4.165   2.631
   59OCT    H71 1587   0.997   4.187   2.624
   59OCT    H72 1588   0.876   4.067   2.683
   59OCT     C8 1589   0.829   4.153   2.490
   59OCT    H81 1590   0.842   4.249   2.435
   59OCT    H82 1591   0.721   4.129   2.495
   59OCT     O1 1592   0.895   4.050   2.416
   59OCT    HO1 1593   0.853   4.049   2.330
   60OCT     C1 1594   2.899   4.077   0.759
   60OCT    H11 1595   2.789   4.072   0.770
   60OCT    H12 1596   2.942   3.979   0.786
   60OCT    H13 1597   2.939   4.153   0.830
   60OCT     C2 1598   2.937   4.114   0.615
   60OCT    H21 1599   2.894   4.037   0.546
   60OCT    H22 1600   2.890   4.212   0.590
   60OCT     C3 1601   3.088   4.123   0.590
   60OCT    H31 1602   3.130   4.200   0.659
   60OCT    H32 1603   3.134   4.025   0.615
   60OCT     C4 1604   3.123   4.160   0.445
   60OCT    H41 1605   3.081   4.083   0.377
   60OCT    H42 1606   3.077   4.258   0.421
   60OCT     C5 1607   3.274   4.170   0.420
   60OCT    H51 1608   3.318   4.246   0.489
   60OCT    H52 1609   3.322   4.072   0.445
   60OCT     C6 1610   3.309   4.206   0.276
   60OCT    H61 1611   3.267   4.130   0.207
   60OCT    H62 1612   3.263   4.304   0.251
   60OCT     C7 1613   3.461   4.216   0.251
   60OCT    H71 1614   3.504   4.293   0.319
   60OCT    H72 1615   3.508   4.118   0.275
   60OCT     C8 1616   3.495   4.253   0.106
   60OCT    H81 1617   3.451   4.351   0.080
   60OCT    H82 1618   3.455   4.176   0.037
   60OCT     O1 1619   3.636   4.260   0.088
   60OCT    HO1 1620   3.650   4.284  -0.004
   61OCT     C1 1621   3.998   0.988   1.169
   61OCT    H11 1622   3.993   0.985   1.058
   61OCT    H12 1623   3.978   0.886   1.208
   61OCT    H13 1624   3.918   1.056   1.206
   61OCT     C2 1625   4.135   1.038   1.214
   61OCT    H21 1626   4.214   0.969   1.173
   61OCT    H22 1627   4.153   1.139   1.171
   61OCT     C3 1628   4.152   1.045   1.367
   61OCT    H31 1629   4.075   1.114   1.407
   61OCT    H32 1630   4.135   0.944   1.409
   61OCT     C4 1631   4.291   1.095   1.410
   61OCT    H41 1632   4.368   1.026   1.369
   61OCT    H42 1633   4.308   1.196   1.367
   61OCT     C5 1634   4.308   1.103   1.562
   61OCT    H51 1635   4.230   1.171   1.604
   61OCT    H52 1636   4.290   1.002   1.606
   61OCT     C6 1637   4.446   1.152   1.605
   61OCT    H61 1638   4.524   1.084   1.565
   61OCT    H62 1639   4.464   1.253   1.562
   61OCT     C7 1640   4.462   1.160   1.758
   61OCT    H71 1641   4.385   1.229   1.799
   61OCT    H72 1642   4.445   1.059   1.801
   61OCT     C8 1643   4.602   1.210   1.800
   61OCT    H81 1644   4.620   1.311   1.760
   61OCT    H82 1645   4.680   1.141   1.762
   61OCT     O1 1646   4.612   1.215   1.943
   61OCT    HO1 1647   4.701   1.247   1.961
   62OCT     C1 1648   2.067   0.267   4.793
   62OCT    H11 1649   1.980   0.201   4.769
   62OCT    H12 1650   2.160   0.218   4.756
   62OCT    H13 1651   2.075   0.277   4.903
   62OCT     C2 1652   2.049   0.404   4.727
   62OCT    H21 1653   2.039   0.390   4.617
   62OCT    H22 1654   1.954   0.449   4.764
   62OCT     C3 1655   2.164   0.502   4.754
   62OCT    H31 1656   2.174   0.516   4.864
   62OCT    H32 1657   2.258   0.456   4.716
   62OCT     C4 1658   2.144   0.638   4.687
   62OCT    H41 1659   2.134   0.624   4.577
   62OCT    H42 1660   2.050   0.683   4.725
   62OCT     C5 1661   2.259   0.736   4.714
   62OCT    H51 1662   2.270   0.751   4.824
   62OCT    H52 1663   2.354   0.692   4.676
   62OCT     C6 1664   2.238   0.873   4.647
   62OCT    H61 1665   2.229   0.859   4.537
   62OCT    H62 1666   2.144   0.918   4.684
   62OCT     C7 1667   2.354   0.971   4.674
   62OCT    H71 1668   2.364   0.986   4.783
   62OCT    H72 1669   2.449   0.926   4.636
   62OCT     C8 1670   2.333   1.108   4.607
   62OCT    H81 1671   2.240   1.154   4.644
   62OCT    H82 1672   2.325   1.095   4.497
   62OCT     O1 1673   2.442   1.195   4.634
   62OCT    HO1 1674   2.422   1.277   4.589
   63OCT     C1 1675   5.713   3.845   3.162
   63OCT    H11 1676   5.729   3.955   3.162
   63OCT    H12 1677   5.636   3.821   3.085
   63OCT    H13 1678   5.673   3.815   3.261
   63OCT     C2 1679   5.844   3.772   3.133
   63OCT    H21 1680   5.882   3.806   3.034
   63OCT    H22 1681   5.919   3.801   3.210
   63OCT     C3 1682   5.831   3.619   3.131
   63OCT    H31 1683   5.793   3.586   3.230
   63OCT    H32 1684   5.757   3.591   3.053
   63OCT     C4 1685   5.964   3.548   3.101
   63OCT    H41 1686   6.002   3.582   3.002
   63OCT    H42 1687   6.039   3.577   3.179
   63OCT     C5 1688   5.952   3.395   3.099
   63OCT    H51 1689   5.913   3.360   3.198
   63OCT    H52 1690   5.877   3.365   3.022
   63OCT     C6 1691   6.084   3.324   3.070
   63OCT    H61 1692   6.122   3.358   2.971
   63OCT    H62 1693   6.159   3.353   3.147
   63OCT     C7 1694   6.071   3.171   3.068
   63OCT    H71 1695   6.034   3.137   3.167
   63OCT    H72 1696   5.997   3.142   2.991
   63OCT     C8 1697   6.205   3.100   3.039
   63OCT    H81 1698   6.280   3.127   3.116
   63OCT    H82 1699   6.243   3.132   2.940
   63OCT     O1 1700   6.188   2.959   3.038
   63OCT    HO1 1701   6.275   2.922   3.019
   64OCT     C1 1702   5.462   0.698   5.602
   64OCT    H11 1703   5.444   0.634   5.691
   64OCT    H12 1704   5.561   0.748   5.614
   64OCT    H13 1705   5.384   0.777   5.599
   64OCT     C2 1706   5.460   0.615   5.474
   64OCT    H21 1707   5.537   0.535   5.482
   64OCT    H22 1708   5.361   0.564   5.466
   64OCT     C3 1709   5.484   0.696   5.346
   64OCT    H31 1710   5.406   0.774   5.338
   64OCT    H32 1711   5.583   0.745   5.354
   64OCT     C4 1712   5.481   0.610   5.219
   64OCT    H41 1713   5.559   0.531   5.227
   64OCT    H42 1714   5.382   0.560   5.211
   64OCT     C5 1715   5.506   0.690   5.091
   64OCT    H51 1716   5.428   0.770   5.082
   64OCT    H52 1717   5.605   0.741   5.098
   64OCT     C6 1718   5.503   0.604   4.964
   64OCT    H61 1719   5.581   0.526   4.971
   64OCT    H62 1720   5.404   0.555   4.956
   64OCT     C7 1721   5.528   0.686   4.836
   64OCT    H71 1722   5.450   0.765   4.827
   64OCT    H72 1723   5.627   0.736   4.843
   64OCT     C8 1724   5.525   0.599   4.709
   64OCT    H81 1725   5.426   0.550   4.698
   64OCT    H82 1726   5.603   0.521   4.714
   64OCT     O1 1727   5.548   0.678   4.593
   64OCT    HO1 1728   5.545   0.618   4.518
   65OCT     C1 1729   1.553   2.723   4.156
   65OCT    H11 1730   1.506   2.672   4.070
   65OCT    H12 1731   1.540   2.833   4.144
   65OCT    H13 1732   1.662   2.700   4.156
   65OCT     C2 1733   1.489   2.677   4.287
   65OCT    H21 1734   1.379   2.699   4.284
   65OCT    H22 1735   1.501   2.566   4.296
   65OCT     C3 1736   1.548   2.743   4.413
   65OCT    H31 1737   1.656   2.721   4.417
   65OCT    H32 1738   1.535   2.853   4.404
   65OCT     C4 1739   1.482   2.695   4.543
   65OCT    H41 1740   1.373   2.718   4.539
   65OCT    H42 1741   1.494   2.585   4.552
   65OCT     C5 1742   1.541   2.761   4.668
   65OCT    H51 1743   1.650   2.739   4.673
   65OCT    H52 1744   1.529   2.872   4.660
   65OCT     C6 1745   1.475   2.713   4.798
   65OCT    H61 1746   1.366   2.736   4.794
   65OCT    H62 1747   1.487   2.603   4.807
   65OCT     C7 1748   1.534   2.780   4.924
   65OCT    H71 1749   1.643   2.757   4.929
   65OCT    H72 1750   1.522   2.890   4.916
   65OCT     C8 1751   1.468   2.731   5.054
   65OCT    H81 1752   1.481   2.622   5.065
   65OCT    H82 1753   1.360   2.754   5.052
   65OCT     O1 1754   1.526   2.795   5.167
   65OCT    HO1 1755   1.480   2.760   5.244
   66OCT     C1 1756   0.043   6.296   4.137
   66OCT    H11 1757   0.021   6.349   4.231
   66OCT    H12 1758   0.101   6.365   4.070
   66OCT    H13 1759  -0.052   6.271   4.086
   66OCT     C2 1760   0.124   6.169   4.164
   66OCT    H21 1761   0.218   6.197   4.217
   66OCT    H22 1762   0.065   6.104   4.233
   66OCT     C3 1763   0.160   6.089   4.039
   66OCT    H31 1764   0.066   6.061   3.986
   66OCT    H32 1765   0.219   6.154   3.971
   66OCT     C4 1766   0.241   5.962   4.069
   66OCT    H41 1767   0.335   5.990   4.122
   66OCT    H42 1768   0.181   5.897   4.137
   66OCT     C5 1769   0.277   5.882   3.944
   66OCT    H51 1770   0.183   5.853   3.890
   66OCT    H52 1771   0.337   5.947   3.875
   66OCT     C6 1772   0.358   5.755   3.974
   66OCT    H61 1773   0.451   5.783   4.027
   66OCT    H62 1774   0.298   5.690   4.042
   66OCT     C7 1775   0.394   5.675   3.848
   66OCT    H71 1776   0.300   5.646   3.795
   66OCT    H72 1777   0.453   5.739   3.780
   66OCT     C8 1778   0.475   5.548   3.879
   66OCT    H81 1779   0.416   5.481   3.945
   66OCT    H82 1780   0.569   5.574   3.930
   66OCT     O1 1781   0.506   5.477   3.760
   66OCT    HO1 1782   0.556   5.400   3.787
   67OCT     C1 1783   4.199   2.027   2.026
   67OCT    H11 1784   4.277   1.965   1.977
   67OCT    H12 1785   4.100   1.978   2.009
   67OCT    H13 1786   4.196   2.127   1.977
   67OCT     C2 1787   4.226   2.042   2.175
   67OCT    H21 1788   4.230   1.940   2.221
   67OCT    H22 1789   4.327   2.088   2.189
   67OCT     C3 1790   4.122   2.126   2.251
   67OCT    H31 1791   4.119   2.227   2.205
   67OCT    H32 1792   4.023   2.078   2.238
   67OCT     C4 1793   4.153   2.139   2.401
   67OCT    H41 1794   4.156   2.037   2.446
   67OCT    H42 1795   4.252   2.186   2.414
   67OCT     C5 1796   4.049   2.223   2.476
   67OCT    H51 1797   4.045   2.325   2.431
   67OCT    H52 1798   3.948   2.176   2.463
   67OCT     C6 1799   4.079   2.235   2.626
   67OCT    H61 1800   4.082   2.134   2.671
   67OCT    H62 1801   4.179   2.283   2.639
   67OCT     C7 1802   3.974   2.320   2.701
   67OCT    H71 1803   3.971   2.422   2.657
   67OCT    H72 1804   3.874   2.273   2.689
   67OCT     C8 1805   4.005   2.332   2.851
   67OCT    H81 1806   4.104   2.381   2.866
   67OCT    H82 1807   4.007   2.232   2.898
   67OCT     O1 1808   3.906   2.411   2.917
   67OCT    HO1 1809   3.932   2.415   3.009
   68OCT     C1 1810   1.784   6.175   4.514
   68OCT    H11 1811   1.857   6.257   4.523
   68OCT    H12 1812   1.734   6.182   4.415
   68OCT    H13 1813   1.706   6.188   4.593
   68OCT     C2 1814   1.853   6.040   4.529
   68OCT    H21 1815   1.932   6.031   4.450
   68OCT    H22 1816   1.904   6.036   4.628
   68OCT     C3 1817   1.759   5.919   4.518
   68OCT    H31 1818   1.681   5.928   4.597
   68OCT    H32 1819   1.709   5.922   4.419
   68OCT     C4 1820   1.831   5.784   4.533
   68OCT    H41 1821   1.909   5.776   4.455
   68OCT    H42 1822   1.881   5.781   4.632
   68OCT     C5 1823   1.737   5.664   4.522
   68OCT    H51 1824   1.658   5.672   4.601
   68OCT    H52 1825   1.685   5.666   4.423
   68OCT     C6 1826   1.809   5.529   4.538
   68OCT    H61 1827   1.887   5.520   4.459
   68OCT    H62 1828   1.859   5.526   4.637
   68OCT     C7 1829   1.713   5.409   4.527
   68OCT    H71 1830   1.636   5.417   4.605
   68OCT    H72 1831   1.663   5.411   4.428
   68OCT     C8 1832   1.787   5.274   4.542
   68OCT    H81 1833   1.836   5.269   4.641
   68OCT    H82 1834   1.863   5.263   4.463
   68OCT     O1 1835   1.695   5.165   4.531
   68OCT    HO1 1836   1.747   5.086   4.542
   69OCT     C1 1837   0.199   5.265   5.119
   69OCT    H11 1838   0.135   5.212   5.192
   69OCT    H12 1839   0.305   5.235   5.136
   69OCT    H13 1840   0.191   5.374   5.137
   69OCT     C2 1841   0.157   5.231   4.976
   69OCT    H21 1842   0.164   5.120   4.962
   69OCT    H22 1843   0.050   5.260   4.963
   69OCT     C3 1844   0.240   5.300   4.868
   69OCT    H31 1845   0.233   5.410   4.882
   69OCT    H32 1846   0.347   5.270   4.881
   69OCT     C4 1847   0.196   5.264   4.725
   69OCT    H41 1848   0.203   5.154   4.711
   69OCT    H42 1849   0.089   5.293   4.712
   69OCT     C5 1850   0.279   5.333   4.617
   69OCT    H51 1851   0.272   5.444   4.630
   69OCT    H52 1852   0.386   5.304   4.629
   69OCT     C6 1853   0.234   5.297   4.474
   69OCT    H61 1854   0.242   5.187   4.460
   69OCT    H62 1855   0.128   5.327   4.461
   69OCT     C7 1856   0.319   5.367   4.366
   69OCT    H71 1857   0.311   5.477   4.379
   69OCT    H72 1858   0.425   5.337   4.378
   69OCT     C8 1859   0.273   5.330   4.223
   69OCT    H81 1860   0.168   5.360   4.208
   69OCT    H82 1861   0.282   5.221   4.207
   69OCT     O1 1862   0.354   5.397   4.126
   69OCT    HO1 1863   0.320   5.369   4.041
   70OCT     C1 1864   5.037   5.080   0.035
   70OCT    H11 1865   4.931   5.057   0.058
   70OCT    H12 1866   5.041   5.177  -0.020
   70OCT    H13 1867   5.077   5.001  -0.031
   70OCT     C2 1868   5.119   5.088   0.164
   70OCT    H21 1869   5.075   5.167   0.230
   70OCT    H22 1870   5.111   4.991   0.218
   70OCT     C3 1871   5.267   5.120   0.142
   70OCT    H31 1872   5.311   5.041   0.077
   70OCT    H32 1873   5.275   5.217   0.089
   70OCT     C4 1874   5.347   5.128   0.273
   70OCT    H41 1875   5.304   5.207   0.338
   70OCT    H42 1876   5.339   5.030   0.326
   70OCT     C5 1877   5.496   5.159   0.251
   70OCT    H51 1878   5.541   5.080   0.186
   70OCT    H52 1879   5.505   5.257   0.197
   70OCT     C6 1880   5.576   5.167   0.382
   70OCT    H61 1881   5.532   5.246   0.447
   70OCT    H62 1882   5.568   5.070   0.435
   70OCT     C7 1883   5.725   5.198   0.359
   70OCT    H71 1884   5.769   5.120   0.295
   70OCT    H72 1885   5.734   5.296   0.306
   70OCT     C8 1886   5.804   5.206   0.491
   70OCT    H81 1887   5.799   5.109   0.544
   70OCT    H82 1888   5.763   5.285   0.556
   70OCT     O1 1889   5.942   5.235   0.465
   70OCT    HO1 1890   5.984   5.238   0.551
   71OCT     C1 1891   3.100   3.818   3.382
   71OCT    H11 1892   3.134   3.762   3.293
   71OCT    H12 1893   3.013   3.765   3.426
   71OCT    H13 1894   3.066   3.919   3.350
   71OCT     C2 1895   3.213   3.829   3.484
   71OCT    H21 1896   3.246   3.727   3.512
   71OCT    H22 1897   3.299   3.881   3.437
   71OCT     C3 1898   3.175   3.905   3.612
   71OCT    H31 1899   3.142   4.008   3.584
   71OCT    H32 1900   3.089   3.853   3.660
   71OCT     C4 1901   3.290   3.915   3.713
   71OCT    H41 1902   3.323   3.813   3.741
   71OCT    H42 1903   3.376   3.967   3.665
   71OCT     C5 1904   3.252   3.991   3.841
   71OCT    H51 1905   3.219   4.094   3.814
   71OCT    H52 1906   3.166   3.940   3.890
   71OCT     C6 1907   3.367   4.001   3.942
   71OCT    H61 1908   3.400   3.899   3.970
   71OCT    H62 1909   3.453   4.053   3.894
   71OCT     C7 1910   3.328   4.077   4.070
   71OCT    H71 1911   3.296   4.180   4.042
   71OCT    H72 1912   3.243   4.026   4.118
   71OCT     C8 1913   3.445   4.087   4.170
   71OCT    H81 1914   3.530   4.140   4.125
   71OCT    H82 1915   3.477   3.986   4.200
   71OCT     O1 1916   3.404   4.158   4.287
   71OCT    HO1 1917   3.481   4.160   4.345
   72OCT     C1 1918   0.990   2.114   5.161
   72OCT    H11 1919   1.003   2.102   5.271
   72OCT    H12 1920   0.913   2.192   5.143
   72OCT    H13 1921   0.951   2.018   5.120
   72OCT     C2 1922   1.122   2.152   5.095
   72OCT    H21 1923   1.159   2.247   5.141
   72OCT    H22 1924   1.197   2.072   5.118
   72OCT     C3 1925   1.114   2.170   4.943
   72OCT    H31 1926   1.078   2.075   4.898
   72OCT    H32 1927   1.039   2.249   4.921
   72OCT     C4 1928   1.248   2.208   4.880
   72OCT    H41 1929   1.284   2.303   4.924
   72OCT    H42 1930   1.323   2.128   4.902
   72OCT     C5 1931   1.240   2.226   4.727
   72OCT    H51 1932   1.204   2.131   4.681
   72OCT    H52 1933   1.165   2.305   4.704
   72OCT     C6 1934   1.374   2.264   4.664
   72OCT    H61 1935   1.410   2.359   4.709
   72OCT    H62 1936   1.449   2.184   4.686
   72OCT     C7 1937   1.365   2.282   4.511
   72OCT    H71 1938   1.330   2.187   4.465
   72OCT    H72 1939   1.291   2.361   4.488
   72OCT     C8 1940   1.500   2.320   4.448
   72OCT    H81 1941   1.575   2.241   4.468
   72OCT    H82 1942   1.536   2.415   4.491
   72OCT     O1 1943   1.487   2.335   4.307
   72OCT    HO1 1944   1.575   2.359   4.275
   73OCT     C1 1945   3.993   3.722   3.623
   73OCT    H11 1946   3.997   3.628   3.681
   73OCT    H12 1947   4.024   3.701   3.518
   73OCT    H13 1948   4.066   3.795   3.666
   73OCT     C2 1949   3.852   3.781   3.626
   73OCT    H21 1950   3.781   3.706   3.585
   73OCT    H22 1951   3.823   3.800   3.732
   73OCT     C3 1952   3.836   3.912   3.547
   73OCT    H31 1953   3.907   3.987   3.589
   73OCT    H32 1954   3.864   3.893   3.442
   73OCT     C4 1955   3.694   3.969   3.552
   73OCT    H41 1956   3.623   3.894   3.511
   73OCT    H42 1957   3.666   3.988   3.658
   73OCT     C5 1958   3.678   4.100   3.474
   73OCT    H51 1959   3.749   4.176   3.515
   73OCT    H52 1960   3.706   4.082   3.367
   73OCT     C6 1961   3.535   4.156   3.479
   73OCT    H61 1962   3.465   4.081   3.437
   73OCT    H62 1963   3.507   4.175   3.585
   73OCT     C7 1964   3.520   4.288   3.400
   73OCT    H71 1965   3.590   4.363   3.441
   73OCT    H72 1966   3.548   4.269   3.294
   73OCT     C8 1967   3.377   4.344   3.405
   73OCT    H81 1968   3.349   4.365   3.510
   73OCT    H82 1969   3.306   4.271   3.363
   73OCT     O1 1970   3.368   4.465   3.331
   73OCT    HO1 1971   3.277   4.494   3.339
   74OCT     C1 1972   2.634   5.053   4.111
   74OCT    H11 1973   2.600   5.155   4.137
   74OCT    H12 1974   2.697   5.014   4.195
   74OCT    H13 1975   2.698   5.058   4.020
   74OCT     C2 1976   2.515   4.960   4.088
   74OCT    H21 1977   2.452   4.958   4.180
   74OCT    H22 1978   2.453   5.003   4.005
   74OCT     C3 1979   2.553   4.816   4.051
   74OCT    H31 1980   2.615   4.818   3.959
   74OCT    H32 1981   2.615   4.774   4.134
   74OCT     C4 1982   2.431   4.726   4.028
   74OCT    H41 1983   2.369   4.723   4.120
   74OCT    H42 1984   2.370   4.768   3.946
   74OCT     C5 1985   2.469   4.581   3.991
   74OCT    H51 1986   2.532   4.582   3.899
   74OCT    H52 1987   2.532   4.538   4.073
   74OCT     C6 1988   2.348   4.491   3.968
   74OCT    H61 1989   2.286   4.489   4.060
   74OCT    H62 1990   2.286   4.533   3.886
   74OCT     C7 1991   2.387   4.346   3.932
   74OCT    H71 1992   2.448   4.348   3.839
   74OCT    H72 1993   2.448   4.303   4.014
   74OCT     C8 1994   2.264   4.256   3.908
   74OCT    H81 1995   2.203   4.296   3.826
   74OCT    H82 1996   2.202   4.252   4.000
   74OCT     O1 1997   2.305   4.124   3.875
   74OCT    HO1 1998   2.224   4.074   3.862
   75OCT     C1 1999   5.823   4.191   2.619
   75OCT    H11 2000   5.853   4.171   2.514
   75OCT    H12 2001   5.897   4.143   2.687
   75OCT    H13 2002   5.724   4.145   2.638
   75OCT     C2 2003   5.818   4.342   2.645
   75OCT    H21 2004   5.918   4.385   2.623
   75OCT    H22 2005   5.745   4.388   2.574
   75OCT     C3 2006   5.778   4.380   2.788
   75OCT    H31 2007   5.678   4.336   2.809
   75OCT    H32 2008   5.851   4.334   2.858
   75OCT     C4 2009   5.773   4.531   2.811
   75OCT    H41 2010   5.873   4.575   2.790
   75OCT    H42 2011   5.700   4.577   2.741
   75OCT     C5 2012   5.733   4.569   2.954
   75OCT    H51 2013   5.633   4.526   2.977
   75OCT    H52 2014   5.806   4.524   3.026
   75OCT     C6 2015   5.728   4.721   2.977
   75OCT    H61 2016   5.828   4.764   2.956
   75OCT    H62 2017   5.655   4.766   2.907
   75OCT     C7 2018   5.688   4.758   3.121
   75OCT    H71 2019   5.588   4.716   3.143
   75OCT    H72 2020   5.761   4.714   3.192
   75OCT     C8 2021   5.684   4.911   3.143
   75OCT    H81 2022   5.610   4.957   3.075
   75OCT    H82 2023   5.783   4.955   3.124
   75OCT     O1 2024   5.646   4.941   3.278
   75OCT    HO1 2025   5.645   5.037   3.284
   76OCT     C1 2026   3.935   5.875   0.669
   76OCT    H11 2027   3.830   5.848   0.693
   76OCT    H12 2028   4.003   5.810   0.728
   76OCT    H13 2029   3.952   5.981   0.699
   76OCT     C2 2030   3.961   5.858   0.519
   76OCT    H21 2031   3.941   5.752   0.491
   76OCT    H22 2032   3.889   5.922   0.462
   76OCT     C3 2033   4.104   5.893   0.476
   76OCT    H31 2034   4.124   5.999   0.503
   76OCT    H32 2035   4.175   5.829   0.532
   76OCT     C4 2036   4.128   5.875   0.325
   76OCT    H41 2037   4.108   5.769   0.298
   76OCT    H42 2038   4.057   5.940   0.269
   76OCT     C5 2039   4.271   5.911   0.282
   76OCT    H51 2040   4.292   6.017   0.309
   76OCT    H52 2041   4.343   5.847   0.338
   76OCT     C6 2042   4.294   5.893   0.132
   76OCT    H61 2043   4.274   5.787   0.104
   76OCT    H62 2044   4.223   5.957   0.075
   76OCT     C7 2045   4.438   5.928   0.089
   76OCT    H71 2046   4.458   6.034   0.116
   76OCT    H72 2047   4.509   5.864   0.144
   76OCT     C8 2048   4.461   5.910  -0.062
   76OCT    H81 2049   4.392   5.975  -0.119
   76OCT    H82 2050   4.443   5.805  -0.091
   76OCT     O1 2051   4.595   5.944  -0.097
   76OCT    HO1 2052   4.601   5.930  -0.192
   77OCT     C1 2053   4.945   3.707   2.449
   77OCT    H11 2054   4.921   3.635   2.530
   77OCT    H12 2055   5.055   3.713   2.439
   77OCT    H13 2056   4.908   3.808   2.479
   77OCT     C2 2057   4.881   3.663   2.317
   77OCT    H21 2058   4.918   3.561   2.292
   77OCT    H22 2059   4.771   3.656   2.332
   77OCT     C3 2060   4.909   3.757   2.200
   77OCT    H31 2061   4.872   3.859   2.225
   77OCT    H32 2062   5.019   3.764   2.185
   77OCT     C4 2063   4.844   3.711   2.069
   77OCT    H41 2064   4.882   3.610   2.043
   77OCT    H42 2065   4.734   3.705   2.083
   77OCT     C5 2066   4.872   3.805   1.951
   77OCT    H51 2067   4.835   3.907   1.975
   77OCT    H52 2068   4.983   3.813   1.935
   77OCT     C6 2069   4.807   3.759   1.820
   77OCT    H61 2070   4.845   3.658   1.794
   77OCT    H62 2071   4.697   3.752   1.834
   77OCT     C7 2072   4.836   3.854   1.702
   77OCT    H71 2073   4.798   3.955   1.726
   77OCT    H72 2074   4.946   3.860   1.686
   77OCT     C8 2075   4.770   3.807   1.571
   77OCT    H81 2076   4.661   3.801   1.583
   77OCT    H82 2077   4.808   3.706   1.543
   77OCT     O1 2078   4.800   3.897   1.464
   77OCT    HO1 2079   4.756   3.861   1.387
   78OCT     C1 2080   0.892   6.209   1.959
   78OCT    H11 2081   0.849   6.312   1.957
   78OCT    H12 2082   0.823   6.142   1.903
   78OCT    H13 2083   0.896   6.174   2.064
   78OCT     C2 2084   1.031   6.207   1.897
   78OCT    H21 2085   1.024   6.246   1.792
   78OCT    H22 2086   1.097   6.278   1.953
   78OCT     C3 2087   1.098   6.069   1.894
   78OCT    H31 2088   1.105   6.032   1.999
   78OCT    H32 2089   1.033   6.000   1.837
   78OCT     C4 2090   1.238   6.071   1.831
   78OCT    H41 2091   1.230   6.108   1.727
   78OCT    H42 2092   1.303   6.140   1.888
   78OCT     C5 2093   1.304   5.932   1.829
   78OCT    H51 2094   1.312   5.894   1.933
   78OCT    H52 2095   1.240   5.862   1.772
   78OCT     C6 2096   1.444   5.934   1.766
   78OCT    H61 2097   1.437   5.971   1.661
   78OCT    H62 2098   1.509   6.003   1.823
   78OCT     C7 2099   1.510   5.795   1.764
   78OCT    H71 2100   1.519   5.757   1.868
   78OCT    H72 2101   1.446   5.725   1.706
   78OCT     C8 2102   1.651   5.797   1.700
   78OCT    H81 2103   1.717   5.865   1.757
   78OCT    H82 2104   1.644   5.832   1.596
   78OCT     O1 2105   1.708   5.667   1.701
   78OCT    HO1 2106   1.794   5.676   1.660
   79OCT     C1 2107   5.437   1.312   2.251
   79OCT    H11 2108   5.417   1.253   2.159
   79OCT    H12 2109   5.357   1.389   2.262
   79OCT    H13 2110   5.534   1.364   2.239
   79OCT     C2 2111   5.439   1.221   2.373
   79OCT    H21 2112   5.341   1.168   2.381
   79OCT    H22 2113   5.518   1.143   2.359
   79OCT     C3 2114   5.466   1.294   2.506
   79OCT    H31 2115   5.564   1.346   2.498
   79OCT    H32 2116   5.387   1.370   2.520
   79OCT     C4 2117   5.468   1.200   2.627
   79OCT    H41 2118   5.370   1.148   2.635
   79OCT    H42 2119   5.547   1.123   2.613
   79OCT     C5 2120   5.495   1.273   2.759
   79OCT    H51 2121   5.593   1.326   2.753
   79OCT    H52 2122   5.416   1.350   2.775
   79OCT     C6 2123   5.497   1.179   2.881
   79OCT    H61 2124   5.399   1.127   2.888
   79OCT    H62 2125   5.576   1.102   2.866
   79OCT     C7 2126   5.524   1.253   3.013
   79OCT    H71 2127   5.622   1.305   3.007
   79OCT    H72 2128   5.445   1.329   3.029
   79OCT     C8 2129   5.526   1.158   3.134
   79OCT    H81 2130   5.605   1.082   3.122
   79OCT    H82 2131   5.428   1.106   3.144
   79OCT     O1 2132   5.551   1.230   3.255
   79OCT    HO1 2133   5.551   1.165   3.325
   80OCT     C1 2134   4.081   3.562   1.078
   80OCT    H11 2135   4.055   3.570   0.970
   80OCT    H12 2136   4.182   3.605   1.094
   80OCT    H13 2137   4.084   3.454   1.106
   80OCT     C2 2138   3.977   3.635   1.164
   80OCT    H21 2139   3.974   3.742   1.132
   80OCT    H22 2140   3.877   3.591   1.144
   80OCT     C3 2141   4.005   3.629   1.314
   80OCT    H31 2142   4.007   3.523   1.346
   80OCT    H32 2143   4.105   3.673   1.334
   80OCT     C4 2144   3.899   3.704   1.398
   80OCT    H41 2145   3.897   3.810   1.366
   80OCT    H42 2146   3.799   3.660   1.378
   80OCT     C5 2147   3.927   3.698   1.549
   80OCT    H51 2148   3.929   3.591   1.581
   80OCT    H52 2149   4.027   3.742   1.569
   80OCT     C6 2150   3.822   3.773   1.632
   80OCT    H61 2151   3.819   3.879   1.600
   80OCT    H62 2152   3.722   3.728   1.612
   80OCT     C7 2153   3.850   3.766   1.783
   80OCT    H71 2154   3.852   3.660   1.815
   80OCT    H72 2155   3.949   3.811   1.803
   80OCT     C8 2156   3.744   3.842   1.866
   80OCT    H81 2157   3.644   3.797   1.849
   80OCT    H82 2158   3.741   3.948   1.837
   80OCT     O1 2159   3.773   3.833   2.005
   80OCT    HO1 2160   3.704   3.882   2.050
   81OCT     C1 2161   5.066   2.577   4.173
   81OCT    H11 2162   5.101   2.483   4.221
   81OCT    H12 2163   5.088   2.662   4.242
   81OCT    H13 2164   4.956   2.571   4.160
   81OCT     C2 2165   5.135   2.599   4.039
   81OCT    H21 2166   5.246   2.601   4.055
   81OCT    H22 2167   5.114   2.511   3.973
   81OCT     C3 2168   5.093   2.727   3.966
   81OCT    H31 2169   4.984   2.723   3.949
   81OCT    H32 2170   5.116   2.814   4.031
   81OCT     C4 2171   5.165   2.746   3.831
   81OCT    H41 2172   5.274   2.749   3.848
   81OCT    H42 2173   5.142   2.659   3.766
   81OCT     C5 2174   5.122   2.874   3.758
   81OCT    H51 2175   5.012   2.871   3.740
   81OCT    H52 2176   5.144   2.962   3.823
   81OCT     C6 2177   5.194   2.893   3.623
   81OCT    H61 2178   5.303   2.896   3.640
   81OCT    H62 2179   5.171   2.806   3.558
   81OCT     C7 2180   5.151   3.021   3.550
   81OCT    H71 2181   5.041   3.018   3.533
   81OCT    H72 2182   5.173   3.109   3.615
   81OCT     C8 2183   5.223   3.039   3.415
   81OCT    H81 2184   5.200   2.954   3.349
   81OCT    H82 2185   5.332   3.045   3.431
   81OCT     O1 2186   5.180   3.160   3.352
   81OCT    HO1 2187   5.229   3.164   3.269
   82OCT     C1 2188   3.016   0.804   1.717
   82OCT    H11 2189   3.060   0.872   1.642
   82OCT    H12 2190   3.011   0.856   1.815
   82OCT    H13 2191   3.083   0.716   1.729
   82OCT     C2 2192   2.876   0.759   1.674
   82OCT    H21 2193   2.812   0.849   1.661
   82OCT    H22 2194   2.884   0.709   1.574
   82OCT     C3 2195   2.807   0.663   1.772
   82OCT    H31 2196   2.871   0.573   1.784
   82OCT    H32 2197   2.799   0.714   1.870
   82OCT     C4 2198   2.667   0.620   1.726
   82OCT    H41 2199   2.604   0.710   1.713
   82OCT    H42 2200   2.676   0.570   1.627
   82OCT     C5 2201   2.598   0.525   1.824
   82OCT    H51 2202   2.662   0.434   1.837
   82OCT    H52 2203   2.590   0.574   1.923
   82OCT     C6 2204   2.458   0.481   1.778
   82OCT    H61 2205   2.395   0.572   1.765
   82OCT    H62 2206   2.467   0.431   1.679
   82OCT     C7 2207   2.390   0.386   1.877
   82OCT    H71 2208   2.453   0.295   1.889
   82OCT    H72 2209   2.381   0.436   1.975
   82OCT     C8 2210   2.249   0.343   1.829
   82OCT    H81 2211   2.256   0.291   1.732
   82OCT    H82 2212   2.184   0.431   1.818
   82OCT     O1 2213   2.189   0.254   1.924
   82OCT    HO1 2214   2.103   0.232   1.888
   83OCT     C1 2215   4.183   3.424   2.629
   83OCT    H11 2216   4.091   3.457   2.575
   83OCT    H12 2217   4.256   3.385   2.555
   83OCT    H13 2218   4.155   3.341   2.698
   83OCT     C2 2219   4.243   3.541   2.708
   83OCT    H21 2220   4.268   3.623   2.636
   83OCT    H22 2221   4.167   3.579   2.779
   83OCT     C3 2222   4.370   3.504   2.786
   83OCT    H31 2223   4.346   3.423   2.857
   83OCT    H32 2224   4.446   3.466   2.714
   83OCT     C4 2225   4.429   3.623   2.864
   83OCT    H41 2226   4.454   3.705   2.792
   83OCT    H42 2227   4.353   3.661   2.935
   83OCT     C5 2228   4.556   3.587   2.942
   83OCT    H51 2229   4.533   3.504   3.013
   83OCT    H52 2230   4.633   3.548   2.871
   83OCT     C6 2231   4.615   3.705   3.019
   83OCT    H61 2232   4.640   3.787   2.948
   83OCT    H62 2233   4.539   3.743   3.091
   83OCT     C7 2234   4.743   3.668   3.097
   83OCT    H71 2235   4.719   3.587   3.169
   83OCT    H72 2236   4.819   3.631   3.026
   83OCT     C8 2237   4.801   3.788   3.175
   83OCT    H81 2238   4.727   3.825   3.248
   83OCT    H82 2239   4.827   3.869   3.105
   83OCT     O1 2240   4.919   3.749   3.246
   83OCT    HO1 2241   4.949   3.828   3.291
   84OCT     C1 2242   0.221   1.850   6.143
   84OCT    H11 2243   0.235   1.960   6.141
   84OCT    H12 2244   0.115   1.828   6.166
   84OCT    H13 2245   0.284   1.808   6.225
   84OCT     C2 2246   0.261   1.788   6.009
   84OCT    H21 2247   0.198   1.834   5.929
   84OCT    H22 2248   0.367   1.814   5.987
   84OCT     C3 2249   0.245   1.636   6.003
   84OCT    H31 2250   0.308   1.591   6.083
   84OCT    H32 2251   0.139   1.610   6.024
   84OCT     C4 2252   0.285   1.576   5.867
   84OCT    H41 2253   0.222   1.621   5.788
   84OCT    H42 2254   0.391   1.601   5.847
   84OCT     C5 2255   0.269   1.424   5.861
   84OCT    H51 2256   0.332   1.377   5.941
   84OCT    H52 2257   0.163   1.397   5.882
   84OCT     C6 2258   0.310   1.364   5.726
   84OCT    H61 2259   0.247   1.409   5.646
   84OCT    H62 2260   0.416   1.389   5.705
   84OCT     C7 2261   0.294   1.211   5.720
   84OCT    H71 2262   0.357   1.165   5.800
   84OCT    H72 2263   0.188   1.185   5.741
   84OCT     C8 2264   0.334   1.152   5.584
   84OCT    H81 2265   0.440   1.175   5.563
   84OCT    H82 2266   0.271   1.195   5.504
   84OCT     O1 2267   0.318   1.010   5.584
   84OCT    HO1 2268   0.345   0.981   5.496
   85OCT     C1 2269   1.264   1.188   4.694
   85OCT    H11 2270   1.191   1.208   4.614
   85OCT    H12 2271   1.330   1.277   4.705
   85OCT    H13 2272   1.328   1.102   4.664
   85OCT     C2 2273   1.193   1.158   4.826
   85OCT    H21 2274   1.128   1.245   4.852
   85OCT    H22 2275   1.126   1.069   4.811
   85OCT     C3 2276   1.288   1.129   4.943
   85OCT    H31 2277   1.351   1.042   4.917
   85OCT    H32 2278   1.353   1.217   4.958
   85OCT     C4 2279   1.213   1.099   5.074
   85OCT    H41 2280   1.150   1.186   5.101
   85OCT    H42 2281   1.148   1.011   5.059
   85OCT     C5 2282   1.308   1.070   5.192
   85OCT    H51 2283   1.373   0.983   5.166
   85OCT    H52 2284   1.375   1.158   5.208
   85OCT     C6 2285   1.234   1.040   5.323
   85OCT    H61 2286   1.170   1.127   5.349
   85OCT    H62 2287   1.168   0.952   5.308
   85OCT     C7 2288   1.329   1.011   5.440
   85OCT    H71 2289   1.393   0.924   5.415
   85OCT    H72 2290   1.395   1.099   5.456
   85OCT     C8 2291   1.254   0.981   5.571
   85OCT    H81 2292   1.189   0.892   5.558
   85OCT    H82 2293   1.191   1.067   5.600
   85OCT     O1 2294   1.346   0.955   5.677
   85OCT    HO1 2295   1.292   0.937   5.755
   86OCT     C1 2296   3.502   1.064   5.164
   86OCT    H11 2297   3.573   1.006   5.226
   86OCT    H12 2298   3.452   0.995   5.093
   86OCT    H13 2299   3.561   1.138   5.104
   86OCT     C2 2300   3.400   1.136   5.251
   86OCT    H21 2301   3.345   1.060   5.312
   86OCT    H22 2302   3.454   1.203   5.323
   86OCT     C3 2303   3.298   1.220   5.173
   86OCT    H31 2304   3.353   1.296   5.114
   86OCT    H32 2305   3.244   1.153   5.103
   86OCT     C4 2306   3.196   1.290   5.263
   86OCT    H41 2307   3.141   1.214   5.323
   86OCT    H42 2308   3.250   1.357   5.334
   86OCT     C5 2309   3.094   1.374   5.185
   86OCT    H51 2310   3.148   1.451   5.125
   86OCT    H52 2311   3.039   1.308   5.114
   86OCT     C6 2312   2.992   1.445   5.276
   86OCT    H61 2313   2.937   1.369   5.335
   86OCT    H62 2314   3.046   1.512   5.346
   86OCT     C7 2315   2.890   1.529   5.196
   86OCT    H71 2316   2.944   1.605   5.137
   86OCT    H72 2317   2.835   1.462   5.126
   86OCT     C8 2318   2.788   1.599   5.288
   86OCT    H81 2319   2.840   1.667   5.357
   86OCT    H82 2320   2.731   1.525   5.346
   86OCT     O1 2321   2.695   1.676   5.210
   86OCT    HO1 2322   2.636   1.716   5.273
   87OCT     C1 2323   4.125   1.156   4.136
   87OCT    H11 2324   4.171   1.100   4.221
   87OCT    H12 2325   4.167   1.117   4.041
   87OCT    H13 2326   4.153   1.263   4.145
   87OCT     C2 2327   3.973   1.141   4.137
   87OCT    H21 2328   3.948   1.032   4.131
   87OCT    H22 2329   3.934   1.178   4.235
   87OCT     C3 2330   3.901   1.215   4.024
   87OCT    H31 2331   3.926   1.323   4.031
   87OCT    H32 2332   3.940   1.177   3.927
   87OCT     C4 2333   3.749   1.198   4.027
   87OCT    H41 2334   3.724   1.090   4.020
   87OCT    H42 2335   3.710   1.236   4.124
   87OCT     C5 2336   3.677   1.272   3.914
   87OCT    H51 2337   3.701   1.380   3.920
   87OCT    H52 2338   3.715   1.234   3.816
   87OCT     C6 2339   3.525   1.254   3.917
   87OCT    H61 2340   3.500   1.146   3.910
   87OCT    H62 2341   3.486   1.293   4.014
   87OCT     C7 2342   3.453   1.329   3.803
   87OCT    H71 2343   3.477   1.437   3.810
   87OCT    H72 2344   3.491   1.291   3.706
   87OCT     C8 2345   3.300   1.311   3.807
   87OCT    H81 2346   3.260   1.350   3.902
   87OCT    H82 2347   3.274   1.204   3.798
   87OCT     O1 2348   3.239   1.382   3.700
   87OCT    HO1 2349   3.144   1.366   3.709
   88OCT     C1 2350   3.264   2.985   2.399
   88OCT    H11 2351   3.191   3.058   2.440
   88OCT    H12 2352   3.233   2.958   2.295
   88OCT    H13 2353   3.260   2.892   2.460
   88OCT     C2 2354   3.405   3.043   2.399
   88OCT    H21 2355   3.405   3.137   2.339
   88OCT    H22 2356   3.432   3.070   2.504
   88OCT     C3 2357   3.512   2.948   2.344
   88OCT    H31 2358   3.512   2.855   2.404
   88OCT    H32 2359   3.485   2.921   2.239
   88OCT     C4 2360   3.653   3.009   2.345
   88OCT    H41 2361   3.653   3.102   2.284
   88OCT    H42 2362   3.680   3.036   2.449
   88OCT     C5 2363   3.760   2.914   2.290
   88OCT    H51 2364   3.761   2.820   2.350
   88OCT    H52 2365   3.734   2.887   2.185
   88OCT     C6 2366   3.901   2.975   2.291
   88OCT    H61 2367   3.901   3.068   2.230
   88OCT    H62 2368   3.928   3.002   2.395
   88OCT     C7 2369   4.008   2.880   2.235
   88OCT    H71 2370   4.009   2.786   2.296
   88OCT    H72 2371   3.982   2.853   2.131
   88OCT     C8 2372   4.149   2.941   2.237
   88OCT    H81 2373   4.178   2.967   2.341
   88OCT    H82 2374   4.151   3.033   2.176
   88OCT     O1 2375   4.245   2.850   2.185
   88OCT    HO1 2376   4.330   2.895   2.189
   89OCT     C1 2377   4.802   5.165   4.753
   89OCT    H11 2378   4.754   5.221   4.836
   89OCT    H12 2379   4.778   5.057   4.765
   89OCT    H13 2380   4.912   5.178   4.760
   89OCT     C2 2381   4.751   5.216   4.618
   89OCT    H21 2382   4.640   5.204   4.615
   89OCT    H22 2383   4.773   5.325   4.610
   89OCT     C3 2384   4.811   5.144   4.496
   89OCT    H31 2385   4.922   5.157   4.500
   89OCT    H32 2386   4.788   5.036   4.504
   89OCT     C4 2387   4.758   5.197   4.362
   89OCT    H41 2388   4.648   5.185   4.359
   89OCT    H42 2389   4.781   5.306   4.354
   89OCT     C5 2390   4.819   5.126   4.241
   89OCT    H51 2391   4.930   5.137   4.243
   89OCT    H52 2392   4.796   5.016   4.248
   89OCT     C6 2393   4.766   5.179   4.107
   89OCT    H61 2394   4.656   5.166   4.104
   89OCT    H62 2395   4.789   5.287   4.099
   89OCT     C7 2396   4.827   5.106   3.986
   89OCT    H71 2397   4.937   5.118   3.988
   89OCT    H72 2398   4.804   4.998   3.993
   89OCT     C8 2399   4.774   5.160   3.852
   89OCT    H81 2400   4.797   5.267   3.842
   89OCT    H82 2401   4.664   5.147   3.847
   89OCT     O1 2402   4.833   5.090   3.742
   89OCT    HO1 2403   4.795   5.129   3.663
   90OCT     C1 2404   3.557   3.172   4.871
   90OCT    H11 2405   3.478   3.096   4.886
   90OCT    H12 2406   3.559   3.239   4.960
   90OCT    H13 2407   3.531   3.234   4.782
   90OCT     C2 2408   3.693   3.105   4.851
   90OCT    H21 2409   3.716   3.042   4.941
   90OCT    H22 2410   3.687   3.037   4.763
   90OCT     C3 2411   3.809   3.203   4.830
   90OCT    H31 2412   3.787   3.265   4.740
   90OCT    H32 2413   3.815   3.271   4.918
   90OCT     C4 2414   3.944   3.134   4.810
   90OCT    H41 2415   3.967   3.072   4.900
   90OCT    H42 2416   3.938   3.066   4.722
   90OCT     C5 2417   4.060   3.232   4.789
   90OCT    H51 2418   4.039   3.295   4.699
   90OCT    H52 2419   4.067   3.300   4.876
   90OCT     C6 2420   4.196   3.162   4.769
   90OCT    H61 2421   4.218   3.100   4.858
   90OCT    H62 2422   4.190   3.095   4.681
   90OCT     C7 2423   4.312   3.261   4.747
   90OCT    H71 2424   4.290   3.323   4.658
   90OCT    H72 2425   4.319   3.329   4.835
   90OCT     C8 2426   4.447   3.190   4.728
   90OCT    H81 2427   4.443   3.124   4.639
   90OCT    H82 2428   4.471   3.130   4.817
   90OCT     O1 2429   4.551   3.286   4.708
   90OCT    HO1 2430   4.632   3.235   4.697
   91OCT     C1 2431   0.726   5.106   5.696
   91OCT    H11 2432   0.724   5.002   5.734
   91OCT    H12 2433   0.724   5.177   5.782
   91OCT    H13 2434   0.634   5.123   5.635
   91OCT     C2 2435   0.850   5.129   5.610
   91OCT    H21 2436   0.941   5.109   5.672
   91OCT    H22 2437   0.850   5.056   5.526
   91OCT     C3 2438   0.861   5.271   5.552
   91OCT    H31 2439   0.772   5.290   5.489
   91OCT    H32 2440   0.862   5.343   5.636
   91OCT     C4 2441   0.987   5.291   5.466
   91OCT    H41 2442   1.077   5.271   5.529
   91OCT    H42 2443   0.987   5.218   5.383
   91OCT     C5 2444   0.999   5.432   5.408
   91OCT    H51 2445   0.909   5.453   5.345
   91OCT    H52 2446   0.999   5.506   5.491
   91OCT     C6 2447   1.125   5.452   5.323
   91OCT    H61 2448   1.214   5.433   5.385
   91OCT    H62 2449   1.124   5.380   5.239
   91OCT     C7 2450   1.135   5.595   5.264
   91OCT    H71 2451   1.046   5.615   5.201
   91OCT    H72 2452   1.137   5.668   5.348
   91OCT     C8 2453   1.262   5.614   5.179
   91OCT    H81 2454   1.262   5.543   5.094
   91OCT    H82 2455   1.352   5.596   5.240
   91OCT     O1 2456   1.268   5.747   5.127
   91OCT    HO1 2457   1.349   5.751   5.076
   92OCT     C1 2458   1.732   0.473   6.399
   92OCT    H11 2459   1.734   0.560   6.468
   92OCT    H12 2460   1.636   0.419   6.413
   92OCT    H13 2461   1.815   0.403   6.427
   92OCT     C2 2462   1.747   0.519   6.254
   92OCT    H21 2463   1.664   0.590   6.230
   92OCT    H22 2464   1.843   0.574   6.244
   92OCT     C3 2465   1.745   0.405   6.151
   92OCT    H31 2466   1.828   0.334   6.175
   92OCT    H32 2467   1.649   0.350   6.161
   92OCT     C4 2468   1.760   0.454   6.007
   92OCT    H41 2469   1.677   0.524   5.983
   92OCT    H42 2470   1.856   0.508   5.997
   92OCT     C5 2471   1.758   0.340   5.904
   92OCT    H51 2472   1.841   0.268   5.927
   92OCT    H52 2473   1.662   0.284   5.913
   92OCT     C6 2474   1.773   0.388   5.759
   92OCT    H61 2475   1.690   0.459   5.736
   92OCT    H62 2476   1.869   0.443   5.749
   92OCT     C7 2477   1.771   0.274   5.657
   92OCT    H71 2478   1.854   0.203   5.679
   92OCT    H72 2479   1.675   0.219   5.666
   92OCT     C8 2480   1.786   0.323   5.512
   92OCT    H81 2481   1.882   0.377   5.500
   92OCT    H82 2482   1.703   0.392   5.487
   92OCT     O1 2483   1.784   0.214   5.420
   92OCT    HO1 2484   1.794   0.253   5.333
   93OCT     C1 2485   3.611   0.658   3.538
   93OCT    H11 2486   3.648   0.757   3.504
   93OCT    H12 2487   3.652   0.580   3.470
   93OCT    H13 2488   3.500   0.656   3.530
   93OCT     C2 2489   3.655   0.631   3.682
   93OCT    H21 2490   3.766   0.636   3.688
   93OCT    H22 2491   3.614   0.712   3.748
   93OCT     C3 2492   3.609   0.495   3.737
   93OCT    H31 2493   3.498   0.491   3.732
   93OCT    H32 2494   3.650   0.415   3.672
   93OCT     C4 2495   3.654   0.471   3.882
   93OCT    H41 2496   3.765   0.475   3.887
   93OCT    H42 2497   3.613   0.551   3.947
   93OCT     C5 2498   3.608   0.335   3.937
   93OCT    H51 2499   3.497   0.329   3.933
   93OCT    H52 2500   3.649   0.254   3.873
   93OCT     C6 2501   3.653   0.311   4.082
   93OCT    H61 2502   3.764   0.315   4.087
   93OCT    H62 2503   3.612   0.391   4.147
   93OCT     C7 2504   3.607   0.174   4.137
   93OCT    H71 2505   3.496   0.169   4.133
   93OCT    H72 2506   3.648   0.094   4.073
   93OCT     C8 2507   3.652   0.151   4.282
   93OCT    H81 2508   3.611   0.229   4.348
   93OCT    H82 2509   3.763   0.153   4.288
   93OCT     O1 2510   3.607   0.024   4.329
   93OCT    HO1 2511   3.639   0.016   4.419
   94OCT     C1 2512   3.698   3.567   5.649
   94OCT    H11 2513   3.800   3.610   5.655
   94OCT    H12 2514   3.649   3.578   5.748
   94OCT    H13 2515   3.706   3.458   5.627
   94OCT     C2 2516   3.616   3.638   5.541
   94OCT    H21 2517   3.612   3.747   5.565
   94OCT    H22 2518   3.669   3.627   5.444
   94OCT     C3 2519   3.473   3.585   5.526
   94OCT    H31 2520   3.478   3.477   5.501
   94OCT    H32 2521   3.420   3.596   5.623
   94OCT     C4 2522   3.394   3.658   5.416
   94OCT    H41 2523   3.389   3.766   5.441
   94OCT    H42 2524   3.446   3.646   5.319
   94OCT     C5 2525   3.250   3.605   5.401
   94OCT    H51 2526   3.254   3.496   5.376
   94OCT    H52 2527   3.196   3.616   5.498
   94OCT     C6 2528   3.171   3.678   5.291
   94OCT    H61 2529   3.166   3.786   5.316
   94OCT    H62 2530   3.223   3.666   5.194
   94OCT     C7 2531   3.027   3.624   5.276
   94OCT    H71 2532   3.031   3.516   5.251
   94OCT    H72 2533   2.974   3.636   5.373
   94OCT     C8 2534   2.948   3.698   5.167
   94OCT    H81 2535   2.999   3.686   5.069
   94OCT    H82 2536   2.941   3.806   5.190
   94OCT     O1 2537   2.816   3.646   5.156
   94OCT    HO1 2538   2.773   3.696   5.086
   95OCT     C1 2539   1.420   3.602   1.612
   95OCT    H11 2540   1.344   3.671   1.569
   95OCT    H12 2541   1.423   3.510   1.549
   95OCT    H13 2542   1.388   3.572   1.714
   95OCT     C2 2543   1.557   3.668   1.615
   95OCT    H21 2544   1.585   3.699   1.512
   95OCT    H22 2545   1.551   3.761   1.677
   95OCT     C3 2546   1.669   3.580   1.673
   95OCT    H31 2547   1.641   3.550   1.776
   95OCT    H32 2548   1.676   3.487   1.611
   95OCT     C4 2549   1.806   3.649   1.675
   95OCT    H41 2550   1.834   3.678   1.572
   95OCT    H42 2551   1.799   3.741   1.737
   95OCT     C5 2552   1.917   3.560   1.732
   95OCT    H51 2553   1.890   3.530   1.836
   95OCT    H52 2554   1.925   3.467   1.671
   95OCT     C6 2555   2.054   3.630   1.735
   95OCT    H61 2556   2.082   3.659   1.632
   95OCT    H62 2557   2.047   3.722   1.797
   95OCT     C7 2558   2.165   3.540   1.792
   95OCT    H71 2559   2.139   3.511   1.896
   95OCT    H72 2560   2.173   3.448   1.731
   95OCT     C8 2561   2.302   3.611   1.795
   95OCT    H81 2562   2.297   3.702   1.857
   95OCT    H82 2563   2.332   3.639   1.692
   95OCT     O1 2564   2.402   3.524   1.849
   95OCT    HO1 2565   2.484   3.575   1.847
   96OCT     C1 2566   1.109   1.923   3.679
   96OCT    H11 2567   1.144   2.013   3.624
   96OCT    H12 2568   1.060   1.853   3.608
   96OCT    H13 2569   1.033   1.955   3.754
   96OCT     C2 2570   1.226   1.855   3.749
   96OCT    H21 2571   1.302   1.826   3.673
   96OCT    H22 2572   1.275   1.928   3.819
   96OCT     C3 2573   1.188   1.730   3.830
   96OCT    H31 2574   1.113   1.759   3.906
   96OCT    H32 2575   1.141   1.657   3.760
   96OCT     C4 2576   1.308   1.663   3.899
   96OCT    H41 2577   1.383   1.634   3.822
   96OCT    H42 2578   1.355   1.736   3.968
   96OCT     C5 2579   1.269   1.538   3.979
   96OCT    H51 2580   1.194   1.566   4.056
   96OCT    H52 2581   1.221   1.464   3.910
   96OCT     C6 2582   1.389   1.472   4.048
   96OCT    H61 2583   1.464   1.443   3.971
   96OCT    H62 2584   1.436   1.545   4.117
   96OCT     C7 2585   1.350   1.346   4.128
   96OCT    H71 2586   1.275   1.374   4.206
   96OCT    H72 2587   1.303   1.272   4.060
   96OCT     C8 2588   1.470   1.280   4.197
   96OCT    H81 2589   1.517   1.351   4.268
   96OCT    H82 2590   1.545   1.249   4.122
   96OCT     O1 2591   1.430   1.165   4.270
   96OCT    HO1 2592   1.509   1.129   4.310
   97OCT     C1 2593   0.656   0.808   2.217
   97OCT    H11 2594   0.567   0.791   2.281
   97OCT    H12 2595   0.747   0.789   2.278
   97OCT    H13 2596   0.658   0.914   2.185
   97OCT     C2 2597   0.653   0.715   2.096
   97OCT    H21 2598   0.649   0.609   2.131
   97OCT    H22 2599   0.559   0.734   2.038
   97OCT     C3 2600   0.773   0.731   2.001
   97OCT    H31 2601   0.776   0.836   1.966
   97OCT    H32 2602   0.866   0.711   2.059
   97OCT     C4 2603   0.767   0.636   1.880
   97OCT    H41 2604   0.764   0.531   1.916
   97OCT    H42 2605   0.675   0.656   1.823
   97OCT     C5 2606   0.888   0.652   1.786
   97OCT    H51 2607   0.892   0.757   1.750
   97OCT    H52 2608   0.982   0.632   1.843
   97OCT     C6 2609   0.882   0.558   1.665
   97OCT    H61 2610   0.879   0.453   1.701
   97OCT    H62 2611   0.789   0.578   1.608
   97OCT     C7 2612   1.003   0.574   1.571
   97OCT    H71 2613   1.006   0.679   1.534
   97OCT    H72 2614   1.096   0.553   1.628
   97OCT     C8 2615   0.996   0.479   1.450
   97OCT    H81 2616   0.905   0.499   1.391
   97OCT    H82 2617   0.995   0.374   1.484
   97OCT     O1 2618   1.110   0.497   1.365
   97OCT    HO1 2619   1.099   0.435   1.293
   98OCT     C1 2620   4.999   2.230   5.386
   98OCT    H11 2621   4.965   2.297   5.304
   98OCT    H12 2622   5.035   2.292   5.470
   98OCT    H13 2623   5.084   2.168   5.349
   98OCT     C2 2624   4.884   2.139   5.432
   98OCT    H21 2625   4.799   2.203   5.465
   98OCT    H22 2626   4.848   2.080   5.344
   98OCT     C3 2627   4.921   2.043   5.545
   98OCT    H31 2628   5.005   1.979   5.511
   98OCT    H32 2629   4.956   2.103   5.632
   98OCT     C4 2630   4.804   1.954   5.589
   98OCT    H41 2631   4.720   2.018   5.623
   98OCT    H42 2632   4.769   1.894   5.502
   98OCT     C5 2633   4.841   1.857   5.702
   98OCT    H51 2634   4.926   1.792   5.669
   98OCT    H52 2635   4.877   1.916   5.790
   98OCT     C6 2636   4.724   1.768   5.746
   98OCT    H61 2637   4.640   1.832   5.780
   98OCT    H62 2638   4.689   1.708   5.659
   98OCT     C7 2639   4.762   1.671   5.860
   98OCT    H71 2640   4.846   1.606   5.826
   98OCT    H72 2641   4.797   1.730   5.948
   98OCT     C8 2642   4.645   1.582   5.903
   98OCT    H81 2643   4.610   1.521   5.818
   98OCT    H82 2644   4.561   1.645   5.939
   98OCT     O1 2645   4.684   1.494   6.009
   98OCT    HO1 2646   4.606   1.443   6.030
   99OCT     C1 2647   4.155   3.818   2.955
   99OCT    H11 2648   4.225   3.747   3.002
   99OCT    H12 2649   4.211   3.908   2.923
   99OCT    H13 2650   4.080   3.850   3.030
   99OCT     C2 2651   4.086   3.753   2.835
   99OCT    H21 2652   4.164   3.721   2.762
   99OCT    H22 2653   4.032   3.662   2.869
   99OCT     C3 2654   3.986   3.845   2.762
   99OCT    H31 2655   3.908   3.877   2.835
   99OCT    H32 2656   4.040   3.935   2.727
   99OCT     C4 2657   3.918   3.777   2.642
   99OCT    H41 2658   3.996   3.745   2.570
   99OCT    H42 2659   3.864   3.687   2.677
   99OCT     C5 2660   3.819   3.869   2.570
   99OCT    H51 2661   3.740   3.902   2.642
   99OCT    H52 2662   3.872   3.960   2.535
   99OCT     C6 2663   3.751   3.801   2.450
   99OCT    H61 2664   3.829   3.769   2.377
   99OCT    H62 2665   3.697   3.711   2.485
   99OCT     C7 2666   3.651   3.893   2.378
   99OCT    H71 2667   3.573   3.925   2.450
   99OCT    H72 2668   3.705   3.984   2.342
   99OCT     C8 2669   3.584   3.825   2.258
   99OCT    H81 2670   3.528   3.735   2.291
   99OCT    H82 2671   3.660   3.794   2.184
   99OCT     O1 2672   3.492   3.914   2.194
   99OCT    HO1 2673   3.454   3.864   2.121
  100OCT     C1 2674   3.048   5.111   5.879
  100OCT    H11 2675   3.085   5.149   5.976
  100OCT    H12 2676   3.121   5.037   5.838
  100OCT    H13 2677   3.042   5.196   5.807
  100OCT     C2 2678   2.911   5.046   5.895
  100OCT    H21 2679   2.919   4.963   5.969
  100OCT    H22 2680   2.840   5.121   5.938
  100OCT     C3 2681   2.851   4.991   5.765
  100OCT    H31 2682   2.842   5.074   5.692
  100OCT    H32 2683   2.921   4.915   5.723
  100OCT     C4 2684   2.713   4.926   5.785
  100OCT    H41 2685   2.722   4.843   5.857
  100OCT    H42 2686   2.643   5.001   5.826
  100OCT     C5 2687   2.654   4.871   5.654
  100OCT    H51 2688   2.644   4.954   5.580
  100OCT    H52 2689   2.723   4.795   5.611
  100OCT     C6 2690   2.516   4.806   5.674
  100OCT    H61 2691   2.525   4.723   5.747
  100OCT    H62 2692   2.446   4.881   5.716
  100OCT     C7 2693   2.457   4.751   5.543
  100OCT    H71 2694   2.447   4.834   5.470
  100OCT    H72 2695   2.526   4.675   5.501
  100OCT     C8 2696   2.318   4.686   5.564
  100OCT    H81 2697   2.247   4.761   5.604
  100OCT    H82 2698   2.326   4.602   5.635
  100OCT     O1 2699   2.267   4.636   5.440
  100OCT    HO1 2700   2.182   4.598   5.461
  101OCT     C1 2701  -0.150   1.729   2.256
  101OCT    H11 2702  -0.210   1.758   2.344
  101OCT    H12 2703  -0.164   1.805   2.176
  101OCT    H13 2704  -0.188   1.631   2.218
  101OCT     C2 2705  -0.002   1.717   2.293
  101OCT    H21 2706   0.032   1.816   2.333
  101OCT    H22 2707   0.009   1.642   2.375
  101OCT     C3 2708   0.089   1.677   2.176
  101OCT    H31 2709   0.055   1.579   2.137
  101OCT    H32 2710   0.079   1.752   2.096
  101OCT     C4 2711   0.237   1.666   2.217
  101OCT    H41 2712   0.271   1.765   2.256
  101OCT    H42 2713   0.247   1.591   2.298
  101OCT     C5 2714   0.328   1.626   2.100
  101OCT    H51 2715   0.295   1.527   2.060
  101OCT    H52 2716   0.319   1.701   2.018
  101OCT     C6 2717   0.476   1.615   2.141
  101OCT    H61 2718   0.510   1.713   2.180
  101OCT    H62 2719   0.487   1.540   2.221
  101OCT     C7 2720   0.567   1.575   2.023
  101OCT    H71 2721   0.534   1.476   1.984
  101OCT    H72 2722   0.558   1.650   1.942
  101OCT     C8 2723   0.715   1.564   2.064
  101OCT    H81 2724   0.727   1.488   2.144
  101OCT    H82 2725   0.751   1.662   2.102
  101OCT     O1 2726   0.796   1.526   1.953
  101OCT    HO1 2727   0.886   1.522   1.986
  102OCT     C1 2728   5.258   1.638   0.686
  102OCT    H11 2729   5.204   1.677   0.598
  102OCT    H12 2730   5.365   1.670   0.680
  102OCT    H13 2731   5.255   1.527   0.683
  102OCT     C2 2732   5.195   1.689   0.816
  102OCT    H21 2733   5.197   1.800   0.815
  102OCT    H22 2734   5.088   1.657   0.818
  102OCT     C3 2735   5.264   1.639   0.944
  102OCT    H31 2736   5.261   1.528   0.944
  102OCT    H32 2737   5.370   1.671   0.941
  102OCT     C4 2738   5.198   1.691   1.072
  102OCT    H41 2739   5.201   1.802   1.072
  102OCT    H42 2740   5.092   1.659   1.074
  102OCT     C5 2741   5.267   1.642   1.200
  102OCT    H51 2742   5.265   1.530   1.201
  102OCT    H52 2743   5.374   1.673   1.198
  102OCT     C6 2744   5.201   1.694   1.328
  102OCT    H61 2745   5.204   1.805   1.328
  102OCT    H62 2746   5.095   1.662   1.331
  102OCT     C7 2747   5.271   1.644   1.456
  102OCT    H71 2748   5.268   1.533   1.457
  102OCT    H72 2749   5.377   1.676   1.455
  102OCT     C8 2750   5.204   1.697   1.584
  102OCT    H81 2751   5.099   1.664   1.589
  102OCT    H82 2752   5.208   1.807   1.586
  102OCT     O1 2753   5.272   1.648   1.700
  102OCT    HO1 2754   5.225   1.685   1.775
  103OCT     C1 2755   5.140   5.792   5.615
  103OCT    H11 2756   5.232   5.850   5.636
  103OCT    H12 2757   5.130   5.780   5.505
  103OCT    H13 2758   5.052   5.851   5.650
  103OCT     C2 2759   5.144   5.656   5.684
  103OCT    H21 2760   5.234   5.601   5.648
  103OCT    H22 2761   5.157   5.672   5.794
  103OCT     C3 2762   5.020   5.569   5.661
  103OCT    H31 2763   4.931   5.625   5.697
  103OCT    H32 2764   5.009   5.553   5.551
  103OCT     C4 2765   5.027   5.433   5.731
  103OCT    H41 2766   5.116   5.378   5.695
  103OCT    H42 2767   5.039   5.450   5.841
  103OCT     C5 2768   4.903   5.347   5.708
  103OCT    H51 2769   4.813   5.401   5.744
  103OCT    H52 2770   4.890   5.330   5.598
  103OCT     C6 2771   4.910   5.211   5.779
  103OCT    H61 2772   4.999   5.155   5.742
  103OCT    H62 2773   4.922   5.227   5.888
  103OCT     C7 2774   4.785   5.124   5.755
  103OCT    H71 2775   4.696   5.178   5.791
  103OCT    H72 2776   4.773   5.107   5.646
  103OCT     C8 2777   4.793   4.988   5.826
  103OCT    H81 2778   4.803   5.002   5.935
  103OCT    H82 2779   4.881   4.931   5.790
  103OCT     O1 2780   4.676   4.911   5.801
  103OCT    HO1 2781   4.688   4.828   5.848
  104OCT     C1 2782   0.825   4.749   5.284
  104OCT    H11 2783   0.740   4.778   5.349
  104OCT    H12 2784   0.850   4.643   5.303
  104OCT    H13 2785   0.913   4.811   5.312
  104OCT     C2 2786   0.789   4.771   5.137
  104OCT    H21 2787   0.699   4.710   5.113
  104OCT    H22 2788   0.762   4.878   5.122
  104OCT     C3 2789   0.901   4.734   5.039
  104OCT    H31 2790   0.990   4.795   5.063
  104OCT    H32 2791   0.927   4.627   5.054
  104OCT     C4 2792   0.862   4.757   4.892
  104OCT    H41 2793   0.773   4.696   4.868
  104OCT    H42 2794   0.836   4.864   4.877
  104OCT     C5 2795   0.974   4.720   4.794
  104OCT    H51 2796   1.065   4.781   4.817
  104OCT    H52 2797   1.001   4.613   4.808
  104OCT     C6 2798   0.936   4.743   4.647
  104OCT    H61 2799   0.846   4.682   4.623
  104OCT    H62 2800   0.910   4.850   4.632
  104OCT     C7 2801   1.048   4.706   4.549
  104OCT    H71 2802   1.138   4.767   4.572
  104OCT    H72 2803   1.075   4.599   4.563
  104OCT     C8 2804   1.009   4.729   4.402
  104OCT    H81 2805   0.984   4.835   4.386
  104OCT    H82 2806   0.921   4.667   4.376
  104OCT     O1 2807   1.116   4.693   4.315
  104OCT    HO1 2808   1.084   4.710   4.226
  105OCT     C1 2809   0.895   1.923  -0.174
  105OCT    H11 2810   0.859   1.932  -0.278
  105OCT    H12 2811   0.984   1.989  -0.161
  105OCT    H13 2812   0.928   1.818  -0.156
  105OCT     C2 2813   0.785   1.962  -0.075
  105OCT    H21 2814   0.753   2.066  -0.096
  105OCT    H22 2815   0.697   1.896  -0.092
  105OCT     C3 2816   0.827   1.952   0.073
  105OCT    H31 2817   0.858   1.847   0.094
  105OCT    H32 2818   0.914   2.018   0.089
  105OCT     C4 2819   0.714   1.991   0.169
  105OCT    H41 2820   0.683   2.096   0.148
  105OCT    H42 2821   0.627   1.925   0.153
  105OCT     C5 2822   0.755   1.981   0.317
  105OCT    H51 2823   0.787   1.877   0.339
  105OCT    H52 2824   0.843   2.048   0.335
  105OCT     C6 2825   0.643   2.021   0.414
  105OCT    H61 2826   0.612   2.126   0.393
  105OCT    H62 2827   0.555   1.955   0.397
  105OCT     C7 2828   0.685   2.011   0.561
  105OCT    H71 2829   0.716   1.906   0.583
  105OCT    H72 2830   0.772   2.077   0.579
  105OCT     C8 2831   0.572   2.051   0.658
  105OCT    H81 2832   0.485   1.984   0.643
  105OCT    H82 2833   0.541   2.155   0.639
  105OCT     O1 2834   0.615   2.040   0.793
  105OCT    HO1 2835   0.540   2.066   0.847
  106OCT     C1 2836   5.466   2.416   1.105
  106OCT    H11 2837   5.360   2.398   1.076
  106OCT    H12 2838   5.532   2.368   1.029
  106OCT    H13 2839   5.485   2.366   1.203
  106OCT     C2 2840   5.495   2.565   1.114
  106OCT    H21 2841   5.473   2.612   1.015
  106OCT    H22 2842   5.426   2.611   1.189
  106OCT     C3 2843   5.640   2.599   1.154
  106OCT    H31 2844   5.661   2.553   1.252
  106OCT    H32 2845   5.708   2.554   1.079
  106OCT     C4 2846   5.666   2.750   1.162
  106OCT    H41 2847   5.645   2.796   1.064
  106OCT    H42 2848   5.598   2.795   1.237
  106OCT     C5 2849   5.811   2.783   1.202
  106OCT    H51 2850   5.833   2.737   1.301
  106OCT    H52 2851   5.881   2.739   1.127
  106OCT     C6 2852   5.838   2.934   1.210
  106OCT    H61 2853   5.816   2.981   1.112
  106OCT    H62 2854   5.769   2.979   1.285
  106OCT     C7 2855   5.983   2.967   1.250
  106OCT    H71 2856   6.005   2.922   1.349
  106OCT    H72 2857   6.052   2.923   1.175
  106OCT     C8 2858   6.009   3.119   1.258
  106OCT    H81 2859   5.942   3.165   1.334
  106OCT    H82 2860   5.989   3.166   1.160
  106OCT     O1 2861   6.144   3.145   1.295
  106OCT    HO1 2862   6.152   3.240   1.298
  107OCT     C1 2863   5.400   5.656   3.062
  107OCT    H11 2864   5.431   5.612   3.159
  107OCT    H12 2865   5.343   5.749   3.082
  107OCT    H13 2866   5.332   5.584   3.010
  107OCT     C2 2867   5.522   5.685   2.975
  107OCT    H21 2868   5.589   5.755   3.030
  107OCT    H22 2869   5.578   5.590   2.959
  107OCT     C3 2870   5.488   5.746   2.838
  107OCT    H31 2871   5.422   5.676   2.783
  107OCT    H32 2872   5.433   5.841   2.854
  107OCT     C4 2873   5.613   5.775   2.753
  107OCT    H41 2874   5.679   5.845   2.808
  107OCT    H42 2875   5.668   5.680   2.736
  107OCT     C5 2876   5.579   5.836   2.616
  107OCT    H51 2877   5.513   5.766   2.560
  107OCT    H52 2878   5.523   5.931   2.631
  107OCT     C6 2879   5.704   5.865   2.531
  107OCT    H61 2880   5.770   5.935   2.586
  107OCT    H62 2881   5.759   5.770   2.514
  107OCT     C7 2882   5.669   5.926   2.394
  107OCT    H71 2883   5.604   5.856   2.338
  107OCT    H72 2884   5.614   6.021   2.409
  107OCT     C8 2885   5.795   5.955   2.309
  107OCT    H81 2886   5.850   5.861   2.290
  107OCT    H82 2887   5.861   6.026   2.362
  107OCT     O1 2888   5.758   6.011   2.183
  107OCT    HO1 2889   5.841   6.026   2.136
  108OCT     C1 2890   5.290   0.196   3.237
  108OCT    H11 2891   5.352   0.201   3.329
  108OCT    H12 2892   5.221   0.283   3.237
  108OCT    H13 2893   5.229   0.103   3.241
  108OCT     C2 2894   5.378   0.197   3.113
  108OCT    H21 2895   5.440   0.290   3.113
  108OCT    H22 2896   5.448   0.110   3.117
  108OCT     C3 2897   5.301   0.191   2.980
  108OCT    H31 2898   5.240   0.098   2.980
  108OCT    H32 2899   5.232   0.277   2.976
  108OCT     C4 2900   5.392   0.192   2.857
  108OCT    H41 2901   5.453   0.285   2.858
  108OCT    H42 2902   5.461   0.105   2.862
  108OCT     C5 2903   5.315   0.186   2.725
  108OCT    H51 2904   5.253   0.093   2.723
  108OCT    H52 2905   5.245   0.272   2.719
  108OCT     C6 2906   5.406   0.187   2.601
  108OCT    H61 2907   5.467   0.280   2.602
  108OCT    H62 2908   5.475   0.100   2.606
  108OCT     C7 2909   5.327   0.181   2.469
  108OCT    H71 2910   5.267   0.088   2.467
  108OCT    H72 2911   5.258   0.267   2.463
  108OCT     C8 2912   5.419   0.182   2.345
  108OCT    H81 2913   5.488   0.095   2.348
  108OCT    H82 2914   5.479   0.275   2.344
  108OCT     O1 2915   5.343   0.176   2.225
  108OCT    HO1 2916   5.406   0.177   2.154
  109OCT     C1 2917   5.161   1.515   3.069
  109OCT    H11 2918   5.206   1.580   2.991
  109OCT    H12 2919   5.206   1.414   3.061
  109OCT    H13 2920   5.052   1.507   3.050
  109OCT     C2 2921   5.187   1.573   3.208
  109OCT    H21 2922   5.297   1.583   3.223
  109OCT    H22 2923   5.144   1.676   3.213
  109OCT     C3 2924   5.129   1.490   3.323
  109OCT    H31 2925   5.019   1.481   3.308
  109OCT    H32 2926   5.173   1.388   3.319
  109OCT     C4 2927   5.156   1.550   3.461
  109OCT    H41 2928   5.266   1.559   3.476
  109OCT    H42 2929   5.112   1.652   3.466
  109OCT     C5 2930   5.098   1.467   3.576
  109OCT    H51 2931   4.988   1.457   3.563
  109OCT    H52 2932   5.142   1.364   3.573
  109OCT     C6 2933   5.126   1.528   3.715
  109OCT    H61 2934   5.235   1.536   3.730
  109OCT    H62 2935   5.082   1.629   3.719
  109OCT     C7 2936   5.067   1.443   3.830
  109OCT    H71 2937   4.957   1.435   3.816
  109OCT    H72 2938   5.111   1.341   3.826
  109OCT     C8 2939   5.095   1.505   3.968
  109OCT    H81 2940   5.050   1.606   3.975
  109OCT    H82 2941   5.204   1.513   3.985
  109OCT     O1 2942   5.039   1.424   4.071
  109OCT    HO1 2943   5.060   1.468   4.154
  110OCT     C1 2944   1.681   0.292   1.251
  110OCT    H11 2945   1.662   0.188   1.216
  110OCT    H12 2946   1.618   0.361   1.191
  110OCT    H13 2947   1.787   0.317   1.232
  110OCT     C2 2948   1.649   0.305   1.399
  110OCT    H21 2949   1.542   0.277   1.416
  110OCT    H22 2950   1.712   0.233   1.457
  110OCT     C3 2951   1.671   0.446   1.456
  110OCT    H31 2952   1.777   0.474   1.440
  110OCT    H32 2953   1.608   0.517   1.399
  110OCT     C4 2954   1.638   0.457   1.606
  110OCT    H41 2955   1.532   0.429   1.621
  110OCT    H42 2956   1.701   0.386   1.662
  110OCT     C5 2957   1.660   0.598   1.662
  110OCT    H51 2958   1.767   0.627   1.647
  110OCT    H52 2959   1.597   0.670   1.606
  110OCT     C6 2960   1.627   0.609   1.812
  110OCT    H61 2961   1.521   0.581   1.828
  110OCT    H62 2962   1.691   0.537   1.868
  110OCT     C7 2963   1.650   0.750   1.868
  110OCT    H71 2964   1.756   0.779   1.853
  110OCT    H72 2965   1.586   0.822   1.812
  110OCT     C8 2966   1.616   0.760   2.018
  110OCT    H81 2967   1.680   0.691   2.076
  110OCT    H82 2968   1.510   0.734   2.035
  110OCT     O1 2969   1.639   0.893   2.066
  110OCT    HO1 2970   1.616   0.891   2.159
  111OCT     C1 2971   5.179   4.077   0.906
  111OCT    H11 2972   5.128   4.129   0.990
  111OCT    H12 2973   5.106   4.009   0.857
  111OCT    H13 2974   5.261   4.016   0.947
  111OCT     C2 2975   5.232   4.179   0.805
  111OCT    H21 2976   5.147   4.240   0.767
  111OCT    H22 2977   5.303   4.247   0.857
  111OCT     C3 2978   5.304   4.116   0.684
  111OCT    H31 2979   5.389   4.055   0.722
  111OCT    H32 2980   5.233   4.048   0.632
  111OCT     C4 2981   5.357   4.220   0.585
  111OCT    H41 2982   5.272   4.281   0.547
  111OCT    H42 2983   5.428   4.287   0.637
  111OCT     C5 2984   5.429   4.157   0.464
  111OCT    H51 2985   5.514   4.095   0.501
  111OCT    H52 2986   5.358   4.088   0.411
  111OCT     C6 2987   5.481   4.261   0.365
  111OCT    H61 2988   5.397   4.322   0.327
  111OCT    H62 2989   5.553   4.328   0.417
  111OCT     C7 2990   5.553   4.197   0.244
  111OCT    H71 2991   5.639   4.136   0.281
  111OCT    H72 2992   5.483   4.129   0.191
  111OCT     C8 2993   5.606   4.302   0.145
  111OCT    H81 2994   5.678   4.369   0.195
  111OCT    H82 2995   5.522   4.362   0.105
  111OCT     O1 2996   5.672   4.239   0.035
  111OCT    HO1 2997   5.702   4.309  -0.022
  112OCT     C1 2998   4.369   3.439   1.561
  112OCT    H11 2999   4.337   3.371   1.643
  112OCT    H12 3000   4.395   3.538   1.605
  112OCT    H13 3001   4.282   3.454   1.492
  112OCT     C2 3002   4.488   3.381   1.485
  112OCT    H21 3003   4.572   3.365   1.557
  112OCT    H22 3004   4.459   3.281   1.444
  112OCT     C3 3005   4.538   3.469   1.370
  112OCT    H31 3006   4.455   3.484   1.298
  112OCT    H32 3007   4.567   3.568   1.411
  112OCT     C4 3008   4.658   3.408   1.295
  112OCT    H41 3009   4.741   3.393   1.367
  112OCT    H42 3010   4.629   3.309   1.254
  112OCT     C5 3011   4.708   3.496   1.180
  112OCT    H51 3012   4.625   3.512   1.107
  112OCT    H52 3013   4.738   3.596   1.220
  112OCT     C6 3014   4.828   3.435   1.106
  112OCT    H61 3015   4.911   3.420   1.177
  112OCT    H62 3016   4.799   3.336   1.065
  112OCT     C7 3017   4.878   3.524   0.990
  112OCT    H71 3018   4.795   3.539   0.918
  112OCT    H72 3019   4.908   3.623   1.031
  112OCT     C8 3020   4.998   3.462   0.916
  112OCT    H81 3021   4.970   3.364   0.873
  112OCT    H82 3022   5.082   3.448   0.986
  112OCT     O1 3023   5.041   3.547   0.810
  112OCT    HO1 3024   5.115   3.503   0.769
  113OCT     C1 3025   1.540   1.125   1.343
  113OCT    H11 3026   1.555   1.056   1.257
  113OCT    H12 3027   1.476   1.209   1.310
  113OCT    H13 3028   1.639   1.167   1.371
  113OCT     C2 3029   1.477   1.052   1.461
  113OCT    H21 3030   1.379   1.009   1.429
  113OCT    H22 3031   1.543   0.967   1.490
  113OCT     C3 3032   1.454   1.140   1.584
  113OCT    H31 3033   1.551   1.182   1.617
  113OCT    H32 3034   1.387   1.225   1.555
  113OCT     C4 3035   1.390   1.065   1.702
  113OCT    H41 3036   1.292   1.023   1.669
  113OCT    H42 3037   1.456   0.980   1.731
  113OCT     C5 3038   1.366   1.153   1.825
  113OCT    H51 3039   1.464   1.196   1.858
  113OCT    H52 3040   1.300   1.238   1.797
  113OCT     C6 3041   1.303   1.077   1.942
  113OCT    H61 3042   1.205   1.035   1.910
  113OCT    H62 3043   1.369   0.993   1.971
  113OCT     C7 3044   1.280   1.166   2.066
  113OCT    H71 3045   1.377   1.208   2.099
  113OCT    H72 3046   1.213   1.251   2.037
  113OCT     C8 3047   1.216   1.090   2.183
  113OCT    H81 3048   1.281   1.006   2.214
  113OCT    H82 3049   1.117   1.049   2.152
  113OCT     O1 3050   1.196   1.176   2.295
  113OCT    HO1 3051   1.156   1.122   2.363
  114OCT     C1 3052   2.646   4.053   6.286
  114OCT    H11 3053   2.610   3.998   6.375
  114OCT    H12 3054   2.756   4.036   6.276
  114OCT    H13 3055   2.630   4.162   6.303
  114OCT     C2 3056   2.573   4.007   6.161
  114OCT    H21 3057   2.589   3.897   6.148
  114OCT    H22 3058   2.463   4.023   6.176
  114OCT     C3 3059   2.616   4.078   6.032
  114OCT    H31 3060   2.599   4.187   6.045
  114OCT    H32 3061   2.725   4.061   6.018
  114OCT     C4 3062   2.540   4.030   5.908
  114OCT    H41 3063   2.557   3.921   5.895
  114OCT    H42 3064   2.432   4.047   5.922
  114OCT     C5 3065   2.584   4.101   5.779
  114OCT    H51 3066   2.568   4.211   5.791
  114OCT    H52 3067   2.693   4.085   5.763
  114OCT     C6 3068   2.508   4.053   5.655
  114OCT    H61 3069   2.525   3.944   5.642
  114OCT    H62 3070   2.400   4.070   5.669
  114OCT     C7 3071   2.553   4.125   5.526
  114OCT    H71 3072   2.536   4.234   5.538
  114OCT    H72 3073   2.661   4.108   5.510
  114OCT     C8 3074   2.476   4.076   5.402
  114OCT    H81 3075   2.368   4.093   5.414
  114OCT    H82 3076   2.493   3.967   5.387
  114OCT     O1 3077   2.520   4.145   5.285
  114OCT    HO1 3078   2.469   4.109   5.212
  115OCT     C1 3079   2.298   2.758   2.899
  115OCT    H11 3080   2.342   2.781   2.800
  115OCT    H12 3081   2.190   2.784   2.898
  115OCT    H13 3082   2.348   2.821   2.976
  115OCT     C2 3083   2.316   2.610   2.932
  115OCT    H21 3084   2.268   2.549   2.852
  115OCT    H22 3085   2.425   2.586   2.930
  115OCT     C3 3086   2.259   2.568   3.068
  115OCT    H31 3087   2.308   2.628   3.147
  115OCT    H32 3088   2.150   2.591   3.069
  115OCT     C4 3089   2.278   2.419   3.098
  115OCT    H41 3090   2.229   2.358   3.019
  115OCT    H42 3091   2.387   2.395   3.097
  115OCT     C5 3092   2.221   2.377   3.234
  115OCT    H51 3093   2.270   2.437   3.315
  115OCT    H52 3094   2.112   2.400   3.236
  115OCT     C6 3095   2.241   2.227   3.265
  115OCT    H61 3096   2.191   2.167   3.185
  115OCT    H62 3097   2.349   2.204   3.264
  115OCT     C7 3098   2.183   2.186   3.401
  115OCT    H71 3099   2.232   2.245   3.481
  115OCT    H72 3100   2.074   2.209   3.403
  115OCT     C8 3101   2.203   2.036   3.431
  115OCT    H81 3102   2.311   2.012   3.432
  115OCT    H82 3103   2.153   1.975   3.353
  115OCT     O1 3104   2.148   2.002   3.558
  115OCT    HO1 3105   2.164   1.908   3.569
  116OCT     C1 3106   0.688  -0.373   4.933
  116OCT    H11 3107   0.646  -0.464   4.887
  116OCT    H12 3108   0.787  -0.352   4.887
  116OCT    H13 3109   0.704  -0.392   5.042
  116OCT     C2 3110   0.594  -0.254   4.913
  116OCT    H21 3111   0.579  -0.239   4.803
  116OCT    H22 3112   0.495  -0.278   4.958
  116OCT     C3 3113   0.645  -0.122   4.974
  116OCT    H31 3114   0.660  -0.137   5.083
  116OCT    H32 3115   0.743  -0.098   4.928
  116OCT     C4 3116   0.549  -0.005   4.952
  116OCT    H41 3117   0.534   0.010   4.843
  116OCT    H42 3118   0.450  -0.029   4.997
  116OCT     C5 3119   0.599   0.127   5.013
  116OCT    H51 3120   0.615   0.113   5.122
  116OCT    H52 3121   0.698   0.152   4.968
  116OCT     C6 3122   0.503   0.244   4.991
  116OCT    H61 3123   0.488   0.259   4.882
  116OCT    H62 3124   0.404   0.220   5.036
  116OCT     C7 3125   0.554   0.376   5.052
  116OCT    H71 3126   0.569   0.362   5.161
  116OCT    H72 3127   0.652   0.401   5.007
  116OCT     C8 3128   0.457   0.493   5.029
  116OCT    H81 3129   0.359   0.471   5.076
  116OCT    H82 3130   0.443   0.510   4.921
  116OCT     O1 3131   0.508   0.613   5.088
  116OCT    HO1 3132   0.443   0.681   5.070
  117OCT     C1 3133   2.032   4.043   4.316
  117OCT    H11 3134   2.011   4.075   4.212
  117OCT    H12 3135   2.117   4.105   4.355
  117OCT    H13 3136   2.065   3.937   4.315
  117OCT     C2 3137   1.909   4.060   4.405
  117OCT    H21 3138   1.877   4.168   4.402
  117OCT    H22 3139   1.826   4.000   4.362
  117OCT     C3 3140   1.930   4.019   4.551
  117OCT    H31 3141   1.961   3.912   4.553
  117OCT    H32 3142   2.012   4.080   4.593
  117OCT     C4 3143   1.804   4.037   4.637
  117OCT    H41 3144   1.773   4.144   4.635
  117OCT    H42 3145   1.722   3.976   4.595
  117OCT     C5 3146   1.825   3.996   4.783
  117OCT    H51 3147   1.856   3.889   4.787
  117OCT    H52 3148   1.908   4.057   4.827
  117OCT     C6 3149   1.699   4.014   4.870
  117OCT    H61 3150   1.669   4.121   4.867
  117OCT    H62 3151   1.617   3.953   4.827
  117OCT     C7 3152   1.721   3.972   5.016
  117OCT    H71 3153   1.751   3.866   5.020
  117OCT    H72 3154   1.803   4.033   5.060
  117OCT     C8 3155   1.595   3.991   5.102
  117OCT    H81 3156   1.512   3.929   5.062
  117OCT    H82 3157   1.564   4.097   5.102
  117OCT     O1 3158   1.619   3.951   5.237
  117OCT    HO1 3159   1.537   3.965   5.284
  118OCT     C1 3160   0.979   5.623  -0.108
  118OCT    H11 3161   1.007   5.659  -0.209
  118OCT    H12 3162   0.880   5.572  -0.115
  118OCT    H13 3163   0.967   5.711  -0.040
  118OCT     C2 3164   1.085   5.528  -0.053
  118OCT    H21 3165   1.096   5.442  -0.124
  118OCT    H22 3166   1.183   5.581  -0.050
  118OCT     C3 3167   1.054   5.472   0.086
  118OCT    H31 3168   1.044   5.557   0.157
  118OCT    H32 3169   0.957   5.418   0.082
  118OCT     C4 3170   1.163   5.376   0.138
  118OCT    H41 3171   1.173   5.291   0.068
  118OCT    H42 3172   1.260   5.430   0.142
  118OCT     C5 3173   1.132   5.321   0.278
  118OCT    H51 3174   1.121   5.406   0.350
  118OCT    H52 3175   1.034   5.267   0.275
  118OCT     C6 3176   1.240   5.225   0.330
  118OCT    H61 3177   1.250   5.140   0.259
  118OCT    H62 3178   1.337   5.279   0.334
  118OCT     C7 3179   1.209   5.170   0.470
  118OCT    H71 3180   1.199   5.255   0.541
  118OCT    H72 3181   1.112   5.116   0.467
  118OCT     C8 3182   1.318   5.074   0.522
  118OCT    H81 3183   1.415   5.127   0.527
  118OCT    H82 3184   1.328   4.988   0.453
  118OCT     O1 3185   1.285   5.025   0.651
  118OCT    HO1 3186   1.356   4.967   0.677
  119OCT     C1 3187   0.064   5.598   5.153
  119OCT    H11 3188  -0.031   5.581   5.098
  119OCT    H12 3189   0.127   5.667   5.093
  119OCT    H13 3190   0.118   5.501   5.162
  119OCT     C2 3191   0.037   5.657   5.291
  119OCT    H21 3192  -0.019   5.752   5.279
  119OCT    H22 3193  -0.029   5.586   5.348
  119OCT     C3 3194   0.163   5.683   5.374
  119OCT    H31 3195   0.218   5.588   5.387
  119OCT    H32 3196   0.228   5.754   5.318
  119OCT     C4 3197   0.133   5.742   5.513
  119OCT    H41 3198   0.078   5.838   5.501
  119OCT    H42 3199   0.068   5.672   5.569
  119OCT     C5 3200   0.259   5.769   5.596
  119OCT    H51 3201   0.315   5.674   5.609
  119OCT    H52 3202   0.325   5.840   5.540
  119OCT     C6 3203   0.229   5.828   5.734
  119OCT    H61 3204   0.174   5.924   5.722
  119OCT    H62 3205   0.164   5.757   5.791
  119OCT     C7 3206   0.356   5.855   5.817
  119OCT    H71 3207   0.411   5.759   5.830
  119OCT    H72 3208   0.421   5.926   5.762
  119OCT     C8 3209   0.325   5.914   5.956
  119OCT    H81 3210   0.261   5.844   6.014
  119OCT    H82 3211   0.271   6.010   5.945
  119OCT     O1 3212   0.445   5.937   6.029
  119OCT    HO1 3213   0.418   5.973   6.113
  120OCT     C1 3214   0.460   0.157   1.947
  120OCT    H11 3215   0.454   0.086   2.031
  120OCT    H12 3216   0.566   0.164   1.913
  120OCT    H13 3217   0.428   0.258   1.982
  120OCT     C2 3218   0.370   0.111   1.832
  120OCT    H21 3219   0.403   0.009   1.799
  120OCT    H22 3220   0.265   0.103   1.869
  120OCT     C3 3221   0.372   0.204   1.709
  120OCT    H31 3222   0.339   0.305   1.742
  120OCT    H32 3223   0.476   0.212   1.672
  120OCT     C4 3224   0.281   0.156   1.596
  120OCT    H41 3225   0.314   0.055   1.563
  120OCT    H42 3226   0.176   0.148   1.633
  120OCT     C5 3227   0.282   0.249   1.474
  120OCT    H51 3228   0.250   0.351   1.505
  120OCT    H52 3229   0.387   0.257   1.435
  120OCT     C6 3230   0.191   0.200   1.360
  120OCT    H61 3231   0.224   0.099   1.327
  120OCT    H62 3232   0.087   0.192   1.397
  120OCT     C7 3233   0.193   0.294   1.238
  120OCT    H71 3234   0.160   0.395   1.269
  120OCT    H72 3235   0.297   0.301   1.199
  120OCT     C8 3236   0.102   0.244   1.124
  120OCT    H81 3237  -0.003   0.238   1.159
  120OCT    H82 3238   0.135   0.144   1.090
  120OCT     O1 3239   0.107   0.334   1.013
  120OCT    HO1 3240   0.048   0.297   0.947
  121OCT     C1 3241   0.475   0.699   3.847
  121OCT    H11 3242   0.432   0.671   3.946
  121OCT    H12 3243   0.559   0.629   3.825
  121OCT    H13 3244   0.516   0.802   3.854
  121OCT     C2 3245   0.368   0.691   3.738
  121OCT    H21 3246   0.327   0.587   3.736
  121OCT    H22 3247   0.284   0.760   3.765
  121OCT     C3 3248   0.418   0.727   3.598
  121OCT    H31 3249   0.459   0.830   3.601
  121OCT    H32 3250   0.501   0.658   3.571
  121OCT     C4 3251   0.309   0.718   3.491
  121OCT    H41 3252   0.269   0.615   3.488
  121OCT    H42 3253   0.226   0.787   3.517
  121OCT     C5 3254   0.359   0.754   3.350
  121OCT    H51 3255   0.400   0.858   3.352
  121OCT    H52 3256   0.443   0.685   3.323
  121OCT     C6 3257   0.250   0.745   3.243
  121OCT    H61 3258   0.209   0.642   3.240
  121OCT    H62 3259   0.167   0.815   3.270
  121OCT     C7 3260   0.301   0.782   3.102
  121OCT    H71 3261   0.341   0.885   3.104
  121OCT    H72 3262   0.384   0.713   3.075
  121OCT     C8 3263   0.191   0.773   2.995
  121OCT    H81 3264   0.109   0.842   3.020
  121OCT    H82 3265   0.151   0.670   2.991
  121OCT     O1 3266   0.243   0.807   2.867
  121OCT    HO1 3267   0.169   0.799   2.806
  122OCT     C1 3268   0.671   1.339   3.674
  122OCT    H11 3269   0.753   1.274   3.712
  122OCT    H12 3270   0.683   1.440   3.717
  122OCT    H13 3271   0.574   1.298   3.710
  122OCT     C2 3272   0.673   1.345   3.521
  122OCT    H21 3273   0.772   1.384   3.488
  122OCT    H22 3274   0.662   1.241   3.481
  122OCT     C3 3275   0.563   1.432   3.460
  122OCT    H31 3276   0.464   1.393   3.493
  122OCT    H32 3277   0.574   1.535   3.500
  122OCT     C4 3278   0.567   1.436   3.307
  122OCT    H41 3279   0.666   1.476   3.274
  122OCT    H42 3280   0.556   1.333   3.267
  122OCT     C5 3281   0.457   1.524   3.245
  122OCT    H51 3282   0.357   1.485   3.278
  122OCT    H52 3283   0.467   1.628   3.285
  122OCT     C6 3284   0.462   1.528   3.092
  122OCT    H61 3285   0.560   1.568   3.060
  122OCT    H62 3286   0.451   1.425   3.053
  122OCT     C7 3287   0.351   1.616   3.031
  122OCT    H71 3288   0.252   1.577   3.063
  122OCT    H72 3289   0.361   1.720   3.070
  122OCT     C8 3290   0.356   1.620   2.878
  122OCT    H81 3291   0.343   1.518   2.837
  122OCT    H82 3292   0.453   1.660   2.844
  122OCT     O1 3293   0.252   1.702   2.826
  122OCT    HO1 3294   0.261   1.700   2.730
  123OCT     C1 3295   2.552   4.404   2.465
  123OCT    H11 3296   2.608   4.499   2.460
  123OCT    H12 3297   2.527   4.382   2.571
  123OCT    H13 3298   2.617   4.322   2.427
  123OCT     C2 3299   2.424   4.413   2.382
  123OCT    H21 3300   2.362   4.497   2.420
  123OCT    H22 3301   2.451   4.437   2.276
  123OCT     C3 3302   2.339   4.285   2.382
  123OCT    H31 3303   2.401   4.201   2.343
  123OCT    H32 3304   2.311   4.261   2.487
  123OCT     C4 3305   2.211   4.296   2.298
  123OCT    H41 3306   2.150   4.380   2.337
  123OCT    H42 3307   2.239   4.320   2.193
  123OCT     C5 3308   2.127   4.168   2.298
  123OCT    H51 3309   2.188   4.084   2.260
  123OCT    H52 3310   2.098   4.144   2.403
  123OCT     C6 3311   1.999   4.180   2.214
  123OCT    H61 3312   1.937   4.264   2.253
  123OCT    H62 3313   2.027   4.203   2.109
  123OCT     C7 3314   1.915   4.051   2.215
  123OCT    H71 3315   1.976   3.967   2.176
  123OCT    H72 3316   1.886   4.028   2.320
  123OCT     C8 3317   1.787   4.064   2.130
  123OCT    H81 3318   1.813   4.086   2.025
  123OCT    H82 3319   1.723   4.146   2.169
  123OCT     O1 3320   1.712   3.943   2.134
  123OCT    HO1 3321   1.634   3.958   2.079
  124OCT     C1 3322   4.602   5.007   1.511
  124OCT    H11 3323   4.512   5.030   1.573
  124OCT    H12 3324   4.603   4.898   1.490
  124OCT    H13 3325   4.692   5.032   1.570
  124OCT     C2 3326   4.599   5.087   1.381
  124OCT    H21 3327   4.506   5.062   1.325
  124OCT    H22 3328   4.595   5.196   1.406
  124OCT     C3 3329   4.719   5.062   1.289
  124OCT    H31 3330   4.812   5.088   1.345
  124OCT    H32 3331   4.723   4.954   1.264
  124OCT     C4 3332   4.714   5.143   1.159
  124OCT    H41 3333   4.622   5.117   1.104
  124OCT    H42 3334   4.711   5.251   1.184
  124OCT     C5 3335   4.835   5.118   1.068
  124OCT    H51 3336   4.928   5.144   1.123
  124OCT    H52 3337   4.839   5.010   1.042
  124OCT     C6 3338   4.829   5.200   0.938
  124OCT    H61 3339   4.737   5.174   0.882
  124OCT    H62 3340   4.826   5.308   0.963
  124OCT     C7 3341   4.951   5.174   0.846
  124OCT    H71 3342   5.044   5.200   0.901
  124OCT    H72 3343   4.955   5.066   0.820
  124OCT     C8 3344   4.945   5.256   0.716
  124OCT    H81 3345   4.943   5.364   0.739
  124OCT    H82 3346   4.854   5.230   0.659
  124OCT     O1 3347   5.059   5.230   0.634
  124OCT    HO1 3348   5.048   5.284   0.556
  125OCT     C1 3349   3.827   5.134   1.861
  125OCT    H11 3350   3.792   5.129   1.756
  125OCT    H12 3351   3.739   5.131   1.928
  125OCT    H13 3352   3.879   5.231   1.877
  125OCT     C2 3353   3.922   5.018   1.892
  125OCT    H21 3354   3.869   4.922   1.873
  125OCT    H22 3355   4.009   5.023   1.821
  125OCT     C3 3356   3.976   5.017   2.036
  125OCT    H31 3357   4.030   5.113   2.054
  125OCT    H32 3358   3.890   5.012   2.106
  125OCT     C4 3359   4.071   4.900   2.064
  125OCT    H41 3360   4.017   4.805   2.046
  125OCT    H42 3361   4.157   4.906   1.994
  125OCT     C5 3362   4.125   4.899   2.208
  125OCT    H51 3363   4.179   4.995   2.227
  125OCT    H52 3364   4.039   4.894   2.279
  125OCT     C6 3365   4.220   4.782   2.236
  125OCT    H61 3366   4.166   4.686   2.217
  125OCT    H62 3367   4.306   4.787   2.166
  125OCT     C7 3368   4.273   4.782   2.380
  125OCT    H71 3369   4.327   4.877   2.399
  125OCT    H72 3370   4.188   4.776   2.451
  125OCT     C8 3371   4.368   4.664   2.408
  125OCT    H81 3372   4.456   4.669   2.340
  125OCT    H82 3373   4.316   4.568   2.391
  125OCT     O1 3374   4.416   4.667   2.542
  125OCT    HO1 3375   4.474   4.592   2.552
  126OCT     C1 3376   4.631   1.661   3.746
  126OCT    H11 3377   4.533   1.621   3.716
  126OCT    H12 3378   4.660   1.742   3.675
  126OCT    H13 3379   4.707   1.580   3.737
  126OCT     C2 3380   4.627   1.714   3.889
  126OCT    H21 3381   4.548   1.794   3.895
  126OCT    H22 3382   4.596   1.631   3.957
  126OCT     C3 3383   4.760   1.772   3.939
  126OCT    H31 3384   4.837   1.693   3.934
  126OCT    H32 3385   4.790   1.855   3.872
  126OCT     C4 3386   4.752   1.825   4.083
  126OCT    H41 3387   4.674   1.905   4.089
  126OCT    H42 3388   4.722   1.742   4.151
  126OCT     C5 3389   4.885   1.883   4.133
  126OCT    H51 3390   4.964   1.804   4.128
  126OCT    H52 3391   4.916   1.967   4.066
  126OCT     C6 3392   4.877   1.936   4.277
  126OCT    H61 3393   4.800   2.015   4.283
  126OCT    H62 3394   4.847   1.853   4.345
  126OCT     C7 3395   5.011   1.994   4.327
  126OCT    H71 3396   5.089   1.915   4.322
  126OCT    H72 3397   5.041   2.077   4.260
  126OCT     C8 3398   5.002   2.047   4.471
  126OCT    H81 3399   4.974   1.965   4.540
  126OCT    H82 3400   4.927   2.127   4.478
  126OCT     O1 3401   5.128   2.100   4.513
  126OCT    HO1 3402   5.115   2.130   4.603
  127OCT     C1 3403   3.338   2.888   1.043
  127OCT    H11 3404   3.360   2.970   0.972
  127OCT    H12 3405   3.228   2.881   1.057
  127OCT    H13 3406   3.384   2.913   1.142
  127OCT     C2 3407   3.394   2.755   0.991
  127OCT    H21 3408   3.349   2.734   0.891
  127OCT    H22 3409   3.504   2.766   0.976
  127OCT     C3 3410   3.369   2.635   1.083
  127OCT    H31 3411   3.415   2.657   1.182
  127OCT    H32 3412   3.259   2.624   1.098
  127OCT     C4 3413   3.426   2.504   1.028
  127OCT    H41 3414   3.380   2.483   0.930
  127OCT    H42 3415   3.536   2.515   1.014
  127OCT     C5 3416   3.401   2.384   1.121
  127OCT    H51 3417   3.447   2.404   1.220
  127OCT    H52 3418   3.291   2.372   1.136
  127OCT     C6 3419   3.458   2.253   1.066
  127OCT    H61 3420   3.412   2.231   0.967
  127OCT    H62 3421   3.568   2.264   1.051
  127OCT     C7 3422   3.432   2.133   1.159
  127OCT    H71 3423   3.479   2.153   1.258
  127OCT    H72 3424   3.323   2.121   1.173
  127OCT     C8 3425   3.490   2.001   1.103
  127OCT    H81 3426   3.599   2.010   1.090
  127OCT    H82 3427   3.444   1.978   1.005
  127OCT     O1 3428   3.464   1.893   1.192
  127OCT    HO1 3429   3.502   1.815   1.151
  128OCT     C1 3430   5.734   2.137   2.005
  128OCT    H11 3431   5.744   2.090   2.105
  128OCT    H12 3432   5.736   2.057   1.927
  128OCT    H13 3433   5.821   2.204   1.988
  128OCT     C2 3434   5.603   2.215   1.995
  128OCT    H21 3435   5.518   2.146   2.015
  128OCT    H22 3436   5.602   2.293   2.076
  128OCT     C3 3437   5.580   2.284   1.860
  128OCT    H31 3438   5.664   2.353   1.841
  128OCT    H32 3439   5.580   2.206   1.781
  128OCT     C4 3440   5.448   2.362   1.854
  128OCT    H41 3441   5.364   2.292   1.873
  128OCT    H42 3442   5.448   2.439   1.933
  128OCT     C5 3443   5.425   2.431   1.718
  128OCT    H51 3444   5.509   2.501   1.698
  128OCT    H52 3445   5.425   2.354   1.638
  128OCT     C6 3446   5.293   2.509   1.712
  128OCT    H61 3447   5.209   2.439   1.731
  128OCT    H62 3448   5.293   2.586   1.792
  128OCT     C7 3449   5.271   2.577   1.576
  128OCT    H71 3450   5.355   2.648   1.557
  128OCT    H72 3451   5.270   2.500   1.496
  128OCT     C8 3452   5.138   2.656   1.570
  128OCT    H81 3453   5.137   2.734   1.648
  128OCT    H82 3454   5.053   2.587   1.587
  128OCT     O1 3455   5.122   2.717   1.443
  128OCT    HO1 3456   5.038   2.764   1.447
  129OCT     C1 3457   1.836   5.270   3.732
  129OCT    H11 3458   1.876   5.316   3.825
  129OCT    H12 3459   1.906   5.191   3.698
  129OCT    H13 3460   1.831   5.348   3.653
  129OCT     C2 3461   1.697   5.211   3.757
  129OCT    H21 3462   1.705   5.135   3.838
  129OCT    H22 3463   1.630   5.292   3.794
  129OCT     C3 3464   1.634   5.145   3.634
  129OCT    H31 3465   1.625   5.221   3.554
  129OCT    H32 3466   1.701   5.064   3.599
  129OCT     C4 3467   1.495   5.086   3.662
  129OCT    H41 3468   1.503   5.010   3.742
  129OCT    H42 3469   1.427   5.167   3.698
  129OCT     C5 3470   1.431   5.020   3.539
  129OCT    H51 3471   1.422   5.096   3.457
  129OCT    H52 3472   1.498   4.939   3.502
  129OCT     C6 3473   1.292   4.961   3.567
  129OCT    H61 3474   1.300   4.885   3.647
  129OCT    H62 3475   1.225   5.042   3.602
  129OCT     C7 3476   1.229   4.896   3.443
  129OCT    H71 3477   1.220   4.971   3.362
  129OCT    H72 3478   1.295   4.814   3.407
  129OCT     C8 3479   1.090   4.837   3.472
  129OCT    H81 3480   1.021   4.917   3.506
  129OCT    H82 3481   1.097   4.760   3.551
  129OCT     O1 3482   1.035   4.777   3.355
  129OCT    HO1 3483   0.949   4.743   3.380
  130OCT     C1 3484   3.274   4.976   3.894
  130OCT    H11 3485   3.242   4.994   3.789
  130OCT    H12 3486   3.319   5.069   3.934
  130OCT    H13 3487   3.352   4.897   3.894
  130OCT     C2 3488   3.155   4.932   3.979
  130OCT    H21 3489   3.077   5.012   3.975
  130OCT    H22 3490   3.110   4.840   3.935
  130OCT     C3 3491   3.189   4.905   4.126
  130OCT    H31 3492   3.266   4.825   4.130
  130OCT    H32 3493   3.233   4.998   4.170
  130OCT     C4 3494   3.068   4.862   4.210
  130OCT    H41 3495   2.991   4.942   4.206
  130OCT    H42 3496   3.025   4.770   4.166
  130OCT     C5 3497   3.103   4.835   4.357
  130OCT    H51 3498   3.180   4.755   4.362
  130OCT    H52 3499   3.147   4.927   4.402
  130OCT     C6 3500   2.981   4.792   4.441
  130OCT    H61 3501   2.904   4.872   4.437
  130OCT    H62 3502   2.938   4.699   4.397
  130OCT     C7 3503   3.017   4.765   4.588
  130OCT    H71 3504   3.094   4.684   4.593
  130OCT    H72 3505   3.060   4.857   4.633
  130OCT     C8 3506   2.895   4.721   4.671
  130OCT    H81 3507   2.851   4.628   4.629
  130OCT    H82 3508   2.818   4.801   4.669
  130OCT     O1 3509   2.932   4.697   4.807
  130OCT    HO1 3510   2.851   4.671   4.852
  131OCT     C1 3511   2.329  -0.000   2.491
  131OCT    H11 3512   2.375   0.019   2.392
  131OCT    H12 3513   2.299  -0.107   2.497
  131OCT    H13 3514   2.237   0.062   2.501
  131OCT     C2 3515   2.428   0.034   2.603
  131OCT    H21 3516   2.520  -0.028   2.589
  131OCT    H22 3517   2.458   0.141   2.593
  131OCT     C3 3518   2.374   0.011   2.744
  131OCT    H31 3519   2.283   0.073   2.758
  131OCT    H32 3520   2.344  -0.096   2.754
  131OCT     C4 3521   2.475   0.046   2.854
  131OCT    H41 3522   2.566  -0.016   2.841
  131OCT    H42 3523   2.504   0.153   2.844
  131OCT     C5 3524   2.420   0.023   2.996
  131OCT    H51 3525   2.329   0.085   3.010
  131OCT    H52 3526   2.391  -0.084   3.007
  131OCT     C6 3527   2.522   0.058   3.106
  131OCT    H61 3528   2.613  -0.004   3.093
  131OCT    H62 3529   2.551   0.165   3.096
  131OCT     C7 3530   2.466   0.035   3.248
  131OCT    H71 3531   2.376   0.098   3.262
  131OCT    H72 3532   2.438  -0.071   3.259
  131OCT     C8 3533   2.569   0.070   3.357
  131OCT    H81 3534   2.597   0.177   3.350
  131OCT    H82 3535   2.659   0.008   3.346
  131OCT     O1 3536   2.514   0.048   3.487
  131OCT    HO1 3537   2.582   0.072   3.549
  132OCT     C1 3538   0.648   1.467   5.808
  132OCT    H11 3539   0.572   1.491   5.731
  132OCT    H12 3540   0.621   1.370   5.855
  132OCT    H13 3541   0.644   1.546   5.887
  132OCT     C2 3542   0.788   1.460   5.747
  132OCT    H21 3543   0.788   1.382   5.667
  132OCT    H22 3544   0.811   1.557   5.699
  132OCT     C3 3545   0.899   1.427   5.848
  132OCT    H31 3546   0.899   1.505   5.927
  132OCT    H32 3547   0.876   1.329   5.895
  132OCT     C4 3548   1.038   1.420   5.784
  132OCT    H41 3549   1.038   1.342   5.705
  132OCT    H42 3550   1.061   1.518   5.736
  132OCT     C5 3551   1.149   1.387   5.884
  132OCT    H51 3552   1.150   1.465   5.964
  132OCT    H52 3553   1.127   1.289   5.933
  132OCT     C6 3554   1.288   1.380   5.820
  132OCT    H61 3555   1.288   1.302   5.741
  132OCT    H62 3556   1.312   1.478   5.773
  132OCT     C7 3557   1.400   1.347   5.922
  132OCT    H71 3558   1.401   1.425   6.001
  132OCT    H72 3559   1.377   1.249   5.969
  132OCT     C8 3560   1.539   1.340   5.856
  132OCT    H81 3561   1.564   1.438   5.810
  132OCT    H82 3562   1.541   1.262   5.778
  132OCT     O1 3563   1.639   1.310   5.954
  132OCT    HO1 3564   1.722   1.307   5.906
  133OCT     C1 3565   2.304   2.618   6.447
  133OCT    H11 3566   2.233   2.628   6.532
  133OCT    H12 3567   2.373   2.533   6.469
  133OCT    H13 3568   2.365   2.711   6.441
  133OCT     C2 3569   2.230   2.593   6.316
  133OCT    H21 3570   2.168   2.500   6.327
  133OCT    H22 3571   2.159   2.678   6.298
  133OCT     C3 3572   2.321   2.578   6.194
  133OCT    H31 3573   2.381   2.670   6.183
  133OCT    H32 3574   2.390   2.493   6.211
  133OCT     C4 3575   2.243   2.553   6.064
  133OCT    H41 3576   2.182   2.461   6.074
  133OCT    H42 3577   2.174   2.638   6.046
  133OCT     C5 3578   2.334   2.538   5.941
  133OCT    H51 3579   2.396   2.630   5.929
  133OCT    H52 3580   2.404   2.453   5.958
  133OCT     C6 3581   2.256   2.513   5.811
  133OCT    H61 3582   2.196   2.421   5.822
  133OCT    H62 3583   2.187   2.598   5.793
  133OCT     C7 3584   2.348   2.498   5.688
  133OCT    H71 3585   2.409   2.590   5.677
  133OCT    H72 3586   2.418   2.413   5.705
  133OCT     C8 3587   2.270   2.473   5.558
  133OCT    H81 3588   2.202   2.558   5.538
  133OCT    H82 3589   2.210   2.380   5.567
  133OCT     O1 3590   2.359   2.460   5.447
  133OCT    HO1 3591   2.303   2.445   5.371
  134OCT     C1 3592   2.570   1.319  -0.224
  134OCT    H11 3593   2.474   1.358  -0.263
  134OCT    H12 3594   2.647   1.330  -0.303
  134OCT    H13 3595   2.558   1.211  -0.202
  134OCT     C2 3596   2.611   1.394  -0.097
  134OCT    H21 3597   2.620   1.503  -0.121
  134OCT    H22 3598   2.530   1.383  -0.021
  134OCT     C3 3599   2.744   1.347  -0.036
  134OCT    H31 3600   2.734   1.239  -0.012
  134OCT    H32 3601   2.824   1.358  -0.112
  134OCT     C4 3602   2.783   1.424   0.091
  134OCT    H41 3603   2.792   1.532   0.066
  134OCT    H42 3604   2.703   1.412   0.167
  134OCT     C5 3605   2.915   1.376   0.152
  134OCT    H51 3606   2.907   1.268   0.177
  134OCT    H52 3607   2.997   1.387   0.076
  134OCT     C6 3608   2.954   1.453   0.278
  134OCT    H61 3609   2.964   1.561   0.254
  134OCT    H62 3610   2.874   1.442   0.354
  134OCT     C7 3611   3.087   1.405   0.339
  134OCT    H71 3612   3.079   1.297   0.365
  134OCT    H72 3613   3.168   1.417   0.264
  134OCT     C8 3614   3.126   1.483   0.466
  134OCT    H81 3615   3.048   1.471   0.544
  134OCT    H82 3616   3.137   1.590   0.443
  134OCT     O1 3617   3.249   1.435   0.519
  134OCT    HO1 3618   3.267   1.488   0.597
  135OCT     C1 3619   2.283   0.782   0.762
  135OCT    H11 3620   2.192   0.789   0.825
  135OCT    H12 3621   2.371   0.769   0.828
  135OCT    H13 3622   2.294   0.878   0.706
  135OCT     C2 3623   2.271   0.665   0.664
  135OCT    H21 3624   2.257   0.571   0.723
  135OCT    H22 3625   2.180   0.679   0.601
  135OCT     C3 3626   2.393   0.648   0.572
  135OCT    H31 3627   2.406   0.741   0.514
  135OCT    H32 3628   2.483   0.633   0.635
  135OCT     C4 3629   2.378   0.529   0.475
  135OCT    H41 3630   2.365   0.436   0.534
  135OCT    H42 3631   2.288   0.544   0.412
  135OCT     C5 3632   2.500   0.512   0.383
  135OCT    H51 3633   2.514   0.605   0.324
  135OCT    H52 3634   2.591   0.497   0.445
  135OCT     C6 3635   2.486   0.394   0.286
  135OCT    H61 3636   2.472   0.300   0.345
  135OCT    H62 3637   2.395   0.409   0.223
  135OCT     C7 3638   2.608   0.377   0.194
  135OCT    H71 3639   2.622   0.470   0.135
  135OCT    H72 3640   2.698   0.361   0.256
  135OCT     C8 3641   2.593   0.258   0.097
  135OCT    H81 3642   2.504   0.272   0.033
  135OCT    H82 3643   2.581   0.164   0.154
  135OCT     O1 3644   2.708   0.246   0.014
  135OCT    HO1 3645   2.691   0.171  -0.043
  136OCT     C1 3646   3.544   3.882   1.547
  136OCT    H11 3647   3.563   3.821   1.455
  136OCT    H12 3648   3.639   3.934   1.574
  136OCT    H13 3649   3.518   3.813   1.630
  136OCT     C2 3650   3.432   3.983   1.523
  136OCT    H21 3651   3.461   4.048   1.437
  136OCT    H22 3652   3.340   3.927   1.493
  136OCT     C3 3653   3.400   4.071   1.644
  136OCT    H31 3654   3.371   4.005   1.729
  136OCT    H32 3655   3.492   4.126   1.673
  136OCT     C4 3656   3.287   4.171   1.617
  136OCT    H41 3657   3.316   4.237   1.532
  136OCT    H42 3658   3.195   4.116   1.589
  136OCT     C5 3659   3.255   4.260   1.739
  136OCT    H51 3660   3.226   4.195   1.825
  136OCT    H52 3661   3.346   4.316   1.768
  136OCT     C6 3662   3.142   4.360   1.712
  136OCT    H61 3663   3.171   4.426   1.627
  136OCT    H62 3664   3.050   4.304   1.683
  136OCT     C7 3665   3.110   4.448   1.834
  136OCT    H71 3666   3.080   4.383   1.919
  136OCT    H72 3667   3.201   4.504   1.863
  136OCT     C8 3668   2.996   4.549   1.806
  136OCT    H81 3669   2.904   4.495   1.779
  136OCT    H82 3670   3.025   4.616   1.723
  136OCT     O1 3671   2.970   4.628   1.922
  136OCT    HO1 3672   2.899   4.688   1.897
  137OCT     C1 3673   5.389   3.846   5.468
  137OCT    H11 3674   5.342   3.945   5.481
  137OCT    H12 3675   5.441   3.844   5.369
  137OCT    H13 3676   5.310   3.769   5.466
  137OCT     C2 3677   5.488   3.818   5.581
  137OCT    H21 3678   5.566   3.899   5.582
  137OCT    H22 3679   5.434   3.823   5.678
  137OCT     C3 3680   5.559   3.682   5.571
  137OCT    H31 3681   5.482   3.602   5.571
  137OCT    H32 3682   5.614   3.678   5.474
  137OCT     C4 3683   5.658   3.657   5.685
  137OCT    H41 3684   5.735   3.737   5.686
  137OCT    H42 3685   5.603   3.661   5.782
  137OCT     C5 3686   5.729   3.521   5.675
  137OCT    H51 3687   5.652   3.440   5.675
  137OCT    H52 3688   5.784   3.516   5.578
  137OCT     C6 3689   5.828   3.496   5.790
  137OCT    H61 3690   5.905   3.576   5.790
  137OCT    H62 3691   5.773   3.500   5.887
  137OCT     C7 3692   5.898   3.360   5.779
  137OCT    H71 3693   5.822   3.279   5.780
  137OCT    H72 3694   5.953   3.355   5.683
  137OCT     C8 3695   5.997   3.335   5.895
  137OCT    H81 3696   5.944   3.338   5.992
  137OCT    H82 3697   6.075   3.413   5.895
  137OCT     O1 3698   6.060   3.208   5.881
  137OCT    HO1 3699   6.120   3.200   5.956
  138OCT     C1 3700   3.107   4.459   2.570
  138OCT    H11 3701   3.061   4.428   2.474
  138OCT    H12 3702   3.126   4.568   2.567
  138OCT    H13 3703   3.205   4.407   2.581
  138OCT     C2 3704   3.015   4.425   2.688
  138OCT    H21 3705   2.917   4.476   2.673
  138OCT    H22 3706   2.996   4.315   2.687
  138OCT     C3 3707   3.071   4.464   2.825
  138OCT    H31 3708   3.168   4.412   2.840
  138OCT    H32 3709   3.089   4.574   2.825
  138OCT     C4 3710   2.977   4.429   2.941
  138OCT    H41 3711   2.879   4.480   2.926
  138OCT    H42 3712   2.958   4.319   2.940
  138OCT     C5 3713   3.032   4.468   3.078
  138OCT    H51 3714   3.130   4.417   3.094
  138OCT    H52 3715   3.052   4.578   3.080
  138OCT     C6 3716   2.938   4.432   3.194
  138OCT    H61 3717   2.841   4.484   3.179
  138OCT    H62 3718   2.920   4.323   3.194
  138OCT     C7 3719   2.995   4.472   3.332
  138OCT    H71 3720   3.092   4.421   3.347
  138OCT    H72 3721   3.013   4.582   3.333
  138OCT     C8 3722   2.900   4.436   3.447
  138OCT    H81 3723   2.882   4.327   3.449
  138OCT    H82 3724   2.803   4.489   3.435
  138OCT     O1 3725   2.956   4.475   3.572
  138OCT    HO1 3726   2.892   4.450   3.639
  139OCT     C1 3727   5.932   3.123   3.321
  139OCT    H11 3728   5.898   3.226   3.299
  139OCT    H12 3729   6.043   3.119   3.313
  139OCT    H13 3730   5.889   3.054   3.245
  139OCT     C2 3731   5.888   3.082   3.462
  139OCT    H21 3732   5.930   3.154   3.535
  139OCT    H22 3733   5.777   3.089   3.468
  139OCT     C3 3734   5.930   2.940   3.502
  139OCT    H31 3735   5.887   2.868   3.429
  139OCT    H32 3736   6.041   2.933   3.496
  139OCT     C4 3737   5.884   2.901   3.643
  139OCT    H41 3738   5.927   2.973   3.717
  139OCT    H42 3739   5.774   2.908   3.649
  139OCT     C5 3740   5.927   2.759   3.684
  139OCT    H51 3741   5.884   2.686   3.611
  139OCT    H52 3742   6.038   2.751   3.678
  139OCT     C6 3743   5.881   2.721   3.825
  139OCT    H61 3744   5.924   2.792   3.898
  139OCT    H62 3745   5.770   2.727   3.831
  139OCT     C7 3746   5.924   2.578   3.865
  139OCT    H71 3747   5.881   2.506   3.792
  139OCT    H72 3748   6.034   2.571   3.860
  139OCT     C8 3749   5.878   2.540   4.007
  139OCT    H81 3750   5.767   2.545   4.013
  139OCT    H82 3751   5.921   2.610   4.081
  139OCT     O1 3752   5.919   2.408   4.039
  139OCT    HO1 3753   5.887   2.391   4.128
  140OCT     C1 3754   1.829   5.530   0.501
  140OCT    H11 3755   1.821   5.576   0.601
  140OCT    H12 3756   1.756   5.447   0.493
  140OCT    H13 3757   1.931   5.488   0.489
  140OCT     C2 3758   1.802   5.634   0.392
  140OCT    H21 3759   1.699   5.677   0.408
  140OCT    H22 3760   1.874   5.718   0.404
  140OCT     C3 3761   1.811   5.580   0.249
  140OCT    H31 3762   1.913   5.539   0.233
  140OCT    H32 3763   1.738   5.497   0.238
  140OCT     C4 3764   1.783   5.687   0.142
  140OCT    H41 3765   1.681   5.728   0.158
  140OCT    H42 3766   1.856   5.770   0.153
  140OCT     C5 3767   1.792   5.633  -0.001
  140OCT    H51 3768   1.894   5.591  -0.018
  140OCT    H52 3769   1.719   5.549  -0.014
  140OCT     C6 3770   1.764   5.739  -0.108
  140OCT    H61 3771   1.662   5.781  -0.092
  140OCT    H62 3772   1.837   5.822  -0.097
  140OCT     C7 3773   1.774   5.684  -0.251
  140OCT    H71 3774   1.875   5.643  -0.268
  140OCT    H72 3775   1.700   5.602  -0.264
  140OCT     C8 3776   1.745   5.792  -0.358
  140OCT    H81 3777   1.819   5.874  -0.349
  140OCT    H82 3778   1.643   5.833  -0.345
  140OCT     O1 3779   1.755   5.737  -0.489
  140OCT    HO1 3780   1.737   5.809  -0.549
  141OCT     C1 3781   3.230   3.412   3.282
  141OCT    H11 3782   3.228   3.302   3.295
  141OCT    H12 3783   3.317   3.452   3.338
  141OCT    H13 3784   3.138   3.454   3.327
  141OCT     C2 3785   3.240   3.449   3.134
  141OCT    H21 3786   3.332   3.403   3.092
  141OCT    H22 3787   3.153   3.405   3.081
  141OCT     C3 3788   3.243   3.600   3.107
  141OCT    H31 3789   3.151   3.645   3.149
  141OCT    H32 3790   3.331   3.643   3.161
  141OCT     C4 3791   3.253   3.634   2.958
  141OCT    H41 3792   3.345   3.589   2.916
  141OCT    H42 3793   3.165   3.591   2.905
  141OCT     C5 3794   3.256   3.785   2.931
  141OCT    H51 3795   3.164   3.832   2.973
  141OCT    H52 3796   3.343   3.830   2.984
  141OCT     C6 3797   3.266   3.820   2.782
  141OCT    H61 3798   3.358   3.775   2.740
  141OCT    H62 3799   3.178   3.776   2.729
  141OCT     C7 3800   3.269   3.972   2.756
  141OCT    H71 3801   3.177   4.018   2.797
  141OCT    H72 3802   3.356   4.016   2.808
  141OCT     C8 3803   3.279   4.005   2.606
  141OCT    H81 3804   3.191   3.964   2.552
  141OCT    H82 3805   3.371   3.962   2.563
  141OCT     O1 3806   3.281   4.147   2.586
  141OCT    HO1 3807   3.287   4.160   2.491
  142OCT     C1 3808   4.853   5.359   2.402
  142OCT    H11 3809   4.880   5.467   2.398
  142OCT    H12 3810   4.782   5.343   2.486
  142OCT    H13 3811   4.945   5.300   2.423
  142OCT     C2 3812   4.790   5.315   2.270
  142OCT    H21 3813   4.700   5.378   2.250
  142OCT    H22 3814   4.863   5.334   2.187
  142OCT     C3 3815   4.749   5.167   2.266
  142OCT    H31 3816   4.839   5.105   2.285
  142OCT    H32 3817   4.676   5.148   2.348
  142OCT     C4 3818   4.686   5.125   2.132
  142OCT    H41 3819   4.596   5.187   2.113
  142OCT    H42 3820   4.759   5.144   2.050
  142OCT     C5 3821   4.645   4.978   2.128
  142OCT    H51 3822   4.735   4.914   2.147
  142OCT    H52 3823   4.572   4.957   2.210
  142OCT     C6 3824   4.583   4.936   1.994
  142OCT    H61 3825   4.492   4.998   1.976
  142OCT    H62 3826   4.655   4.955   1.912
  142OCT     C7 3827   4.542   4.787   1.991
  142OCT    H71 3828   4.632   4.725   2.009
  142OCT    H72 3829   4.469   4.768   2.072
  142OCT     C8 3830   4.479   4.747   1.856
  142OCT    H81 3831   4.551   4.763   1.774
  142OCT    H82 3832   4.388   4.806   1.837
  142OCT     O1 3833   4.443   4.609   1.858
  142OCT    HO1 3834   4.405   4.591   1.772
  143OCT     C1 3835   1.063   4.651   5.590
  143OCT    H11 3836   1.026   4.594   5.678
  143OCT    H12 3837   1.113   4.744   5.627
  143OCT    H13 3838   0.976   4.681   5.528
  143OCT     C2 3839   1.161   4.567   5.509
  143OCT    H21 3840   1.246   4.536   5.575
  143OCT    H22 3841   1.110   4.473   5.476
  143OCT     C3 3842   1.218   4.638   5.385
  143OCT    H31 3843   1.134   4.667   5.319
  143OCT    H32 3844   1.270   4.730   5.418
  143OCT     C4 3845   1.316   4.551   5.305
  143OCT    H41 3846   1.401   4.522   5.371
  143OCT    H42 3847   1.264   4.459   5.272
  143OCT     C5 3848   1.373   4.622   5.182
  143OCT    H51 3849   1.289   4.652   5.115
  143OCT    H52 3850   1.425   4.715   5.214
  143OCT     C6 3851   1.471   4.535   5.102
  143OCT    H61 3852   1.556   4.506   5.167
  143OCT    H62 3853   1.419   4.443   5.068
  143OCT     C7 3854   1.528   4.607   4.978
  143OCT    H71 3855   1.444   4.637   4.911
  143OCT    H72 3856   1.580   4.700   5.010
  143OCT     C8 3857   1.626   4.520   4.898
  143OCT    H81 3858   1.575   4.428   4.863
  143OCT    H82 3859   1.711   4.491   4.962
  143OCT     O1 3860   1.676   4.590   4.785
  143OCT    HO1 3861   1.736   4.530   4.741
  144OCT     C1 3862   5.565   1.084   2.175
  144OCT    H11 3863   5.557   1.185   2.221
  144OCT    H12 3864   5.488   1.075   2.095
  144OCT    H13 3865   5.544   1.008   2.252
  144OCT     C2 3866   5.705   1.064   2.116
  144OCT    H21 3867   5.725   1.143   2.041
  144OCT    H22 3868   5.780   1.076   2.198
  144OCT     C3 3869   5.726   0.927   2.050
  144OCT    H31 3870   5.707   0.848   2.126
  144OCT    H32 3871   5.652   0.915   1.968
  144OCT     C4 3872   5.867   0.909   1.993
  144OCT    H41 3873   5.886   0.988   1.917
  144OCT    H42 3874   5.942   0.920   2.075
  144OCT     C5 3875   5.889   0.772   1.926
  144OCT    H51 3876   5.869   0.692   2.002
  144OCT    H52 3877   5.814   0.759   1.844
  144OCT     C6 3878   6.030   0.754   1.869
  144OCT    H61 3879   6.049   0.833   1.794
  144OCT    H62 3880   6.104   0.765   1.951
  144OCT     C7 3881   6.050   0.616   1.803
  144OCT    H71 3882   6.032   0.537   1.878
  144OCT    H72 3883   5.976   0.604   1.720
  144OCT     C8 3884   6.192   0.599   1.745
  144OCT    H81 3885   6.267   0.608   1.826
  144OCT    H82 3886   6.212   0.676   1.669
  144OCT     O1 3887   6.207   0.471   1.685
  144OCT    HO1 3888   6.296   0.467   1.652
  145OCT     C1 3889   6.017   0.656   4.691
  145OCT    H11 3890   5.960   0.712   4.615
  145OCT    H12 3891   6.100   0.720   4.729
  145OCT    H13 3892   6.062   0.566   4.643
  145OCT     C2 3893   5.925   0.614   4.807
  145OCT    H21 3894   5.880   0.706   4.851
  145OCT    H22 3895   5.842   0.553   4.766
  145OCT     C3 3896   5.995   0.535   4.918
  145OCT    H31 3897   6.040   0.444   4.873
  145OCT    H32 3898   6.078   0.597   4.959
  145OCT     C4 3899   5.901   0.495   5.032
  145OCT    H41 3900   5.857   0.587   5.077
  145OCT    H42 3901   5.818   0.433   4.991
  145OCT     C5 3902   5.971   0.416   5.143
  145OCT    H51 3903   6.016   0.324   5.100
  145OCT    H52 3904   6.054   0.477   5.185
  145OCT     C6 3905   5.877   0.376   5.258
  145OCT    H61 3906   5.832   0.468   5.302
  145OCT    H62 3907   5.794   0.314   5.217
  145OCT     C7 3908   5.948   0.297   5.369
  145OCT    H71 3909   5.992   0.205   5.325
  145OCT    H72 3910   6.030   0.358   5.411
  145OCT     C8 3911   5.852   0.257   5.483
  145OCT    H81 3912   5.770   0.194   5.444
  145OCT    H82 3913   5.809   0.347   5.529
  145OCT     O1 3914   5.922   0.184   5.584
  145OCT    HO1 3915   5.857   0.163   5.651
  146OCT     C1 3916   0.143   1.818   1.626
  146OCT    H11 3917   0.056   1.873   1.668
  146OCT    H12 3918   0.161   1.728   1.688
  146OCT    H13 3919   0.233   1.884   1.634
  146OCT     C2 3920   0.117   1.779   1.481
  146OCT    H21 3921   0.025   1.716   1.477
  146OCT    H22 3922   0.097   1.871   1.422
  146OCT     C3 3923   0.233   1.702   1.415
  146OCT    H31 3924   0.324   1.766   1.419
  146OCT    H32 3925   0.252   1.610   1.474
  146OCT     C4 3926   0.204   1.664   1.269
  146OCT    H41 3927   0.113   1.601   1.265
  146OCT    H42 3928   0.185   1.756   1.210
  146OCT     C5 3929   0.320   1.588   1.203
  146OCT    H51 3930   0.412   1.651   1.206
  146OCT    H52 3931   0.340   1.495   1.261
  146OCT     C6 3932   0.291   1.550   1.057
  146OCT    H61 3933   0.200   1.486   1.053
  146OCT    H62 3934   0.272   1.642   0.998
  146OCT     C7 3935   0.407   1.473   0.991
  146OCT    H71 3936   0.499   1.536   0.994
  146OCT    H72 3937   0.427   1.380   1.049
  146OCT     C8 3938   0.378   1.435   0.845
  146OCT    H81 3939   0.360   1.526   0.785
  146OCT    H82 3940   0.288   1.370   0.840
  146OCT     O1 3941   0.488   1.364   0.788
  146OCT    HO1 3942   0.463   1.344   0.698
  147OCT     C1 3943   2.735   2.856   4.200
  147OCT    H11 3944   2.788   2.784   4.265
  147OCT    H12 3945   2.760   2.959   4.232
  147OCT    H13 3946   2.626   2.841   4.212
  147OCT     C2 3947   2.775   2.835   4.053
  147OCT    H21 3948   2.886   2.849   4.044
  147OCT    H22 3949   2.752   2.730   4.024
  147OCT     C3 3950   2.706   2.931   3.955
  147OCT    H31 3951   2.596   2.917   3.964
  147OCT    H32 3952   2.730   3.035   3.984
  147OCT     C4 3953   2.748   2.908   3.809
  147OCT    H41 3954   2.858   2.922   3.800
  147OCT    H42 3955   2.724   2.803   3.780
  147OCT     C5 3956   2.679   3.003   3.711
  147OCT    H51 3957   2.568   2.990   3.719
  147OCT    H52 3958   2.702   3.108   3.739
  147OCT     C6 3959   2.721   2.980   3.565
  147OCT    H61 3960   2.831   2.994   3.556
  147OCT    H62 3961   2.697   2.875   3.536
  147OCT     C7 3962   2.651   3.076   3.467
  147OCT    H71 3963   2.541   3.062   3.474
  147OCT    H72 3964   2.675   3.180   3.495
  147OCT     C8 3965   2.694   3.052   3.321
  147OCT    H81 3966   2.669   2.949   3.290
  147OCT    H82 3967   2.803   3.067   3.310
  147OCT     O1 3968   2.627   3.143   3.233
  147OCT    HO1 3969   2.658   3.122   3.145
  148OCT     C1 3970   3.819   5.344   3.078
  148OCT    H11 3971   3.887   5.268   3.120
  148OCT    H12 3972   3.777   5.405   3.161
  148OCT    H13 3973   3.735   5.293   3.026
  148OCT     C2 3974   3.894   5.434   2.979
  148OCT    H21 3975   3.979   5.483   3.033
  148OCT    H22 3976   3.937   5.370   2.898
  148OCT     C3 3977   3.808   5.543   2.915
  148OCT    H31 3978   3.723   5.495   2.861
  148OCT    H32 3979   3.765   5.607   2.996
  148OCT     C4 3980   3.885   5.632   2.817
  148OCT    H41 3981   3.970   5.681   2.871
  148OCT    H42 3982   3.928   5.568   2.736
  148OCT     C5 3983   3.799   5.741   2.753
  148OCT    H51 3984   3.714   5.693   2.698
  148OCT    H52 3985   3.756   5.806   2.833
  148OCT     C6 3986   3.877   5.830   2.654
  148OCT    H61 3987   3.961   5.878   2.708
  148OCT    H62 3988   3.919   5.766   2.574
  148OCT     C7 3989   3.790   5.939   2.590
  148OCT    H71 3990   3.705   5.891   2.536
  148OCT    H72 3991   3.747   6.003   2.670
  148OCT     C8 3992   3.868   6.028   2.492
  148OCT    H81 3993   3.910   5.966   2.410
  148OCT    H82 3994   3.952   6.078   2.544
  148OCT     O1 3995   3.784   6.127   2.435
  148OCT    HO1 3996   3.839   6.178   2.375
  149OCT     C1 3997   4.187   4.034   3.949
  149OCT    H11 3998   4.275   3.981   3.908
  149OCT    H12 3999   4.115   4.053   3.867
  149OCT    H13 4000   4.220   4.132   3.989
  149OCT     C2 4001   4.121   3.951   4.059
  149OCT    H21 4002   4.091   3.853   4.017
  149OCT    H22 4003   4.196   3.932   4.139
  149OCT     C3 4004   3.998   4.018   4.123
  149OCT    H31 4005   4.028   4.115   4.166
  149OCT    H32 4006   3.923   4.036   4.043
  149OCT     C4 4007   3.934   3.932   4.233
  149OCT    H41 4008   3.903   3.834   4.191
  149OCT    H42 4009   4.009   3.914   4.313
  149OCT     C5 4010   3.811   3.998   4.297
  149OCT    H51 4011   3.840   4.097   4.340
  149OCT    H52 4012   3.735   4.018   4.218
  149OCT     C6 4013   3.747   3.913   4.407
  149OCT    H61 4014   3.716   3.815   4.365
  149OCT    H62 4015   3.822   3.894   4.487
  149OCT     C7 4016   3.623   3.980   4.470
  149OCT    H71 4017   3.653   4.078   4.514
  149OCT    H72 4018   3.547   3.999   4.391
  149OCT     C8 4019   3.559   3.894   4.581
  149OCT    H81 4020   3.633   3.876   4.662
  149OCT    H82 4021   3.527   3.797   4.540
  149OCT     O1 4022   3.446   3.960   4.637
  149OCT    HO1 4023   3.412   3.901   4.704
  150OCT     C1 4024   4.457   3.202   5.982
  150OCT    H11 4025   4.516   3.200   6.076
  150OCT    H12 4026   4.420   3.305   5.966
  150OCT    H13 4027   4.368   3.135   5.995
  150OCT     C2 4028   4.542   3.156   5.864
  150OCT    H21 4029   4.631   3.223   5.855
  150OCT    H22 4030   4.579   3.053   5.884
  150OCT     C3 4031   4.468   3.155   5.729
  150OCT    H31 4032   4.380   3.088   5.738
  150OCT    H32 4033   4.431   3.258   5.709
  150OCT     C4 4034   4.555   3.109   5.612
  150OCT    H41 4035   4.643   3.176   5.604
  150OCT    H42 4036   4.592   3.006   5.633
  150OCT     C5 4037   4.481   3.109   5.478
  150OCT    H51 4038   4.392   3.042   5.485
  150OCT    H52 4039   4.444   3.212   5.456
  150OCT     C6 4040   4.569   3.062   5.361
  150OCT    H61 4041   4.657   3.129   5.352
  150OCT    H62 4042   4.605   2.959   5.381
  150OCT     C7 4043   4.494   3.062   5.226
  150OCT    H71 4044   4.406   2.995   5.234
  150OCT    H72 4045   4.458   3.165   5.205
  150OCT     C8 4046   4.583   3.015   5.109
  150OCT    H81 4047   4.618   2.912   5.128
  150OCT    H82 4048   4.670   3.082   5.099
  150OCT     O1 4049   4.509   3.017   4.987
  150OCT    HO1 4050   4.570   2.987   4.919
  151OCT     C1 4051   1.565   5.136   3.084
  151OCT    H11 4052   1.620   5.061   3.023
  151OCT    H12 4053   1.600   5.129   3.189
  151OCT    H13 4054   1.457   5.111   3.082
  151OCT     C2 4055   1.589   5.277   3.030
  151OCT    H21 4056   1.698   5.298   3.031
  151OCT    H22 4057   1.555   5.280   2.923
  151OCT     C3 4058   1.517   5.387   3.108
  151OCT    H31 4059   1.408   5.367   3.106
  151OCT    H32 4060   1.551   5.384   3.214
  151OCT     C4 4061   1.542   5.528   3.051
  151OCT    H41 4062   1.651   5.549   3.053
  151OCT    H42 4063   1.508   5.531   2.946
  151OCT     C5 4064   1.470   5.638   3.129
  151OCT    H51 4065   1.360   5.619   3.128
  151OCT    H52 4066   1.504   5.636   3.236
  151OCT     C6 4067   1.496   5.779   3.073
  151OCT    H61 4068   1.605   5.800   3.074
  151OCT    H62 4069   1.461   5.782   2.967
  151OCT     C7 4070   1.423   5.889   3.152
  151OCT    H71 4071   1.314   5.870   3.150
  151OCT    H72 4072   1.457   5.887   3.257
  151OCT     C8 4073   1.449   6.030   3.094
  151OCT    H81 4074   1.414   6.035   2.989
  151OCT    H82 4075   1.557   6.052   3.097
  151OCT     O1 4076   1.380   6.129   3.170
  151OCT    HO1 4077   1.401   6.213   3.128
  152OCT     C1 4078   0.325   5.438   2.610
  152OCT    H11 4079   0.383   5.502   2.539
  152OCT    H12 4080   0.297   5.344   2.557
  152OCT    H13 4081   0.232   5.492   2.638
  152OCT     C2 4082   0.408   5.406   2.734
  152OCT    H21 4083   0.502   5.355   2.702
  152OCT    H22 4084   0.438   5.502   2.783
  152OCT     C3 4085   0.337   5.319   2.837
  152OCT    H31 4086   0.244   5.370   2.869
  152OCT    H32 4087   0.308   5.223   2.789
  152OCT     C4 4088   0.422   5.289   2.961
  152OCT    H41 4089   0.515   5.237   2.929
  152OCT    H42 4090   0.451   5.384   3.010
  152OCT     C5 4091   0.350   5.201   3.064
  152OCT    H51 4092   0.257   5.252   3.097
  152OCT    H52 4093   0.321   5.104   3.016
  152OCT     C6 4094   0.436   5.171   3.188
  152OCT    H61 4095   0.529   5.119   3.156
  152OCT    H62 4096   0.465   5.266   3.237
  152OCT     C7 4097   0.363   5.082   3.291
  152OCT    H71 4098   0.270   5.134   3.324
  152OCT    H72 4099   0.335   4.986   3.243
  152OCT     C8 4100   0.450   5.053   3.415
  152OCT    H81 4101   0.478   5.147   3.465
  152OCT    H82 4102   0.542   5.000   3.385
  152OCT     O1 4103   0.379   4.971   3.508
  152OCT    HO1 4104   0.439   4.957   3.581
  153OCT     C1 4105   1.493   3.305   2.046
  153OCT    H11 4106   1.449   3.214   2.000
  153OCT    H12 4107   1.563   3.352   1.974
  153OCT    H13 4108   1.551   3.275   2.137
  153OCT     C2 4109   1.383   3.404   2.084
  153OCT    H21 4110   1.325   3.430   1.992
  153OCT    H22 4111   1.312   3.354   2.155
  153OCT     C3 4112   1.434   3.533   2.149
  153OCT    H31 4113   1.490   3.507   2.241
  153OCT    H32 4114   1.503   3.583   2.079
  153OCT     C4 4115   1.321   3.631   2.186
  153OCT    H41 4116   1.264   3.657   2.095
  153OCT    H42 4117   1.251   3.581   2.257
  153OCT     C5 4118   1.372   3.760   2.251
  153OCT    H51 4119   1.429   3.735   2.344
  153OCT    H52 4120   1.442   3.811   2.181
  153OCT     C6 4121   1.259   3.857   2.288
  153OCT    H61 4122   1.202   3.884   2.197
  153OCT    H62 4123   1.190   3.808   2.359
  153OCT     C7 4124   1.311   3.987   2.354
  153OCT    H71 4125   1.368   3.961   2.446
  153OCT    H72 4126   1.380   4.038   2.283
  153OCT     C8 4127   1.197   4.084   2.390
  153OCT    H81 4128   1.128   4.036   2.462
  153OCT    H82 4129   1.141   4.113   2.300
  153OCT     O1 4130   1.250   4.203   2.450
  153OCT    HO1 4131   1.174   4.258   2.470
  154OCT     C1 4132   1.807   4.445   6.206
  154OCT    H11 4133   1.879   4.451   6.291
  154OCT    H12 4134   1.740   4.534   6.209
  154OCT    H13 4135   1.743   4.354   6.221
  154OCT     C2 4136   1.881   4.437   6.073
  154OCT    H21 4137   1.945   4.528   6.062
  154OCT    H22 4138   1.948   4.348   6.074
  154OCT     C3 4139   1.789   4.427   5.950
  154OCT    H31 4140   1.726   4.337   5.961
  154OCT    H32 4141   1.723   4.516   5.949
  154OCT     C4 4142   1.866   4.420   5.818
  154OCT    H41 4143   1.930   4.510   5.807
  154OCT    H42 4144   1.932   4.331   5.819
  154OCT     C5 4145   1.774   4.410   5.695
  154OCT    H51 4146   1.710   4.319   5.705
  154OCT    H52 4147   1.707   4.499   5.693
  154OCT     C6 4148   1.851   4.402   5.563
  154OCT    H61 4149   1.915   4.493   5.552
  154OCT    H62 4150   1.918   4.313   5.564
  154OCT     C7 4151   1.759   4.393   5.440
  154OCT    H71 4152   1.695   4.302   5.450
  154OCT    H72 4153   1.692   4.482   5.438
  154OCT     C8 4154   1.837   4.385   5.308
  154OCT    H81 4155   1.902   4.296   5.307
  154OCT    H82 4156   1.899   4.475   5.295
  154OCT     O1 4157   1.747   4.376   5.197
  154OCT    HO1 4158   1.803   4.372   5.119
  155OCT     C1 4159   2.615   1.028   1.697
  155OCT    H11 4160   2.556   1.061   1.609
  155OCT    H12 4161   2.714   1.080   1.696
  155OCT    H13 4162   2.634   0.918   1.688
  155OCT     C2 4163   2.541   1.058   1.827
  155OCT    H21 4164   2.521   1.168   1.832
  155OCT    H22 4165   2.442   1.006   1.825
  155OCT     C3 4166   2.615   1.015   1.954
  155OCT    H31 4167   2.634   0.906   1.949
  155OCT    H32 4168   2.713   1.067   1.957
  155OCT     C4 4169   2.538   1.047   2.083
  155OCT    H41 4170   2.519   1.156   2.088
  155OCT    H42 4171   2.440   0.995   2.080
  155OCT     C5 4172   2.613   1.004   2.210
  155OCT    H51 4173   2.633   0.895   2.206
  155OCT    H52 4174   2.712   1.056   2.214
  155OCT     C6 4175   2.536   1.036   2.339
  155OCT    H61 4176   2.517   1.145   2.344
  155OCT    H62 4177   2.438   0.984   2.336
  155OCT     C7 4178   2.611   0.993   2.466
  155OCT    H71 4179   2.630   0.884   2.462
  155OCT    H72 4180   2.709   1.045   2.470
  155OCT     C8 4181   2.533   1.025   2.595
  155OCT    H81 4182   2.436   0.973   2.594
  155OCT    H82 4183   2.515   1.134   2.602
  155OCT     O1 4184   2.606   0.984   2.710
  155OCT    HO1 4185   2.552   1.007   2.785
  156OCT     C1 4186   1.425   4.448   2.414
  156OCT    H11 4187   1.437   4.381   2.502
  156OCT    H12 4188   1.505   4.525   2.417
  156OCT    H13 4189   1.327   4.501   2.423
  156OCT     C2 4190   1.432   4.369   2.284
  156OCT    H21 4191   1.530   4.316   2.280
  156OCT    H22 4192   1.352   4.291   2.286
  156OCT     C3 4193   1.416   4.454   2.157
  156OCT    H31 4194   1.318   4.506   2.162
  156OCT    H32 4195   1.496   4.530   2.156
  156OCT     C4 4196   1.423   4.371   2.028
  156OCT    H41 4197   1.521   4.319   2.024
  156OCT    H42 4198   1.343   4.294   2.030
  156OCT     C5 4199   1.407   4.456   1.901
  156OCT    H51 4200   1.309   4.509   1.905
  156OCT    H52 4201   1.487   4.534   1.899
  156OCT     C6 4202   1.415   4.373   1.772
  156OCT    H61 4203   1.512   4.321   1.768
  156OCT    H62 4204   1.334   4.296   1.773
  156OCT     C7 4205   1.399   4.459   1.645
  156OCT    H71 4206   1.301   4.511   1.649
  156OCT    H72 4207   1.479   4.536   1.643
  156OCT     C8 4208   1.406   4.375   1.516
  156OCT    H81 4209   1.326   4.300   1.515
  156OCT    H82 4210   1.504   4.324   1.510
  156OCT     O1 4211   1.391   4.459   1.401
  156OCT    HO1 4212   1.396   4.400   1.326
  157OCT     C1 4213   5.070   5.772   0.271
  157OCT    H11 4214   5.040   5.874   0.243
  157OCT    H12 4215   5.161   5.744   0.212
  157OCT    H13 4216   4.989   5.701   0.243
  157OCT     C2 4217   5.099   5.762   0.421
  157OCT    H21 4218   5.180   5.835   0.446
  157OCT    H22 4219   5.007   5.792   0.477
  157OCT     C3 4220   5.142   5.623   0.468
  157OCT    H31 4221   5.062   5.550   0.443
  157OCT    H32 4222   5.234   5.594   0.413
  157OCT     C4 4223   5.171   5.616   0.619
  157OCT    H41 4224   5.251   5.689   0.644
  157OCT    H42 4225   5.079   5.646   0.674
  157OCT     C5 4226   5.214   5.477   0.666
  157OCT    H51 4227   5.134   5.403   0.641
  157OCT    H52 4228   5.306   5.446   0.611
  157OCT     C6 4229   5.242   5.471   0.817
  157OCT    H61 4230   5.323   5.543   0.842
  157OCT    H62 4231   5.150   5.500   0.873
  157OCT     C7 4232   5.285   5.330   0.864
  157OCT    H71 4233   5.205   5.258   0.840
  157OCT    H72 4234   5.377   5.301   0.809
  157OCT     C8 4235   5.314   5.325   1.015
  157OCT    H81 4236   5.223   5.352   1.072
  157OCT    H82 4237   5.395   5.395   1.041
  157OCT     O1 4238   5.353   5.194   1.054
  157OCT    HO1 4239   5.369   5.198   1.149
  158OCT     C1 4240   4.195   5.487   2.194
  158OCT    H11 4241   4.175   5.379   2.177
  158OCT    H12 4242   4.098   5.538   2.213
  158OCT    H13 4243   4.239   5.529   2.101
  158OCT     C2 4244   4.290   5.507   2.312
  158OCT    H21 4245   4.244   5.461   2.403
  158OCT    H22 4246   4.385   5.452   2.291
  158OCT     C3 4247   4.323   5.653   2.342
  158OCT    H31 4248   4.369   5.698   2.251
  158OCT    H32 4249   4.228   5.707   2.363
  158OCT     C4 4250   4.419   5.670   2.461
  158OCT    H41 4251   4.373   5.625   2.551
  158OCT    H42 4252   4.513   5.616   2.439
  158OCT     C5 4253   4.452   5.817   2.491
  158OCT    H51 4254   4.498   5.864   2.401
  158OCT    H52 4255   4.357   5.872   2.513
  158OCT     C6 4256   4.547   5.834   2.610
  158OCT    H61 4257   4.501   5.789   2.700
  158OCT    H62 4258   4.642   5.780   2.589
  158OCT     C7 4259   4.580   5.982   2.640
  158OCT    H71 4260   4.627   6.027   2.550
  158OCT    H72 4261   4.486   6.036   2.662
  158OCT     C8 4262   4.676   5.998   2.759
  158OCT    H81 4263   4.771   5.946   2.738
  158OCT    H82 4264   4.631   5.955   2.850
  158OCT     O1 4265   4.704   6.136   2.783
  158OCT    HO1 4266   4.763   6.138   2.858
  159OCT     C1 4267   4.289   1.779   1.681
  159OCT    H11 4268   4.183   1.746   1.674
  159OCT    H12 4269   4.294   1.870   1.745
  159OCT    H13 4270   4.325   1.806   1.579
  159OCT     C2 4271   4.376   1.668   1.740
  159OCT    H21 4272   4.337   1.641   1.841
  159OCT    H22 4273   4.368   1.578   1.676
  159OCT     C3 4274   4.525   1.705   1.754
  159OCT    H31 4275   4.564   1.731   1.653
  159OCT    H32 4276   4.533   1.795   1.819
  159OCT     C4 4277   4.610   1.592   1.813
  159OCT    H41 4278   4.571   1.566   1.914
  159OCT    H42 4279   4.602   1.503   1.748
  159OCT     C5 4280   4.758   1.629   1.827
  159OCT    H51 4281   4.799   1.656   1.726
  159OCT    H52 4282   4.768   1.720   1.891
  159OCT     C6 4283   4.843   1.516   1.886
  159OCT    H61 4284   4.804   1.490   1.987
  159OCT    H62 4285   4.835   1.427   1.821
  159OCT     C7 4286   4.992   1.554   1.899
  159OCT    H71 4287   5.032   1.580   1.799
  159OCT    H72 4288   5.001   1.644   1.964
  159OCT     C8 4289   5.077   1.440   1.959
  159OCT    H81 4290   5.071   1.351   1.895
  159OCT    H82 4291   5.040   1.415   2.060
  159OCT     O1 4292   5.214   1.480   1.969
  159OCT    HO1 4293   5.260   1.405   2.007
  160OCT     C1 4294   3.233   3.235   5.994
  160OCT    H11 4295   3.333   3.276   5.970
  160OCT    H12 4296   3.230   3.210   6.103
  160OCT    H13 4297   3.219   3.140   5.937
  160OCT     C2 4298   3.124   3.336   5.959
  160OCT    H21 4299   3.143   3.430   6.016
  160OCT    H22 4300   3.131   3.360   5.851
  160OCT     C3 4301   2.981   3.287   5.990
  160OCT    H31 4302   2.963   3.194   5.932
  160OCT    H32 4303   2.974   3.264   6.098
  160OCT     C4 4304   2.874   3.391   5.953
  160OCT    H41 4305   2.892   3.484   6.011
  160OCT    H42 4306   2.881   3.414   5.845
  160OCT     C5 4307   2.731   3.342   5.984
  160OCT    H51 4308   2.712   3.248   5.927
  160OCT    H52 4309   2.723   3.318   6.092
  160OCT     C6 4310   2.624   3.446   5.948
  160OCT    H61 4311   2.642   3.539   6.005
  160OCT    H62 4312   2.631   3.469   5.839
  160OCT     C7 4313   2.481   3.396   5.978
  160OCT    H71 4314   2.462   3.303   5.921
  160OCT    H72 4315   2.473   3.373   6.087
  160OCT     C8 4316   2.374   3.501   5.942
  160OCT    H81 4317   2.378   3.524   5.834
  160OCT    H82 4318   2.390   3.594   5.999
  160OCT     O1 4319   2.243   3.451   5.972
  160OCT    HO1 4320   2.182   3.521   5.947
  161OCT     C1 4321   3.430   1.302   5.826
  161OCT    H11 4322   3.337   1.290   5.885
  161OCT    H12 4323   3.445   1.211   5.764
  161OCT    H13 4324   3.516   1.310   5.897
  161OCT     C2 4325   3.423   1.427   5.738
  161OCT    H21 4326   3.334   1.417   5.670
  161OCT    H22 4327   3.405   1.516   5.803
  161OCT     C3 4328   3.548   1.451   5.653
  161OCT    H31 4329   3.635   1.461   5.721
  161OCT    H32 4330   3.564   1.363   5.588
  161OCT     C4 4331   3.538   1.577   5.565
  161OCT    H41 4332   3.450   1.566   5.497
  161OCT    H42 4333   3.521   1.665   5.630
  161OCT     C5 4334   3.663   1.601   5.480
  161OCT    H51 4335   3.751   1.611   5.547
  161OCT    H52 4336   3.681   1.513   5.414
  161OCT     C6 4337   3.653   1.727   5.392
  161OCT    H61 4338   3.565   1.717   5.324
  161OCT    H62 4339   3.636   1.815   5.457
  161OCT     C7 4340   3.779   1.751   5.307
  161OCT    H71 4341   3.866   1.761   5.374
  161OCT    H72 4342   3.796   1.663   5.241
  161OCT     C8 4343   3.768   1.877   5.219
  161OCT    H81 4344   3.753   1.966   5.283
  161OCT    H82 4345   3.682   1.867   5.150
  161OCT     O1 4346   3.886   1.895   5.142
  161OCT    HO1 4347   3.872   1.975   5.091
  162OCT     C1 4348   2.390   2.846   0.778
  162OCT    H11 4349   2.482   2.902   0.804
  162OCT    H12 4350   2.392   2.747   0.829
  162OCT    H13 4351   2.389   2.827   0.668
  162OCT     C2 4352   2.265   2.924   0.819
  162OCT    H21 4353   2.269   2.943   0.929
  162OCT    H22 4354   2.267   3.023   0.768
  162OCT     C3 4355   2.133   2.854   0.786
  162OCT    H31 4356   2.128   2.836   0.677
  162OCT    H32 4357   2.131   2.755   0.838
  162OCT     C4 4358   2.009   2.935   0.829
  162OCT    H41 4359   2.013   2.953   0.938
  162OCT    H42 4360   2.011   3.033   0.777
  162OCT     C5 4361   1.877   2.864   0.796
  162OCT    H51 4362   1.872   2.845   0.686
  162OCT    H52 4363   1.874   2.765   0.847
  162OCT     C6 4364   1.754   2.945   0.838
  162OCT    H61 4365   1.758   2.963   0.948
  162OCT    H62 4366   1.755   3.043   0.787
  162OCT     C7 4367   1.621   2.874   0.805
  162OCT    H71 4368   1.616   2.856   0.696
  162OCT    H72 4369   1.619   2.776   0.857
  162OCT     C8 4370   1.498   2.956   0.848
  162OCT    H81 4371   1.497   3.053   0.796
  162OCT    H82 4372   1.500   2.973   0.957
  162OCT     O1 4373   1.377   2.886   0.815
  162OCT    HO1 4374   1.306   2.943   0.845
  163OCT     C1 4375   5.366   0.162   3.635
  163OCT    H11 4376   5.398   0.097   3.551
  163OCT    H12 4377   5.255   0.164   3.639
  163OCT    H13 4378   5.401   0.266   3.615
  163OCT     C2 4379   5.424   0.111   3.767
  163OCT    H21 4380   5.389   0.006   3.783
  163OCT    H22 4381   5.536   0.108   3.759
  163OCT     C3 4382   5.386   0.195   3.890
  163OCT    H31 4383   5.421   0.299   3.873
  163OCT    H32 4384   5.275   0.197   3.898
  163OCT     C4 4385   5.445   0.142   4.021
  163OCT    H41 4386   5.410   0.038   4.037
  163OCT    H42 4387   5.556   0.140   4.012
  163OCT     C5 4388   5.407   0.226   4.143
  163OCT    H51 4389   5.442   0.331   4.128
  163OCT    H52 4390   5.296   0.229   4.152
  163OCT     C6 4391   5.466   0.172   4.274
  163OCT    H61 4392   5.431   0.068   4.290
  163OCT    H62 4393   5.577   0.170   4.266
  163OCT     C7 4394   5.427   0.257   4.396
  163OCT    H71 4395   5.463   0.361   4.381
  163OCT    H72 4396   5.317   0.259   4.406
  163OCT     C8 4397   5.487   0.203   4.527
  163OCT    H81 4398   5.598   0.202   4.521
  163OCT    H82 4399   5.451   0.100   4.546
  163OCT     O1 4400   5.449   0.284   4.638
  163OCT    HO1 4401   5.489   0.245   4.715
  164OCT     C1 4402   0.619   0.685   0.247
  164OCT    H11 4403   0.724   0.712   0.266
  164OCT    H12 4404   0.615   0.583   0.204
  164OCT    H13 4405   0.577   0.756   0.173
  164OCT     C2 4406   0.538   0.690   0.377
  164OCT    H21 4407   0.584   0.620   0.451
  164OCT    H22 4408   0.545   0.793   0.420
  164OCT     C3 4409   0.390   0.654   0.361
  164OCT    H31 4410   0.344   0.725   0.288
  164OCT    H32 4411   0.383   0.551   0.319
  164OCT     C4 4412   0.311   0.660   0.493
  164OCT    H41 4413   0.357   0.590   0.565
  164OCT    H42 4414   0.318   0.763   0.534
  164OCT     C5 4415   0.163   0.624   0.476
  164OCT    H51 4416   0.116   0.694   0.403
  164OCT    H52 4417   0.155   0.521   0.434
  164OCT     C6 4418   0.085   0.630   0.608
  164OCT    H61 4419   0.130   0.560   0.681
  164OCT    H62 4420   0.092   0.733   0.650
  164OCT     C7 4421  -0.064   0.594   0.591
  164OCT    H71 4422  -0.111   0.665   0.519
  164OCT    H72 4423  -0.072   0.491   0.550
  164OCT     C8 4424  -0.142   0.601   0.724
  164OCT    H81 4425  -0.137   0.703   0.766
  164OCT    H82 4426  -0.099   0.530   0.796
  164OCT     O1 4427  -0.279   0.566   0.703
  164OCT    HO1 4428  -0.321   0.573   0.789
  165OCT     C1 4429   0.538   1.065   6.227
  165OCT    H11 4430   0.452   1.128   6.260
  165OCT    H12 4431   0.523   0.962   6.265
  165OCT    H13 4432   0.631   1.106   6.273
  165OCT     C2 4433   0.549   1.065   6.074
  165OCT    H21 4434   0.454   1.026   6.031
  165OCT    H22 4435   0.562   1.170   6.039
  165OCT     C3 4436   0.666   0.981   6.020
  165OCT    H31 4437   0.760   1.020   6.062
  165OCT    H32 4438   0.653   0.876   6.054
  165OCT     C4 4439   0.674   0.983   5.867
  165OCT    H41 4440   0.580   0.944   5.824
  165OCT    H42 4441   0.687   1.088   5.832
  165OCT     C5 4442   0.791   0.899   5.812
  165OCT    H51 4443   0.887   0.937   5.854
  165OCT    H52 4444   0.779   0.793   5.846
  165OCT     C6 4445   0.800   0.901   5.659
  165OCT    H61 4446   0.705   0.861   5.616
  165OCT    H62 4447   0.812   1.005   5.624
  165OCT     C7 4448   0.917   0.816   5.605
  165OCT    H71 4449   1.012   0.855   5.646
  165OCT    H72 4450   0.904   0.711   5.638
  165OCT     C8 4451   0.925   0.818   5.451
  165OCT    H81 4452   0.939   0.922   5.415
  165OCT    H82 4453   0.832   0.778   5.407
  165OCT     O1 4454   1.034   0.739   5.405
  165OCT    HO1 4455   1.033   0.745   5.310
  166OCT     C1 4456   0.775  -0.095   5.324
  166OCT    H11 4457   0.738  -0.079   5.428
  166OCT    H12 4458   0.690  -0.087   5.254
  166OCT    H13 4459   0.816  -0.198   5.317
  166OCT     C2 4460   0.884   0.007   5.289
  166OCT    H21 4461   0.841   0.110   5.300
  166OCT    H22 4462   0.967  -0.002   5.363
  166OCT     C3 4463   0.941  -0.008   5.148
  166OCT    H31 4464   0.984  -0.110   5.138
  166OCT    H32 4465   0.858   0.002   5.075
  166OCT     C4 4466   1.049   0.096   5.115
  166OCT    H41 4467   1.006   0.198   5.125
  166OCT    H42 4468   1.132   0.086   5.188
  166OCT     C5 4469   1.106   0.081   4.973
  166OCT    H51 4470   1.150  -0.021   4.962
  166OCT    H52 4471   1.024   0.090   4.899
  166OCT     C6 4472   1.215   0.185   4.941
  166OCT    H61 4473   1.172   0.286   4.951
  166OCT    H62 4474   1.298   0.175   5.014
  166OCT     C7 4475   1.272   0.169   4.799
  166OCT    H71 4476   1.315   0.067   4.788
  166OCT    H72 4477   1.189   0.179   4.725
  166OCT     C8 4478   1.380   0.273   4.767
  166OCT    H81 4479   1.465   0.263   4.838
  166OCT    H82 4480   1.338   0.375   4.775
  166OCT     O1 4481   1.430   0.255   4.634
  166OCT    HO1 4482   1.497   0.323   4.622
  167OCT     C1 4483   2.511   5.250   4.718
  167OCT    H11 4484   2.499   5.243   4.608
  167OCT    H12 4485   2.429   5.192   4.766
  167OCT    H13 4486   2.501   5.356   4.748
  167OCT     C2 4487   2.647   5.194   4.760
  167OCT    H21 4488   2.654   5.088   4.726
  167OCT    H22 4489   2.727   5.252   4.708
  167OCT     C3 4490   2.672   5.199   4.911
  167OCT    H31 4491   2.665   5.305   4.945
  167OCT    H32 4492   2.593   5.141   4.963
  167OCT     C4 4493   2.810   5.143   4.951
  167OCT    H41 4494   2.817   5.037   4.918
  167OCT    H42 4495   2.889   5.201   4.900
  167OCT     C5 4496   2.835   5.148   5.102
  167OCT    H51 4497   2.828   5.254   5.137
  167OCT    H52 4498   2.756   5.090   5.155
  167OCT     C6 4499   2.972   5.092   5.142
  167OCT    H61 4500   2.980   4.986   5.108
  167OCT    H62 4501   3.052   5.150   5.091
  167OCT     C7 4502   2.998   5.097   5.294
  167OCT    H71 4503   2.991   5.203   5.328
  167OCT    H72 4504   2.919   5.039   5.346
  167OCT     C8 4505   3.135   5.041   5.333
  167OCT    H81 4506   3.216   5.099   5.284
  167OCT    H82 4507   3.143   4.935   5.302
  167OCT     O1 4508   3.154   5.047   5.474
  167OCT    HO1 4509   3.241   5.011   5.491
  168OCT     C1 4510   0.264   2.562   1.703
  168OCT    H11 4511   0.262   2.612   1.802
  168OCT    H12 4512   0.160   2.558   1.664
  168OCT    H13 4513   0.300   2.458   1.716
  168OCT     C2 4514   0.354   2.638   1.606
  168OCT    H21 4515   0.317   2.743   1.597
  168OCT    H22 4516   0.457   2.643   1.650
  168OCT     C3 4517   0.363   2.576   1.466
  168OCT    H31 4518   0.400   2.472   1.476
  168OCT    H32 4519   0.260   2.572   1.423
  168OCT     C4 4520   0.454   2.654   1.371
  168OCT    H41 4521   0.416   2.758   1.361
  168OCT    H42 4522   0.556   2.659   1.414
  168OCT     C5 4523   0.462   2.593   1.231
  168OCT    H51 4524   0.500   2.488   1.239
  168OCT    H52 4525   0.360   2.588   1.187
  168OCT     C6 4526   0.554   2.671   1.136
  168OCT    H61 4527   0.516   2.775   1.126
  168OCT    H62 4528   0.656   2.675   1.179
  168OCT     C7 4529   0.562   2.608   0.995
  168OCT    H71 4530   0.600   2.504   1.004
  168OCT    H72 4531   0.460   2.604   0.951
  168OCT     C8 4532   0.654   2.687   0.900
  168OCT    H81 4533   0.756   2.691   0.941
  168OCT    H82 4534   0.616   2.791   0.889
  168OCT     O1 4535   0.658   2.626   0.772
  168OCT    HO1 4536   0.717   2.680   0.719
  169OCT     C1 4537   2.207   3.034   1.503
  169OCT    H11 4538   2.208   3.050   1.612
  169OCT    H12 4539   2.103   3.011   1.470
  169OCT    H13 4540   2.271   2.945   1.480
  169OCT     C2 4541   2.260   3.157   1.430
  169OCT    H21 4542   2.195   3.245   1.457
  169OCT    H22 4543   2.363   3.180   1.466
  169OCT     C3 4544   2.263   3.144   1.277
  169OCT    H31 4545   2.327   3.058   1.251
  169OCT    H32 4546   2.160   3.123   1.241
  169OCT     C4 4547   2.316   3.270   1.206
  169OCT    H41 4548   2.251   3.356   1.233
  169OCT    H42 4549   2.419   3.291   1.242
  169OCT     C5 4550   2.319   3.256   1.054
  169OCT    H51 4551   2.384   3.169   1.026
  169OCT    H52 4552   2.216   3.235   1.016
  169OCT     C6 4553   2.372   3.382   0.983
  169OCT    H61 4554   2.307   3.468   1.009
  169OCT    H62 4555   2.475   3.403   1.019
  169OCT     C7 4556   2.375   3.368   0.830
  169OCT    H71 4557   2.440   3.282   0.803
  169OCT    H72 4558   2.272   3.347   0.793
  169OCT     C8 4559   2.428   3.494   0.760
  169OCT    H81 4560   2.531   3.515   0.793
  169OCT    H82 4561   2.364   3.581   0.784
  169OCT     O1 4562   2.429   3.477   0.618
  169OCT    HO1 4563   2.463   3.558   0.582
  170OCT     C1 4564   2.599   4.529   4.349
  170OCT    H11 4565   2.580   4.545   4.457
  170OCT    H12 4566   2.686   4.592   4.319
  170OCT    H13 4567   2.511   4.564   4.292
  170OCT     C2 4568   2.628   4.382   4.321
  170OCT    H21 4569   2.715   4.350   4.382
  170OCT    H22 4570   2.540   4.322   4.354
  170OCT     C3 4571   2.656   4.350   4.173
  170OCT    H31 4572   2.568   4.382   4.113
  170OCT    H32 4573   2.744   4.410   4.141
  170OCT     C4 4574   2.684   4.201   4.148
  170OCT    H41 4575   2.772   4.170   4.208
  170OCT    H42 4576   2.596   4.142   4.181
  170OCT     C5 4577   2.712   4.170   4.001
  170OCT    H51 4578   2.625   4.201   3.939
  170OCT    H52 4579   2.800   4.229   3.967
  170OCT     C6 4580   2.740   4.021   3.975
  170OCT    H61 4581   2.828   3.990   4.035
  170OCT    H62 4582   2.653   3.961   4.008
  170OCT     C7 4583   2.769   3.990   3.827
  170OCT    H71 4584   2.681   4.021   3.766
  170OCT    H72 4585   2.857   4.049   3.794
  170OCT     C8 4586   2.797   3.841   3.802
  170OCT    H81 4587   2.709   3.780   3.833
  170OCT    H82 4588   2.885   3.808   3.860
  170OCT     O1 4589   2.822   3.816   3.664
  170OCT    HO1 4590   2.839   3.722   3.656
  171OCT     C1 4591   2.976   1.961   0.484
  171OCT    H11 4592   2.960   1.965   0.594
  171OCT    H12 4593   2.902   2.028   0.435
  171OCT    H13 4594   2.958   1.857   0.449
  171OCT     C2 4595   3.118   2.006   0.449
  171OCT    H21 4596   3.134   2.109   0.488
  171OCT    H22 4597   3.191   1.939   0.502
  171OCT     C3 4598   3.150   2.004   0.299
  171OCT    H31 4599   3.135   1.900   0.261
  171OCT    H32 4600   3.079   2.071   0.247
  171OCT     C4 4601   3.294   2.049   0.267
  171OCT    H41 4602   3.309   2.152   0.305
  171OCT    H42 4603   3.365   1.982   0.320
  171OCT     C5 4604   3.325   2.047   0.117
  171OCT    H51 4605   3.310   1.943   0.078
  171OCT    H52 4606   3.254   2.114   0.064
  171OCT     C6 4607   3.469   2.091   0.085
  171OCT    H61 4608   3.484   2.195   0.123
  171OCT    H62 4609   3.540   2.024   0.138
  171OCT     C7 4610   3.500   2.089  -0.065
  171OCT    H71 4611   3.485   1.986  -0.104
  171OCT    H72 4612   3.429   2.156  -0.118
  171OCT     C8 4613   3.644   2.134  -0.096
  171OCT    H81 4614   3.716   2.067  -0.046
  171OCT    H82 4615   3.660   2.238  -0.061
  171OCT     O1 4616   3.668   2.131  -0.237
  171OCT    HO1 4617   3.759   2.160  -0.248
  172OCT     C1 4618   1.821   0.498   3.837
  172OCT    H11 4619   1.773   0.446   3.923
  172OCT    H12 4620   1.865   0.421   3.770
  172OCT    H13 4621   1.903   0.562   3.876
  172OCT     C2 4622   1.718   0.583   3.762
  172OCT    H21 4623   1.635   0.516   3.727
  172OCT    H22 4624   1.674   0.657   3.833
  172OCT     C3 4625   1.775   0.658   3.641
  172OCT    H31 4626   1.857   0.724   3.676
  172OCT    H32 4627   1.818   0.584   3.571
  172OCT     C4 4628   1.670   0.742   3.568
  172OCT    H41 4629   1.588   0.676   3.532
  172OCT    H42 4630   1.627   0.816   3.638
  172OCT     C5 4631   1.727   0.817   3.447
  172OCT    H51 4632   1.810   0.884   3.481
  172OCT    H52 4633   1.771   0.744   3.375
  172OCT     C6 4634   1.622   0.902   3.373
  172OCT    H61 4635   1.540   0.835   3.338
  172OCT    H62 4636   1.579   0.976   3.444
  172OCT     C7 4637   1.680   0.977   3.252
  172OCT    H71 4638   1.762   1.044   3.286
  172OCT    H72 4639   1.723   0.904   3.181
  172OCT     C8 4640   1.574   1.061   3.179
  172OCT    H81 4641   1.531   1.137   3.247
  172OCT    H82 4642   1.493   0.996   3.142
  172OCT     O1 4643   1.632   1.129   3.067
  172OCT    HO1 4644   1.561   1.179   3.027
  173OCT     C1 4645   2.948   3.604   0.352
  173OCT    H11 4646   2.891   3.572   0.263
  173OCT    H12 4647   2.948   3.716   0.356
  173OCT    H13 4648   3.054   3.571   0.341
  173OCT     C2 4649   2.887   3.546   0.480
  173OCT    H21 4650   2.781   3.580   0.487
  173OCT    H22 4651   2.887   3.435   0.472
  173OCT     C3 4652   2.960   3.586   0.609
  173OCT    H31 4653   3.066   3.552   0.602
  173OCT    H32 4654   2.960   3.697   0.617
  173OCT     C4 4655   2.897   3.526   0.735
  173OCT    H41 4656   2.791   3.560   0.742
  173OCT    H42 4657   2.897   3.415   0.727
  173OCT     C5 4658   2.970   3.566   0.864
  173OCT    H51 4659   3.076   3.532   0.858
  173OCT    H52 4660   2.970   3.677   0.873
  173OCT     C6 4661   2.906   3.506   0.990
  173OCT    H61 4662   2.801   3.540   0.998
  173OCT    H62 4663   2.906   3.395   0.982
  173OCT     C7 4664   2.980   3.547   1.119
  173OCT    H71 4665   3.085   3.512   1.113
  173OCT    H72 4666   2.980   3.657   1.128
  173OCT     C8 4667   2.915   3.486   1.245
  173OCT    H81 4668   2.917   3.376   1.240
  173OCT    H82 4669   2.811   3.521   1.255
  173OCT     O1 4670   2.987   3.526   1.362
  173OCT    HO1 4671   2.941   3.485   1.436
  174OCT     C1 4672   2.776   2.421   6.156
  174OCT    H11 4673   2.820   2.400   6.256
  174OCT    H12 4674   2.768   2.532   6.143
  174OCT    H13 4675   2.673   2.379   6.152
  174OCT     C2 4676   2.863   2.361   6.046
  174OCT    H21 4677   2.966   2.404   6.054
  174OCT    H22 4678   2.871   2.251   6.062
  174OCT     C3 4679   2.810   2.386   5.903
  174OCT    H31 4680   2.708   2.343   5.896
  174OCT    H32 4681   2.803   2.495   5.887
  174OCT     C4 4682   2.900   2.324   5.795
  174OCT    H41 4683   3.002   2.367   5.803
  174OCT    H42 4684   2.907   2.215   5.811
  174OCT     C5 4685   2.847   2.349   5.653
  174OCT    H51 4686   2.744   2.306   5.644
  174OCT    H52 4687   2.839   2.459   5.635
  174OCT     C6 4688   2.936   2.287   5.544
  174OCT    H61 4689   3.038   2.331   5.552
  174OCT    H62 4690   2.944   2.178   5.560
  174OCT     C7 4691   2.883   2.312   5.402
  174OCT    H71 4692   2.781   2.269   5.393
  174OCT    H72 4693   2.876   2.422   5.384
  174OCT     C8 4694   2.973   2.250   5.293
  174OCT    H81 4695   2.980   2.141   5.307
  174OCT    H82 4696   3.075   2.294   5.299
  174OCT     O1 4697   2.920   2.276   5.163
  174OCT    HO1 4698   2.981   2.235   5.102
  175OCT     C1 4699   1.306   2.766   0.647
  175OCT    H11 4700   1.299   2.657   0.627
  175OCT    H12 4701   1.413   2.796   0.643
  175OCT    H13 4702   1.268   2.785   0.750
  175OCT     C2 4703   1.225   2.844   0.544
  175OCT    H21 4704   1.263   2.820   0.442
  175OCT    H22 4705   1.119   2.810   0.548
  175OCT     C3 4706   1.229   2.996   0.564
  175OCT    H31 4707   1.190   3.020   0.665
  175OCT    H32 4708   1.335   3.030   0.559
  175OCT     C4 4709   1.146   3.073   0.459
  175OCT    H41 4710   1.185   3.049   0.358
  175OCT    H42 4711   1.041   3.039   0.464
  175OCT     C5 4712   1.150   3.225   0.479
  175OCT    H51 4713   1.111   3.250   0.580
  175OCT    H52 4714   1.256   3.260   0.474
  175OCT     C6 4715   1.068   3.301   0.374
  175OCT    H61 4716   1.107   3.278   0.273
  175OCT    H62 4717   0.962   3.268   0.379
  175OCT     C7 4718   1.072   3.454   0.395
  175OCT    H71 4719   1.033   3.478   0.496
  175OCT    H72 4720   1.178   3.489   0.389
  175OCT     C8 4721   0.989   3.530   0.289
  175OCT    H81 4722   0.884   3.499   0.295
  175OCT    H82 4723   1.028   3.509   0.188
  175OCT     O1 4724   0.996   3.671   0.312
  175OCT    HO1 4725   0.943   3.711   0.243
  176OCT     C1 4726   1.103   3.535   4.086
  176OCT    H11 4727   1.171   3.522   4.172
  176OCT    H12 4728   1.136   3.624   4.028
  176OCT    H13 4729   1.001   3.555   4.124
  176OCT     C2 4730   1.104   3.410   3.997
  176OCT    H21 4731   1.208   3.392   3.962
  176OCT    H22 4732   1.072   3.323   4.059
  176OCT     C3 4733   1.012   3.420   3.875
  176OCT    H31 4734   0.908   3.438   3.910
  176OCT    H32 4735   1.043   3.507   3.813
  176OCT     C4 4736   1.014   3.293   3.788
  176OCT    H41 4737   1.118   3.275   3.753
  176OCT    H42 4738   0.982   3.206   3.849
  176OCT     C5 4739   0.922   3.303   3.665
  176OCT    H51 4740   0.818   3.321   3.699
  176OCT    H52 4741   0.953   3.390   3.603
  176OCT     C6 4742   0.925   3.176   3.578
  176OCT    H61 4743   1.029   3.158   3.543
  176OCT    H62 4744   0.893   3.089   3.639
  176OCT     C7 4745   0.832   3.186   3.455
  176OCT    H71 4746   0.728   3.204   3.490
  176OCT    H72 4747   0.864   3.273   3.393
  176OCT     C8 4748   0.835   3.059   3.368
  176OCT    H81 4749   0.803   2.972   3.428
  176OCT    H82 4750   0.938   3.041   3.332
  176OCT     O1 4751   0.749   3.073   3.256
  176OCT    HO1 4752   0.756   2.991   3.207
  177OCT     C1 4753   4.389   0.962   4.469
  177OCT    H11 4754   4.344   0.998   4.564
  177OCT    H12 4755   4.332   0.872   4.435
  177OCT    H13 4756   4.493   0.930   4.490
  177OCT     C2 4757   4.386   1.071   4.363
  177OCT    H21 4758   4.280   1.102   4.346
  177OCT    H22 4759   4.442   1.160   4.401
  177OCT     C3 4760   4.447   1.030   4.228
  177OCT    H31 4761   4.552   0.999   4.245
  177OCT    H32 4762   4.391   0.942   4.190
  177OCT     C4 4763   4.443   1.141   4.123
  177OCT    H41 4764   4.337   1.172   4.106
  177OCT    H42 4765   4.499   1.229   4.161
  177OCT     C5 4766   4.504   1.100   3.988
  177OCT    H51 4767   4.610   1.069   4.004
  177OCT    H52 4768   4.448   1.011   3.949
  177OCT     C6 4769   4.499   1.212   3.883
  177OCT    H61 4770   4.394   1.242   3.866
  177OCT    H62 4771   4.555   1.300   3.921
  177OCT     C7 4772   4.561   1.169   3.748
  177OCT    H71 4773   4.666   1.139   3.764
  177OCT    H72 4774   4.505   1.082   3.709
  177OCT     C8 4775   4.556   1.282   3.643
  177OCT    H81 4776   4.613   1.370   3.680
  177OCT    H82 4777   4.451   1.312   3.625
  177OCT     O1 4778   4.614   1.239   3.520
  177OCT    HO1 4779   4.607   1.313   3.461
  178OCT     C1 4780   4.137   5.532   1.678
  178OCT    H11 4781   4.161   5.553   1.784
  178OCT    H12 4782   4.204   5.450   1.642
  178OCT    H13 4783   4.159   5.623   1.617
  178OCT     C2 4784   3.991   5.491   1.663
  178OCT    H21 4785   3.972   5.401   1.726
  178OCT    H22 4786   3.926   5.574   1.702
  178OCT     C3 4787   3.948   5.460   1.519
  178OCT    H31 4788   3.967   5.549   1.456
  178OCT    H32 4789   4.012   5.377   1.480
  178OCT     C4 4790   3.801   5.419   1.507
  178OCT    H41 4791   3.782   5.329   1.569
  178OCT    H42 4792   3.737   5.502   1.545
  178OCT     C5 4793   3.758   5.388   1.363
  178OCT    H51 4794   3.777   5.477   1.298
  178OCT    H52 4795   3.822   5.305   1.323
  178OCT     C6 4796   3.611   5.347   1.350
  178OCT    H61 4797   3.592   5.257   1.413
  178OCT    H62 4798   3.547   5.430   1.389
  178OCT     C7 4799   3.569   5.316   1.206
  178OCT    H71 4800   3.587   5.405   1.142
  178OCT    H72 4801   3.632   5.233   1.167
  178OCT     C8 4802   3.421   5.275   1.194
  178OCT    H81 4803   3.356   5.357   1.231
  178OCT    H82 4804   3.402   5.185   1.255
  178OCT     O1 4805   3.387   5.247   1.059
  178OCT    HO1 4806   3.294   5.223   1.060
  179OCT     C1 4807   3.208   5.081   2.037
  179OCT    H11 4808   3.311   5.081   2.077
  179OCT    H12 4809   3.145   5.015   2.101
  179OCT    H13 4810   3.210   5.038   1.934
  179OCT     C2 4811   3.151   5.223   2.034
  179OCT    H21 4812   3.152   5.264   2.138
  179OCT    H22 4813   3.217   5.287   1.971
  179OCT     C3 4814   3.008   5.232   1.979
  179OCT    H31 4815   3.007   5.191   1.876
  179OCT    H32 4816   2.942   5.169   2.042
  179OCT     C4 4817   2.953   5.376   1.977
  179OCT    H41 4818   2.954   5.416   2.081
  179OCT    H42 4819   3.019   5.439   1.915
  179OCT     C5 4820   2.810   5.385   1.923
  179OCT    H51 4821   2.808   5.344   1.819
  179OCT    H52 4822   2.743   5.322   1.985
  179OCT     C6 4823   2.756   5.529   1.921
  179OCT    H61 4824   2.757   5.569   2.024
  179OCT    H62 4825   2.822   5.592   1.858
  179OCT     C7 4826   2.612   5.537   1.866
  179OCT    H71 4827   2.610   5.497   1.762
  179OCT    H72 4828   2.545   5.475   1.929
  179OCT     C8 4829   2.558   5.682   1.864
  179OCT    H81 4830   2.622   5.745   1.801
  179OCT    H82 4831   2.557   5.723   1.967
  179OCT     O1 4832   2.425   5.685   1.813
  179OCT    HO1 4833   2.399   5.777   1.815
  180OCT     C1 4834   1.189   3.806   3.557
  180OCT    H11 4835   1.241   3.885   3.616
  180OCT    H12 4836   1.100   3.772   3.613
  180OCT    H13 4837   1.258   3.720   3.545
  180OCT     C2 4838   1.148   3.861   3.420
  180OCT    H21 4839   1.081   3.949   3.435
  180OCT    H22 4840   1.239   3.897   3.366
  180OCT     C3 4841   1.075   3.759   3.331
  180OCT    H31 4842   1.142   3.672   3.315
  180OCT    H32 4843   0.984   3.724   3.384
  180OCT     C4 4844   1.035   3.816   3.194
  180OCT    H41 4845   0.968   3.903   3.210
  180OCT    H42 4846   1.126   3.851   3.141
  180OCT     C5 4847   0.962   3.714   3.105
  180OCT    H51 4848   1.029   3.626   3.089
  180OCT    H52 4849   0.871   3.678   3.158
  180OCT     C6 4850   0.922   3.772   2.969
  180OCT    H61 4851   0.855   3.859   2.984
  180OCT    H62 4852   1.013   3.807   2.915
  180OCT     C7 4853   0.849   3.669   2.880
  180OCT    H71 4854   0.916   3.582   2.863
  180OCT    H72 4855   0.758   3.634   2.932
  180OCT     C8 4856   0.809   3.727   2.743
  180OCT    H81 4857   0.899   3.761   2.688
  180OCT    H82 4858   0.741   3.813   2.757
  180OCT     O1 4859   0.742   3.629   2.664
  180OCT    HO1 4860   0.720   3.672   2.582
  181OCT     C1 4861   2.914   5.231   2.922
  181OCT    H11 4862   2.980   5.297   2.982
  181OCT    H12 4863   2.809   5.259   2.942
  181OCT    H13 4864   2.929   5.126   2.955
  181OCT     C2 4865   2.946   5.245   2.773
  181OCT    H21 4866   2.933   5.352   2.743
  181OCT    H22 4867   3.053   5.218   2.757
  181OCT     C3 4868   2.859   5.157   2.682
  181OCT    H31 4869   2.873   5.051   2.711
  181OCT    H32 4870   2.752   5.184   2.698
  181OCT     C4 4871   2.893   5.173   2.533
  181OCT    H41 4872   2.879   5.279   2.504
  181OCT    H42 4873   2.999   5.146   2.517
  181OCT     C5 4874   2.806   5.086   2.442
  181OCT    H51 4875   2.819   4.978   2.470
  181OCT    H52 4876   2.699   5.112   2.457
  181OCT     C6 4877   2.840   5.101   2.293
  181OCT    H61 4878   2.826   5.208   2.263
  181OCT    H62 4879   2.946   5.075   2.277
  181OCT     C7 4880   2.752   5.013   2.202
  181OCT    H71 4881   2.766   4.907   2.230
  181OCT    H72 4882   2.645   5.040   2.217
  181OCT     C8 4883   2.787   5.030   2.053
  181OCT    H81 4884   2.892   5.002   2.035
  181OCT    H82 4885   2.772   5.135   2.022
  181OCT     O1 4886   2.703   4.947   1.972
  181OCT    HO1 4887   2.731   4.962   1.882
  182OCT     C1 4888   1.571   2.550   3.816
  182OCT    H11 4889   1.571   2.660   3.800
  182OCT    H12 4890   1.576   2.500   3.717
  182OCT    H13 4891   1.474   2.522   3.864
  182OCT     C2 4892   1.688   2.508   3.905
  182OCT    H21 4893   1.783   2.540   3.856
  182OCT    H22 4894   1.681   2.563   4.002
  182OCT     C3 4895   1.695   2.358   3.933
  182OCT    H31 4896   1.600   2.326   3.982
  182OCT    H32 4897   1.703   2.304   3.836
  182OCT     C4 4898   1.813   2.318   4.022
  182OCT    H41 4899   1.908   2.349   3.973
  182OCT    H42 4900   1.805   2.372   4.119
  182OCT     C5 4901   1.820   2.167   4.050
  182OCT    H51 4902   1.726   2.135   4.100
  182OCT    H52 4903   1.828   2.112   3.953
  182OCT     C6 4904   1.939   2.128   4.139
  182OCT    H61 4905   2.033   2.159   4.090
  182OCT    H62 4906   1.931   2.182   4.236
  182OCT     C7 4907   1.945   1.977   4.167
  182OCT    H71 4908   1.851   1.945   4.217
  182OCT    H72 4909   1.954   1.922   4.071
  182OCT     C8 4910   2.064   1.938   4.256
  182OCT    H81 4911   2.057   1.990   4.354
  182OCT    H82 4912   2.159   1.967   4.208
  182OCT     O1 4913   2.067   1.797   4.280
  182OCT    HO1 4914   2.143   1.781   4.335
  183OCT     C1 4915   0.732   3.697   4.335
  183OCT    H11 4916   0.654   3.621   4.311
  183OCT    H12 4917   0.688   3.798   4.322
  183OCT    H13 4918   0.815   3.686   4.262
  183OCT     C2 4919   0.783   3.678   4.478
  183OCT    H21 4920   0.696   3.686   4.548
  183OCT    H22 4921   0.823   3.574   4.488
  183OCT     C3 4922   0.891   3.778   4.520
  183OCT    H31 4923   0.977   3.768   4.450
  183OCT    H32 4924   0.850   3.880   4.510
  183OCT     C4 4925   0.940   3.756   4.664
  183OCT    H41 4926   0.854   3.766   4.733
  183OCT    H42 4927   0.981   3.653   4.673
  183OCT     C5 4928   1.048   3.856   4.706
  183OCT    H51 4929   1.135   3.847   4.637
  183OCT    H52 4930   1.008   3.960   4.697
  183OCT     C6 4931   1.097   3.834   4.850
  183OCT    H61 4932   1.011   3.844   4.920
  183OCT    H62 4933   1.139   3.732   4.860
  183OCT     C7 4934   1.206   3.935   4.892
  183OCT    H71 4935   1.293   3.926   4.823
  183OCT    H72 4936   1.166   4.038   4.883
  183OCT     C8 4937   1.255   3.913   5.036
  183OCT    H81 4938   1.298   3.812   5.047
  183OCT    H82 4939   1.170   3.924   5.107
  183OCT     O1 4940   1.355   4.008   5.071
  183OCT    HO1 4941   1.380   3.988   5.161
  184OCT     C1 4942   0.979   1.286   0.637
  184OCT    H11 4943   0.987   1.269   0.527
  184OCT    H12 4944   0.871   1.292   0.664
  184OCT    H13 4945   1.027   1.383   0.662
  184OCT     C2 4946   1.046   1.171   0.713
  184OCT    H21 4947   0.997   1.075   0.684
  184OCT    H22 4948   1.153   1.166   0.682
  184OCT     C3 4949   1.039   1.186   0.866
  184OCT    H31 4950   1.089   1.281   0.894
  184OCT    H32 4951   0.933   1.191   0.896
  184OCT     C4 4952   1.108   1.070   0.940
  184OCT    H41 4953   1.059   0.974   0.911
  184OCT    H42 4954   1.214   1.065   0.909
  184OCT     C5 4955   1.101   1.084   1.092
  184OCT    H51 4956   1.150   1.179   1.122
  184OCT    H52 4957   0.995   1.089   1.124
  184OCT     C6 4958   1.170   0.968   1.166
  184OCT    H61 4959   1.120   0.872   1.138
  184OCT    H62 4960   1.276   0.963   1.136
  184OCT     C7 4961   1.163   0.983   1.320
  184OCT    H71 4962   1.212   1.078   1.349
  184OCT    H72 4963   1.057   0.987   1.351
  184OCT     C8 4964   1.232   0.866   1.393
  184OCT    H81 4965   1.338   0.861   1.365
  184OCT    H82 4966   1.183   0.771   1.367
  184OCT     O1 4967   1.223   0.884   1.534
  184OCT    HO1 4968   1.268   0.808   1.573
  185OCT     C1 4969   4.101   4.430   5.823
  185OCT    H11 4970   4.151   4.425   5.922
  185OCT    H12 4971   4.003   4.481   5.835
  185OCT    H13 4972   4.081   4.326   5.788
  185OCT     C2 4973   4.188   4.504   5.722
  185OCT    H21 4974   4.208   4.607   5.761
  185OCT    H22 4975   4.286   4.452   5.714
  185OCT     C3 4976   4.127   4.516   5.582
  185OCT    H31 4977   4.108   4.414   5.543
  185OCT    H32 4978   4.029   4.569   5.591
  185OCT     C4 4979   4.217   4.592   5.483
  185OCT    H41 4980   4.236   4.694   5.522
  185OCT    H42 4981   4.314   4.539   5.475
  185OCT     C5 4982   4.155   4.604   5.343
  185OCT    H51 4983   4.135   4.502   5.303
  185OCT    H52 4984   4.057   4.657   5.350
  185OCT     C6 4985   4.245   4.679   5.244
  185OCT    H61 4986   4.264   4.781   5.283
  185OCT    H62 4987   4.342   4.626   5.236
  185OCT     C7 4988   4.183   4.691   5.104
  185OCT    H71 4989   4.164   4.589   5.064
  185OCT    H72 4990   4.086   4.744   5.111
  185OCT     C8 4991   4.274   4.767   5.005
  185OCT    H81 4992   4.370   4.714   4.994
  185OCT    H82 4993   4.292   4.869   5.042
  185OCT     O1 4994   4.212   4.775   4.876
  185OCT    HO1 4995   4.274   4.823   4.821
  186OCT     C1 4996   0.688   0.815   3.356
  186OCT    H11 4997   0.645   0.727   3.408
  186OCT    H12 4998   0.793   0.828   3.389
  186OCT    H13 4999   0.631   0.906   3.387
  186OCT     C2 5000   0.681   0.797   3.205
  186OCT    H21 5001   0.737   0.704   3.177
  186OCT    H22 5002   0.575   0.782   3.175
  186OCT     C3 5003   0.739   0.914   3.124
  186OCT    H31 5004   0.683   1.006   3.151
  186OCT    H32 5005   0.845   0.928   3.154
  186OCT     C4 5006   0.731   0.893   2.973
  186OCT    H41 5007   0.787   0.801   2.946
  186OCT    H42 5008   0.625   0.879   2.943
  186OCT     C5 5009   0.789   1.010   2.892
  186OCT    H51 5010   0.733   1.103   2.919
  186OCT    H52 5011   0.896   1.025   2.921
  186OCT     C6 5012   0.781   0.989   2.740
  186OCT    H61 5013   0.837   0.897   2.714
  186OCT    H62 5014   0.675   0.975   2.711
  186OCT     C7 5015   0.839   1.107   2.661
  186OCT    H71 5016   0.783   1.199   2.686
  186OCT    H72 5017   0.946   1.121   2.689
  186OCT     C8 5018   0.831   1.085   2.508
  186OCT    H81 5019   0.726   1.072   2.477
  186OCT    H82 5020   0.888   0.994   2.480
  186OCT     O1 5021   0.886   1.196   2.438
  186OCT    HO1 5022   0.877   1.176   2.345
  187OCT     C1 5023   4.521   5.589   5.054
  187OCT    H11 5024   4.487   5.597   4.949
  187OCT    H12 5025   4.588   5.674   5.077
  187OCT    H13 5026   4.579   5.495   5.066
  187OCT     C2 5027   4.401   5.590   5.149
  187OCT    H21 5028   4.343   5.684   5.133
  187OCT    H22 5029   4.333   5.504   5.122
  187OCT     C3 5030   4.437   5.578   5.297
  187OCT    H31 5031   4.494   5.484   5.313
  187OCT    H32 5032   4.503   5.664   5.324
  187OCT     C4 5033   4.315   5.579   5.390
  187OCT    H41 5034   4.258   5.673   5.374
  187OCT    H42 5035   4.249   5.494   5.363
  187OCT     C5 5036   4.351   5.568   5.538
  187OCT    H51 5037   4.409   5.474   5.555
  187OCT    H52 5038   4.418   5.653   5.566
  187OCT     C6 5039   4.229   5.569   5.631
  187OCT    H61 5040   4.172   5.663   5.616
  187OCT    H62 5041   4.163   5.483   5.604
  187OCT     C7 5042   4.266   5.557   5.780
  187OCT    H71 5043   4.323   5.463   5.796
  187OCT    H72 5044   4.332   5.643   5.807
  187OCT     C8 5045   4.143   5.558   5.872
  187OCT    H81 5046   4.077   5.473   5.848
  187OCT    H82 5047   4.086   5.652   5.859
  187OCT     O1 5048   4.182   5.548   6.009
  187OCT    HO1 5049   4.101   5.549   6.059
  188OCT     C1 5050   3.429   0.386   4.553
  188OCT    H11 5051   3.534   0.420   4.559
  188OCT    H12 5052   3.424   0.296   4.488
  188OCT    H13 5053   3.368   0.466   4.505
  188OCT     C2 5054   3.375   0.354   4.692
  188OCT    H21 5055   3.440   0.275   4.738
  188OCT    H22 5056   3.384   0.445   4.756
  188OCT     C3 5057   3.230   0.305   4.695
  188OCT    H31 5058   3.166   0.384   4.649
  188OCT    H32 5059   3.222   0.214   4.632
  188OCT     C4 5060   3.179   0.274   4.836
  188OCT    H41 5061   3.243   0.195   4.881
  188OCT    H42 5062   3.186   0.365   4.898
  188OCT     C5 5063   3.033   0.225   4.838
  188OCT    H51 5064   2.968   0.304   4.792
  188OCT    H52 5065   3.024   0.133   4.775
  188OCT     C6 5066   2.982   0.194   4.979
  188OCT    H61 5067   3.046   0.115   5.025
  188OCT    H62 5068   2.990   0.285   5.042
  188OCT     C7 5069   2.836   0.145   4.981
  188OCT    H71 5070   2.771   0.224   4.936
  188OCT    H72 5071   2.828   0.054   4.919
  188OCT     C8 5072   2.786   0.114   5.123
  188OCT    H81 5073   2.791   0.205   5.186
  188OCT    H82 5074   2.848   0.035   5.168
  188OCT     O1 5075   2.650   0.069   5.119
  188OCT    HO1 5076   2.626   0.052   5.210
  189OCT     C1 5077   2.042   3.433   3.141
  189OCT    H11 5078   1.946   3.379   3.133
  189OCT    H12 5079   2.111   3.375   3.205
  189OCT    H13 5080   2.024   3.531   3.190
  189OCT     C2 5081   2.104   3.454   3.002
  189OCT    H21 5082   2.119   3.354   2.954
  189OCT    H22 5083   2.031   3.511   2.939
  189OCT     C3 5084   2.238   3.528   3.003
  189OCT    H31 5085   2.223   3.628   3.050
  189OCT    H32 5086   2.310   3.471   3.066
  189OCT     C4 5087   2.297   3.548   2.863
  189OCT    H41 5088   2.312   3.448   2.816
  189OCT    H42 5089   2.225   3.605   2.801
  189OCT     C5 5090   2.431   3.622   2.864
  189OCT    H51 5091   2.417   3.722   2.911
  189OCT    H52 5092   2.504   3.566   2.927
  189OCT     C6 5093   2.491   3.641   2.724
  189OCT    H61 5094   2.506   3.542   2.677
  189OCT    H62 5095   2.419   3.699   2.661
  189OCT     C7 5096   2.625   3.716   2.725
  189OCT    H71 5097   2.611   3.816   2.772
  189OCT    H72 5098   2.698   3.659   2.787
  189OCT     C8 5099   2.684   3.735   2.584
  189OCT    H81 5100   2.614   3.794   2.522
  189OCT    H82 5101   2.701   3.637   2.537
  189OCT     O1 5102   2.808   3.805   2.591
  189OCT    HO1 5103   2.839   3.813   2.500
  190OCT     C1 5104   1.318   2.477   2.737
  190OCT    H11 5105   1.302   2.481   2.628
  190OCT    H12 5106   1.352   2.577   2.772
  190OCT    H13 5107   1.399   2.404   2.759
  190OCT     C2 5108   1.189   2.436   2.809
  190OCT    H21 5109   1.109   2.510   2.784
  190OCT    H22 5110   1.156   2.337   2.771
  190OCT     C3 5111   1.202   2.428   2.962
  190OCT    H31 5112   1.281   2.354   2.987
  190OCT    H32 5113   1.234   2.528   3.000
  190OCT     C4 5114   1.071   2.387   3.031
  190OCT    H41 5115   0.992   2.461   3.006
  190OCT    H42 5116   1.039   2.288   2.993
  190OCT     C5 5117   1.084   2.379   3.184
  190OCT    H51 5118   1.164   2.306   3.210
  190OCT    H52 5119   1.116   2.479   3.223
  190OCT     C6 5120   0.953   2.339   3.253
  190OCT    H61 5121   0.874   2.412   3.229
  190OCT    H62 5122   0.922   2.239   3.216
  190OCT     C7 5123   0.967   2.331   3.407
  190OCT    H71 5124   1.046   2.257   3.432
  190OCT    H72 5125   0.999   2.430   3.445
  190OCT     C8 5126   0.836   2.290   3.476
  190OCT    H81 5127   0.804   2.190   3.440
  190OCT    H82 5128   0.756   2.363   3.453
  190OCT     O1 5129   0.853   2.284   3.617
  190OCT    HO1 5130   0.768   2.258   3.653
  191OCT     C1 5131   0.221   4.991   5.207
  191OCT    H11 5132   0.199   5.080   5.145
  191OCT    H12 5133   0.322   4.954   5.182
  191OCT    H13 5134   0.148   4.911   5.182
  191OCT     C2 5135   0.212   5.025   5.356
  191OCT    H21 5136   0.284   5.107   5.378
  191OCT    H22 5137   0.109   5.064   5.378
  191OCT     C3 5138   0.240   4.908   5.450
  191OCT    H31 5139   0.168   4.826   5.428
  191OCT    H32 5140   0.343   4.869   5.429
  191OCT     C4 5141   0.231   4.945   5.598
  191OCT    H41 5142   0.303   5.026   5.620
  191OCT    H42 5143   0.129   4.983   5.620
  191OCT     C5 5144   0.260   4.827   5.692
  191OCT    H51 5145   0.187   4.745   5.671
  191OCT    H52 5146   0.362   4.788   5.672
  191OCT     C6 5147   0.250   4.865   5.841
  191OCT    H61 5148   0.323   4.946   5.863
  191OCT    H62 5149   0.148   4.903   5.862
  191OCT     C7 5150   0.279   4.746   5.935
  191OCT    H71 5151   0.206   4.664   5.914
  191OCT    H72 5152   0.381   4.707   5.914
  191OCT     C8 5153   0.269   4.784   6.083
  191OCT    H81 5154   0.167   4.821   6.106
  191OCT    H82 5155   0.342   4.864   6.107
  191OCT     O1 5156   0.296   4.672   6.166
  191OCT    HO1 5157   0.289   4.703   6.257
  192OCT     C1 5158   1.593   2.512   5.309
  192OCT    H11 5159   1.567   2.559   5.212
  192OCT    H12 5160   1.702   2.525   5.327
  192OCT    H13 5161   1.572   2.403   5.302
  192OCT     C2 5162   1.512   2.575   5.422
  192OCT    H21 5163   1.533   2.684   5.425
  192OCT    H22 5164   1.403   2.562   5.400
  192OCT     C3 5165   1.540   2.515   5.561
  192OCT    H31 5166   1.519   2.407   5.558
  192OCT    H32 5167   1.648   2.529   5.583
  192OCT     C4 5168   1.457   2.580   5.673
  192OCT    H41 5169   1.479   2.689   5.676
  192OCT    H42 5170   1.349   2.567   5.650
  192OCT     C5 5171   1.486   2.521   5.811
  192OCT    H51 5172   1.465   2.411   5.809
  192OCT    H52 5173   1.594   2.534   5.835
  192OCT     C6 5174   1.403   2.586   5.923
  192OCT    H61 5175   1.425   2.695   5.926
  192OCT    H62 5176   1.295   2.573   5.900
  192OCT     C7 5177   1.432   2.526   6.062
  192OCT    H71 5178   1.410   2.417   6.060
  192OCT    H72 5179   1.540   2.539   6.085
  192OCT     C8 5180   1.349   2.591   6.173
  192OCT    H81 5181   1.241   2.578   6.153
  192OCT    H82 5182   1.371   2.700   6.178
  192OCT     O1 5183   1.379   2.533   6.300
  192OCT    HO1 5184   1.324   2.578   6.363
  193OCT     C1 5185   2.783   5.673   4.775
  193OCT    H11 5186   2.678   5.638   4.785
  193OCT    H12 5187   2.789   5.741   4.687
  193OCT    H13 5188   2.848   5.585   4.755
  193OCT     C2 5189   2.828   5.746   4.901
  193OCT    H21 5190   2.759   5.832   4.920
  193OCT    H22 5191   2.818   5.676   4.988
  193OCT     C3 5192   2.972   5.798   4.896
  193OCT    H31 5193   3.040   5.713   4.879
  193OCT    H32 5194   2.981   5.868   4.810
  193OCT     C4 5195   3.014   5.871   5.025
  193OCT    H41 5196   2.946   5.957   5.042
  193OCT    H42 5197   3.005   5.801   5.111
  193OCT     C5 5198   3.158   5.924   5.020
  193OCT    H51 5199   3.228   5.838   5.002
  193OCT    H52 5200   3.169   5.994   4.933
  193OCT     C6 5201   3.201   5.996   5.148
  193OCT    H61 5202   3.132   6.082   5.166
  193OCT    H62 5203   3.192   5.926   5.234
  193OCT     C7 5204   3.345   6.049   5.142
  193OCT    H71 5205   3.414   5.963   5.125
  193OCT    H72 5206   3.355   6.119   5.057
  193OCT     C8 5207   3.387   6.121   5.271
  193OCT    H81 5208   3.380   6.052   5.357
  193OCT    H82 5209   3.321   6.208   5.289
  193OCT     O1 5210   3.521   6.168   5.262
  193OCT    HO1 5211   3.540   6.212   5.345
  194OCT     C1 5212   3.454   4.370   4.457
  194OCT    H11 5213   3.413   4.277   4.501
  194OCT    H12 5214   3.374   4.448   4.458
  194OCT    H13 5215   3.480   4.351   4.351
  194OCT     C2 5216   3.576   4.418   4.535
  194OCT    H21 5217   3.547   4.435   4.641
  194OCT    H22 5218   3.653   4.337   4.533
  194OCT     C3 5219   3.639   4.547   4.480
  194OCT    H31 5220   3.669   4.530   4.375
  194OCT    H32 5221   3.562   4.627   4.482
  194OCT     C4 5222   3.762   4.592   4.560
  194OCT    H41 5223   3.732   4.609   4.666
  194OCT    H42 5224   3.839   4.512   4.558
  194OCT     C5 5225   3.825   4.721   4.506
  194OCT    H51 5226   3.855   4.706   4.400
  194OCT    H52 5227   3.749   4.803   4.508
  194OCT     C6 5228   3.948   4.767   4.586
  194OCT    H61 5229   3.918   4.784   4.692
  194OCT    H62 5230   4.024   4.687   4.584
  194OCT     C7 5231   4.010   4.896   4.531
  194OCT    H71 5232   4.041   4.880   4.426
  194OCT    H72 5233   3.934   4.977   4.533
  194OCT     C8 5234   4.134   4.941   4.612
  194OCT    H81 5235   4.211   4.863   4.609
  194OCT    H82 5236   4.105   4.960   4.717
  194OCT     O1 5237   4.188   5.061   4.558
  194OCT    HO1 5238   4.264   5.083   4.613
  195OCT     C1 5239   4.741   0.851   1.234
  195OCT    H11 5240   4.681   0.887   1.320
  195OCT    H12 5241   4.747   0.740   1.239
  195OCT    H13 5242   4.844   0.891   1.242
  195OCT     C2 5243   4.677   0.894   1.102
  195OCT    H21 5244   4.573   0.854   1.098
  195OCT    H22 5245   4.670   1.005   1.100
  195OCT     C3 5246   4.753   0.847   0.977
  195OCT    H31 5247   4.856   0.888   0.981
  195OCT    H32 5248   4.759   0.736   0.978
  195OCT     C4 5249   4.686   0.892   0.846
  195OCT    H41 5250   4.583   0.852   0.842
  195OCT    H42 5251   4.680   1.003   0.844
  195OCT     C5 5252   4.762   0.846   0.721
  195OCT    H51 5253   4.866   0.886   0.724
  195OCT    H52 5254   4.769   0.734   0.721
  195OCT     C6 5255   4.695   0.891   0.590
  195OCT    H61 5256   4.592   0.850   0.586
  195OCT    H62 5257   4.689   1.001   0.588
  195OCT     C7 5258   4.772   0.843   0.465
  195OCT    H71 5259   4.875   0.884   0.468
  195OCT    H72 5260   4.778   0.733   0.465
  195OCT     C8 5261   4.704   0.889   0.334
  195OCT    H81 5262   4.699   0.999   0.330
  195OCT    H82 5263   4.602   0.848   0.328
  195OCT     O1 5264   4.778   0.843   0.221
  195OCT    HO1 5265   4.731   0.875   0.144
  196OCT     C1 5266   5.061   3.639   0.487
  196OCT    H11 5267   4.992   3.621   0.572
  196OCT    H12 5268   5.138   3.559   0.488
  196OCT    H13 5269   5.111   3.736   0.502
  196OCT     C2 5270   4.984   3.638   0.355
  196OCT    H21 5271   4.932   3.539   0.344
  196OCT    H22 5272   4.905   3.717   0.359
  196OCT     C3 5273   5.071   3.661   0.231
  196OCT    H31 5274   5.122   3.759   0.242
  196OCT    H32 5275   5.149   3.582   0.227
  196OCT     C4 5276   4.992   3.660   0.100
  196OCT    H41 5277   4.941   3.561   0.089
  196OCT    H42 5278   4.914   3.739   0.104
  196OCT     C5 5279   5.079   3.683  -0.024
  196OCT    H51 5280   5.131   3.781  -0.014
  196OCT    H52 5281   5.158   3.604  -0.029
  196OCT     C6 5282   5.000   3.681  -0.155
  196OCT    H61 5283   4.949   3.583  -0.166
  196OCT    H62 5284   4.922   3.761  -0.152
  196OCT     C7 5285   5.088   3.705  -0.279
  196OCT    H71 5286   5.139   3.803  -0.269
  196OCT    H72 5287   5.166   3.626  -0.284
  196OCT     C8 5288   5.008   3.703  -0.410
  196OCT    H81 5289   4.931   3.783  -0.409
  196OCT    H82 5290   4.958   3.605  -0.423
  196OCT     O1 5291   5.093   3.725  -0.522
  196OCT    HO1 5292   5.037   3.723  -0.599
  197OCT     C1 5293   0.771   0.727   4.012
  197OCT    H11 5294   0.859   0.735   3.946
  197OCT    H12 5295   0.754   0.620   4.036
  197OCT    H13 5296   0.682   0.764   3.957
  197OCT     C2 5297   0.792   0.808   4.140
  197OCT    H21 5298   0.883   0.771   4.191
  197OCT    H22 5299   0.810   0.915   4.111
  197OCT     C3 5300   0.674   0.803   4.238
  197OCT    H31 5301   0.583   0.841   4.186
  197OCT    H32 5302   0.656   0.697   4.266
  197OCT     C4 5303   0.697   0.886   4.365
  197OCT    H41 5304   0.788   0.848   4.417
  197OCT    H42 5305   0.715   0.992   4.337
  197OCT     C5 5306   0.579   0.881   4.463
  197OCT    H51 5307   0.488   0.919   4.412
  197OCT    H52 5308   0.560   0.775   4.492
  197OCT     C6 5309   0.603   0.963   4.590
  197OCT    H61 5310   0.694   0.925   4.642
  197OCT    H62 5311   0.621   1.069   4.562
  197OCT     C7 5312   0.484   0.958   4.688
  197OCT    H71 5313   0.393   0.996   4.637
  197OCT    H72 5314   0.466   0.852   4.717
  197OCT     C8 5315   0.509   1.041   4.815
  197OCT    H81 5316   0.525   1.147   4.789
  197OCT    H82 5317   0.598   1.003   4.869
  197OCT     O1 5318   0.397   1.033   4.903
  197OCT    HO1 5319   0.419   1.087   4.979
  198OCT     C1 5320   1.445   2.010   1.140
  198OCT    H11 5321   1.462   2.106   1.193
  198OCT    H12 5322   1.348   2.015   1.085
  198OCT    H13 5323   1.437   1.928   1.215
  198OCT     C2 5324   1.560   1.981   1.043
  198OCT    H21 5325   1.567   2.066   0.970
  198OCT    H22 5326   1.655   1.979   1.100
  198OCT     C3 5327   1.545   1.850   0.964
  198OCT    H31 5328   1.539   1.766   1.037
  198OCT    H32 5329   1.450   1.854   0.907
  198OCT     C4 5330   1.662   1.824   0.868
  198OCT    H41 5331   1.668   1.908   0.795
  198OCT    H42 5332   1.757   1.821   0.925
  198OCT     C5 5333   1.647   1.693   0.790
  198OCT    H51 5334   1.641   1.608   0.862
  198OCT    H52 5335   1.552   1.695   0.732
  198OCT     C6 5336   1.764   1.668   0.693
  198OCT    H61 5337   1.770   1.751   0.620
  198OCT    H62 5338   1.859   1.664   0.750
  198OCT     C7 5339   1.748   1.536   0.615
  198OCT    H71 5340   1.743   1.451   0.687
  198OCT    H72 5341   1.654   1.538   0.557
  198OCT     C8 5342   1.865   1.511   0.518
  198OCT    H81 5343   1.961   1.505   0.574
  198OCT    H82 5344   1.872   1.593   0.444
  198OCT     O1 5345   1.847   1.388   0.448
  198OCT    HO1 5346   1.923   1.379   0.390
  199OCT     C1 5347   3.505   4.745   1.396
  199OCT    H11 5348   3.563   4.696   1.477
  199OCT    H12 5349   3.510   4.855   1.412
  199OCT    H13 5350   3.398   4.715   1.405
  199OCT     C2 5351   3.560   4.708   1.259
  199OCT    H21 5352   3.667   4.737   1.254
  199OCT    H22 5353   3.555   4.597   1.248
  199OCT     C3 5354   3.486   4.772   1.141
  199OCT    H31 5355   3.379   4.742   1.146
  199OCT    H32 5356   3.491   4.883   1.152
  199OCT     C4 5357   3.543   4.733   1.005
  199OCT    H41 5358   3.650   4.763   1.000
  199OCT    H42 5359   3.538   4.622   0.993
  199OCT     C5 5360   3.469   4.797   0.887
  199OCT    H51 5361   3.361   4.768   0.891
  199OCT    H52 5362   3.474   4.908   0.897
  199OCT     C6 5363   3.527   4.758   0.750
  199OCT    H61 5364   3.633   4.788   0.745
  199OCT    H62 5365   3.521   4.647   0.739
  199OCT     C7 5366   3.452   4.823   0.632
  199OCT    H71 5367   3.345   4.793   0.636
  199OCT    H72 5368   3.457   4.933   0.643
  199OCT     C8 5369   3.510   4.782   0.496
  199OCT    H81 5370   3.504   4.673   0.483
  199OCT    H82 5371   3.616   4.814   0.489
  199OCT     O1 5372   3.438   4.845   0.390
  199OCT    HO1 5373   3.479   4.815   0.309
  200OCT     C1 5374   3.903   4.714   3.131
  200OCT    H11 5375   3.886   4.606   3.110
  200OCT    H12 5376   3.945   4.724   3.234
  200OCT    H13 5377   3.806   4.767   3.127
  200OCT     C2 5378   4.000   4.774   3.029
  200OCT    H21 5379   4.096   4.717   3.033
  200OCT    H22 5380   3.957   4.760   2.926
  200OCT     C3 5381   4.029   4.923   3.049
  200OCT    H31 5382   3.934   4.979   3.045
  200OCT    H32 5383   4.073   4.937   3.151
  200OCT     C4 5384   4.127   4.980   2.945
  200OCT    H41 5385   4.222   4.925   2.950
  200OCT    H42 5386   4.083   4.967   2.844
  200OCT     C5 5387   4.156   5.130   2.966
  200OCT    H51 5388   4.060   5.187   2.962
  200OCT    H52 5389   4.199   5.144   3.068
  200OCT     C6 5390   4.253   5.187   2.862
  200OCT    H61 5391   4.349   5.131   2.867
  200OCT    H62 5392   4.210   5.174   2.761
  200OCT     C7 5393   4.282   5.337   2.884
  200OCT    H71 5394   4.187   5.393   2.879
  200OCT    H72 5395   4.326   5.351   2.985
  200OCT     C8 5396   4.380   5.394   2.779
  200OCT    H81 5397   4.337   5.382   2.678
  200OCT    H82 5398   4.476   5.340   2.784
  200OCT     O1 5399   4.404   5.532   2.803
  200OCT    HO1 5400   4.465   5.560   2.734
  201OCT     C1 5401   5.641   4.044   4.243
  201OCT    H11 5402   5.630   4.078   4.138
  201OCT    H12 5403   5.645   3.933   4.244
  201OCT    H13 5404   5.551   4.076   4.301
  201OCT     C2 5405   5.768   4.102   4.305
  201OCT    H21 5406   5.856   4.071   4.244
  201OCT    H22 5407   5.762   4.214   4.301
  201OCT     C3 5408   5.792   4.060   4.451
  201OCT    H31 5409   5.705   4.093   4.512
  201OCT    H32 5410   5.798   3.950   4.455
  201OCT     C4 5411   5.920   4.121   4.511
  201OCT    H41 5412   6.007   4.089   4.450
  201OCT    H42 5413   5.914   4.231   4.506
  201OCT     C5 5414   5.944   4.079   4.656
  201OCT    H51 5415   5.857   4.110   4.718
  201OCT    H52 5416   5.951   3.967   4.662
  201OCT     C6 5417   6.072   4.139   4.716
  201OCT    H61 5418   6.159   4.107   4.655
  201OCT    H62 5419   6.066   4.250   4.712
  201OCT     C7 5420   6.096   4.096   4.862
  201OCT    H71 5421   6.009   4.128   4.924
  201OCT    H72 5422   6.103   3.986   4.867
  201OCT     C8 5423   6.224   4.157   4.921
  201OCT    H81 5424   6.218   4.267   4.919
  201OCT    H82 5425   6.312   4.125   4.862
  201OCT     O1 5426   6.242   4.115   5.056
  201OCT    HO1 5427   6.323   4.157   5.086
  202OCT     C1 5428   1.626   3.574   4.085
  202OCT    H11 5429   1.595   3.607   4.186
  202OCT    H12 5430   1.566   3.485   4.057
  202OCT    H13 5431   1.733   3.545   4.088
  202OCT     C2 5432   1.604   3.686   3.983
  202OCT    H21 5433   1.496   3.715   3.983
  202OCT    H22 5434   1.663   3.776   4.014
  202OCT     C3 5435   1.644   3.649   3.839
  202OCT    H31 5436   1.752   3.622   3.839
  202OCT    H32 5437   1.585   3.561   3.808
  202OCT     C4 5438   1.621   3.764   3.739
  202OCT    H41 5439   1.514   3.791   3.740
  202OCT    H42 5440   1.680   3.852   3.771
  202OCT     C5 5441   1.661   3.727   3.596
  202OCT    H51 5442   1.769   3.698   3.594
  202OCT    H52 5443   1.603   3.638   3.563
  202OCT     C6 5444   1.638   3.841   3.495
  202OCT    H61 5445   1.531   3.869   3.496
  202OCT    H62 5446   1.698   3.929   3.527
  202OCT     C7 5447   1.679   3.803   3.352
  202OCT    H71 5448   1.786   3.776   3.350
  202OCT    H72 5449   1.620   3.715   3.319
  202OCT     C8 5450   1.656   3.918   3.252
  202OCT    H81 5451   1.715   4.007   3.281
  202OCT    H82 5452   1.549   3.946   3.250
  202OCT     O1 5453   1.694   3.879   3.120
  202OCT    HO1 5454   1.677   3.955   3.064
  203OCT     C1 5455   1.880   0.725  -0.092
  203OCT    H11 5456   1.773   0.729  -0.121
  203OCT    H12 5457   1.942   0.757  -0.179
  203OCT    H13 5458   1.907   0.619  -0.068
  203OCT     C2 5459   1.906   0.815   0.029
  203OCT    H21 5460   1.876   0.919   0.003
  203OCT    H22 5461   1.842   0.781   0.113
  203OCT     C3 5462   2.052   0.816   0.076
  203OCT    H31 5463   2.082   0.712   0.102
  203OCT    H32 5464   2.116   0.850  -0.008
  203OCT     C4 5465   2.076   0.907   0.197
  203OCT    H41 5466   2.047   1.011   0.171
  203OCT    H42 5467   2.012   0.873   0.281
  203OCT     C5 5468   2.222   0.908   0.245
  203OCT    H51 5469   2.253   0.804   0.271
  203OCT    H52 5470   2.287   0.942   0.161
  203OCT     C6 5471   2.245   0.999   0.366
  203OCT    H61 5472   2.216   1.103   0.340
  203OCT    H62 5473   2.181   0.965   0.450
  203OCT     C7 5474   2.392   0.999   0.413
  203OCT    H71 5475   2.422   0.896   0.440
  203OCT    H72 5476   2.457   1.034   0.329
  203OCT     C8 5477   2.415   1.091   0.534
  203OCT    H81 5478   2.353   1.057   0.619
  203OCT    H82 5479   2.388   1.195   0.509
  203OCT     O1 5480   2.552   1.088   0.574
  203OCT    HO1 5481   2.558   1.147   0.650
  204OCT     C1 5482   0.368  -0.285   2.529
  204OCT    H11 5483   0.411  -0.328   2.437
  204OCT    H12 5484   0.450  -0.237   2.587
  204OCT    H13 5485   0.326  -0.367   2.591
  204OCT     C2 5486   0.260  -0.183   2.496
  204OCT    H21 5487   0.304  -0.103   2.432
  204OCT    H22 5488   0.181  -0.233   2.435
  204OCT     C3 5489   0.194  -0.117   2.618
  204OCT    H31 5490   0.149  -0.197   2.681
  204OCT    H32 5491   0.273  -0.067   2.677
  204OCT     C4 5492   0.086  -0.015   2.581
  204OCT    H41 5493   0.130   0.065   2.518
  204OCT    H42 5494   0.007  -0.066   2.522
  204OCT     C5 5495   0.020   0.050   2.704
  204OCT    H51 5496  -0.025  -0.029   2.768
  204OCT    H52 5497   0.099   0.101   2.764
  204OCT     C6 5498  -0.088   0.152   2.667
  204OCT    H61 5499  -0.044   0.232   2.604
  204OCT    H62 5500  -0.167   0.101   2.607
  204OCT     C7 5501  -0.154   0.217   2.790
  204OCT    H71 5502  -0.199   0.138   2.853
  204OCT    H72 5503  -0.075   0.268   2.850
  204OCT     C8 5504  -0.263   0.319   2.752
  204OCT    H81 5505  -0.343   0.270   2.695
  204OCT    H82 5506  -0.219   0.400   2.691
  204OCT     O1 5507  -0.320   0.377   2.869
  204OCT    HO1 5508  -0.386   0.439   2.838
  205OCT     C1 5509   3.336   3.591   1.884
  205OCT    H11 5510   3.332   3.660   1.971
  205OCT    H12 5511   3.250   3.520   1.891
  205OCT    H13 5512   3.430   3.532   1.891
  205OCT     C2 5513   3.331   3.669   1.753
  205OCT    H21 5514   3.237   3.729   1.751
  205OCT    H22 5515   3.417   3.740   1.750
  205OCT     C3 5516   3.336   3.581   1.627
  205OCT    H31 5517   3.430   3.522   1.630
  205OCT    H32 5518   3.251   3.510   1.630
  205OCT     C4 5519   3.331   3.662   1.497
  205OCT    H41 5520   3.237   3.721   1.495
  205OCT    H42 5521   3.417   3.732   1.494
  205OCT     C5 5522   3.337   3.574   1.371
  205OCT    H51 5523   3.431   3.513   1.373
  205OCT    H52 5524   3.251   3.502   1.373
  205OCT     C6 5525   3.331   3.654   1.241
  205OCT    H61 5526   3.237   3.714   1.239
  205OCT    H62 5527   3.417   3.725   1.238
  205OCT     C7 5528   3.337   3.566   1.115
  205OCT    H71 5529   3.431   3.506   1.117
  205OCT    H72 5530   3.251   3.495   1.117
  205OCT     C8 5531   3.332   3.647   0.985
  205OCT    H81 5532   3.417   3.717   0.980
  205OCT    H82 5533   3.238   3.706   0.980
  205OCT     O1 5534   3.337   3.561   0.871
  205OCT    HO1 5535   3.333   3.619   0.795
  206OCT     C1 5536   3.116   1.269   1.859
  206OCT    H11 5537   3.200   1.203   1.829
  206OCT    H12 5538   3.156   1.349   1.926
  206OCT    H13 5539   3.043   1.210   1.918
  206OCT     C2 5540   3.049   1.331   1.737
  206OCT    H21 5541   3.126   1.388   1.679
  206OCT    H22 5542   3.013   1.248   1.671
  206OCT     C3 5543   2.932   1.424   1.769
  206OCT    H31 5544   2.856   1.367   1.826
  206OCT    H32 5545   2.969   1.506   1.834
  206OCT     C4 5546   2.867   1.484   1.644
  206OCT    H41 5547   2.943   1.542   1.587
  206OCT    H42 5548   2.830   1.402   1.579
  206OCT     C5 5549   2.749   1.578   1.676
  206OCT    H51 5550   2.672   1.521   1.733
  206OCT    H52 5551   2.785   1.661   1.741
  206OCT     C6 5552   2.684   1.638   1.550
  206OCT    H61 5553   2.760   1.695   1.494
  206OCT    H62 5554   2.647   1.556   1.486
  206OCT     C7 5555   2.566   1.732   1.584
  206OCT    H71 5556   2.489   1.675   1.640
  206OCT    H72 5557   2.603   1.814   1.648
  206OCT     C8 5558   2.501   1.791   1.457
  206OCT    H81 5559   2.462   1.711   1.393
  206OCT    H82 5560   2.576   1.850   1.401
  206OCT     O1 5561   2.393   1.877   1.492
  206OCT    HO1 5562   2.358   1.910   1.410
  207OCT     C1 5563   5.534   2.372   5.541
  207OCT    H11 5564   5.608   2.455   5.545
  207OCT    H12 5565   5.502   2.357   5.436
  207OCT    H13 5566   5.445   2.400   5.601
  207OCT     C2 5567   5.596   2.243   5.596
  207OCT    H21 5568   5.687   2.218   5.536
  207OCT    H22 5569   5.630   2.261   5.701
  207OCT     C3 5570   5.501   2.122   5.595
  207OCT    H31 5571   5.412   2.147   5.655
  207OCT    H32 5572   5.469   2.104   5.490
  207OCT     C4 5573   5.566   1.994   5.650
  207OCT    H41 5574   5.656   1.970   5.590
  207OCT    H42 5575   5.599   2.013   5.755
  207OCT     C5 5576   5.471   1.874   5.649
  207OCT    H51 5577   5.381   1.898   5.710
  207OCT    H52 5578   5.438   1.855   5.544
  207OCT     C6 5579   5.536   1.746   5.705
  207OCT    H61 5580   5.626   1.721   5.644
  207OCT    H62 5581   5.568   1.764   5.809
  207OCT     C7 5582   5.440   1.625   5.703
  207OCT    H71 5583   5.350   1.649   5.764
  207OCT    H72 5584   5.408   1.606   5.599
  207OCT     C8 5585   5.506   1.497   5.759
  207OCT    H81 5586   5.537   1.514   5.863
  207OCT    H82 5587   5.594   1.471   5.698
  207OCT     O1 5588   5.414   1.388   5.755
  207OCT    HO1 5589   5.461   1.313   5.791
  208OCT     C1 5590   4.239   0.246   3.164
  208OCT    H11 5591   4.329   0.256   3.228
  208OCT    H12 5592   4.151   0.285   3.219
  208OCT    H13 5593   4.222   0.138   3.144
  208OCT     C2 5594   4.258   0.322   3.033
  208OCT    H21 5595   4.278   0.429   3.056
  208OCT    H22 5596   4.349   0.282   2.981
  208OCT     C3 5597   4.139   0.313   2.937
  208OCT    H31 5598   4.121   0.206   2.913
  208OCT    H32 5599   4.049   0.353   2.988
  208OCT     C4 5600   4.161   0.390   2.806
  208OCT    H41 5601   4.180   0.497   2.829
  208OCT    H42 5602   4.251   0.350   2.754
  208OCT     C5 5603   4.042   0.381   2.710
  208OCT    H51 5604   4.022   0.274   2.685
  208OCT    H52 5605   3.951   0.422   2.760
  208OCT     C6 5606   4.064   0.459   2.579
  208OCT    H61 5607   4.082   0.565   2.602
  208OCT    H62 5608   4.154   0.418   2.527
  208OCT     C7 5609   3.944   0.449   2.483
  208OCT    H71 5610   3.925   0.342   2.459
  208OCT    H72 5611   3.854   0.490   2.533
  208OCT     C8 5612   3.967   0.527   2.352
  208OCT    H81 5613   4.055   0.486   2.299
  208OCT    H82 5614   3.984   0.634   2.374
  208OCT     O1 5615   3.853   0.515   2.266
  208OCT    HO1 5616   3.875   0.566   2.188
  209OCT     C1 5617   4.673   0.058   1.538
  209OCT    H11 5618   4.743   0.046   1.453
  209OCT    H12 5619   4.674  -0.035   1.599
  209OCT    H13 5620   4.571   0.072   1.498
  209OCT     C2 5621   4.714   0.178   1.624
  209OCT    H21 5622   4.818   0.162   1.661
  209OCT    H22 5623   4.715   0.269   1.560
  209OCT     C3 5624   4.623   0.203   1.745
  209OCT    H31 5625   4.519   0.220   1.708
  209OCT    H32 5626   4.623   0.112   1.809
  209OCT     C4 5627   4.666   0.324   1.829
  209OCT    H41 5628   4.770   0.307   1.866
  209OCT    H42 5629   4.666   0.415   1.765
  209OCT     C5 5630   4.575   0.349   1.950
  209OCT    H51 5631   4.470   0.365   1.914
  209OCT    H52 5632   4.574   0.258   2.015
  209OCT     C6 5633   4.618   0.469   2.034
  209OCT    H61 5634   4.721   0.453   2.071
  209OCT    H62 5635   4.618   0.560   1.970
  209OCT     C7 5636   4.526   0.494   2.155
  209OCT    H71 5637   4.422   0.511   2.119
  209OCT    H72 5638   4.526   0.404   2.220
  209OCT     C8 5639   4.570   0.615   2.239
  209OCT    H81 5640   4.569   0.707   2.177
  209OCT    H82 5641   4.672   0.599   2.278
  209OCT     O1 5642   4.482   0.634   2.350
  209OCT    HO1 5643   4.516   0.711   2.397
  210OCT     C1 5644   3.953   3.161   4.077
  210OCT    H11 5645   3.916   3.082   4.008
  210OCT    H12 5646   3.889   3.163   4.167
  210OCT    H13 5647   3.945   3.259   4.025
  210OCT     C2 5648   4.098   3.134   4.116
  210OCT    H21 5649   4.104   3.033   4.165
  210OCT    H22 5650   4.161   3.129   4.023
  210OCT     C3 5651   4.159   3.238   4.211
  210OCT    H31 5652   4.154   3.338   4.161
  210OCT    H32 5653   4.097   3.242   4.303
  210OCT     C4 5654   4.305   3.208   4.248
  210OCT    H41 5655   4.310   3.109   4.298
  210OCT    H42 5656   4.366   3.205   4.156
  210OCT     C5 5657   4.365   3.313   4.343
  210OCT    H51 5658   4.360   3.413   4.294
  210OCT    H52 5659   4.304   3.318   4.436
  210OCT     C6 5660   4.511   3.283   4.381
  210OCT    H61 5661   4.516   3.184   4.430
  210OCT    H62 5662   4.572   3.279   4.288
  210OCT     C7 5663   4.571   3.389   4.476
  210OCT    H71 5664   4.566   3.488   4.427
  210OCT    H72 5665   4.510   3.393   4.569
  210OCT     C8 5666   4.717   3.358   4.513
  210OCT    H81 5667   4.780   3.355   4.422
  210OCT    H82 5668   4.723   3.260   4.564
  210OCT     O1 5669   4.769   3.458   4.601
  210OCT    HO1 5670   4.859   3.432   4.620
  211OCT     C1 5671   0.697   3.037   2.856
  211OCT    H11 5672   0.755   3.012   2.765
  211OCT    H12 5673   0.700   2.951   2.926
  211OCT    H13 5674   0.591   3.055   2.827
  211OCT     C2 5675   0.754   3.162   2.924
  211OCT    H21 5676   0.861   3.142   2.950
  211OCT    H22 5677   0.753   3.246   2.851
  211OCT     C3 5678   0.680   3.205   3.051
  211OCT    H31 5679   0.574   3.225   3.024
  211OCT    H32 5680   0.682   3.121   3.123
  211OCT     C4 5681   0.740   3.330   3.117
  211OCT    H41 5682   0.846   3.310   3.143
  211OCT    H42 5683   0.737   3.414   3.044
  211OCT     C5 5684   0.665   3.373   3.244
  211OCT    H51 5685   0.558   3.393   3.218
  211OCT    H52 5686   0.667   3.289   3.317
  211OCT     C6 5687   0.725   3.498   3.309
  211OCT    H61 5688   0.831   3.478   3.336
  211OCT    H62 5689   0.722   3.582   3.237
  211OCT     C7 5690   0.649   3.540   3.437
  211OCT    H71 5691   0.543   3.561   3.411
  211OCT    H72 5692   0.652   3.457   3.510
  211OCT     C8 5693   0.710   3.666   3.502
  211OCT    H81 5694   0.707   3.751   3.432
  211OCT    H82 5695   0.815   3.647   3.531
  211OCT     O1 5696   0.637   3.702   3.620
  211OCT    HO1 5697   0.680   3.780   3.654
  212OCT     C1 5698   0.934  -0.154   3.858
  212OCT    H11 5699   0.971  -0.241   3.799
  212OCT    H12 5700   0.837  -0.182   3.906
  212OCT    H13 5701   0.915  -0.069   3.789
  212OCT     C2 5702   1.037  -0.115   3.965
  212OCT    H21 5703   1.055  -0.202   4.031
  212OCT    H22 5704   1.133  -0.090   3.914
  212OCT     C3 5705   0.995   0.005   4.051
  212OCT    H31 5706   0.977   0.092   3.985
  212OCT    H32 5707   0.899  -0.020   4.102
  212OCT     C4 5708   1.099   0.042   4.157
  212OCT    H41 5709   1.117  -0.045   4.224
  212OCT    H42 5710   1.195   0.067   4.107
  212OCT     C5 5711   1.057   0.162   4.244
  212OCT    H51 5712   1.039   0.250   4.178
  212OCT    H52 5713   0.961   0.138   4.295
  212OCT     C6 5714   1.162   0.199   4.350
  212OCT    H61 5715   1.179   0.112   4.416
  212OCT    H62 5716   1.257   0.224   4.299
  212OCT     C7 5717   1.119   0.319   4.436
  212OCT    H71 5718   1.102   0.407   4.371
  212OCT    H72 5719   1.024   0.295   4.488
  212OCT     C8 5720   1.225   0.356   4.542
  212OCT    H81 5721   1.320   0.383   4.493
  212OCT    H82 5722   1.242   0.271   4.610
  212OCT     O1 5723   1.181   0.467   4.620
  212OCT    HO1 5724   1.251   0.484   4.683
  213OCT     C1 5725   3.033   1.578   3.517
  213OCT    H11 5726   2.982   1.617   3.607
  213OCT    H12 5727   3.056   1.470   3.532
  213OCT    H13 5728   3.129   1.632   3.504
  213OCT     C2 5729   2.945   1.597   3.393
  213OCT    H21 5730   2.848   1.543   3.410
  213OCT    H22 5731   2.921   1.705   3.382
  213OCT     C3 5732   3.007   1.546   3.263
  213OCT    H31 5733   3.102   1.599   3.246
  213OCT    H32 5734   3.029   1.437   3.274
  213OCT     C4 5735   2.916   1.566   3.141
  213OCT    H41 5736   2.820   1.512   3.158
  213OCT    H42 5737   2.893   1.674   3.129
  213OCT     C5 5738   2.978   1.515   3.010
  213OCT    H51 5739   3.074   1.568   2.992
  213OCT    H52 5740   3.001   1.406   3.020
  213OCT     C6 5741   2.887   1.535   2.888
  213OCT    H61 5742   2.791   1.481   2.905
  213OCT    H62 5743   2.864   1.643   2.877
  213OCT     C7 5744   2.949   1.484   2.757
  213OCT    H71 5745   3.045   1.537   2.740
  213OCT    H72 5746   2.972   1.375   2.768
  213OCT     C8 5747   2.858   1.504   2.635
  213OCT    H81 5748   2.836   1.612   2.622
  213OCT    H82 5749   2.762   1.450   2.650
  213OCT     O1 5750   2.920   1.455   2.517
  213OCT    HO1 5751   2.857   1.472   2.446
  214OCT     C1 5752   5.292   2.805   4.649
  214OCT    H11 5753   5.320   2.755   4.554
  214OCT    H12 5754   5.181   2.801   4.660
  214OCT    H13 5755   5.322   2.912   4.643
  214OCT     C2 5756   5.360   2.737   4.768
  214OCT    H21 5757   5.330   2.630   4.770
  214OCT    H22 5758   5.470   2.741   4.753
  214OCT     C3 5759   5.326   2.800   4.904
  214OCT    H31 5760   5.357   2.907   4.902
  214OCT    H32 5761   5.216   2.796   4.919
  214OCT     C4 5762   5.396   2.730   5.021
  214OCT    H41 5763   5.365   2.624   5.024
  214OCT    H42 5764   5.506   2.735   5.007
  214OCT     C5 5765   5.362   2.793   5.157
  214OCT    H51 5766   5.393   2.901   5.156
  214OCT    H52 5767   5.252   2.790   5.173
  214OCT     C6 5768   5.432   2.723   5.275
  214OCT    H61 5769   5.401   2.617   5.277
  214OCT    H62 5770   5.542   2.728   5.260
  214OCT     C7 5771   5.398   2.787   5.411
  214OCT    H71 5772   5.429   2.894   5.410
  214OCT    H72 5773   5.288   2.783   5.427
  214OCT     C8 5774   5.468   2.716   5.529
  214OCT    H81 5775   5.578   2.721   5.516
  214OCT    H82 5776   5.437   2.610   5.533
  214OCT     O1 5777   5.434   2.778   5.652
  214OCT    HO1 5778   5.481   2.729   5.720
  215OCT     C1 5779   1.702   1.477   2.111
  215OCT    H11 5780   1.609   1.495   2.169
  215OCT    H12 5781   1.712   1.368   2.094
  215OCT    H13 5782   1.789   1.510   2.173
  215OCT     C2 5783   1.699   1.552   1.978
  215OCT    H21 5784   1.610   1.518   1.920
  215OCT    H22 5785   1.686   1.661   1.999
  215OCT     C3 5786   1.824   1.533   1.892
  215OCT    H31 5787   1.913   1.567   1.950
  215OCT    H32 5788   1.836   1.424   1.871
  215OCT     C4 5789   1.818   1.609   1.759
  215OCT    H41 5790   1.730   1.575   1.701
  215OCT    H42 5791   1.806   1.718   1.780
  215OCT     C5 5792   1.944   1.590   1.673
  215OCT    H51 5793   2.033   1.624   1.730
  215OCT    H52 5794   1.957   1.481   1.651
  215OCT     C6 5795   1.938   1.666   1.540
  215OCT    H61 5796   1.849   1.632   1.482
  215OCT    H62 5797   1.926   1.774   1.560
  215OCT     C7 5798   2.064   1.646   1.453
  215OCT    H71 5799   2.153   1.681   1.510
  215OCT    H72 5800   2.076   1.538   1.432
  215OCT     C8 5801   2.057   1.723   1.320
  215OCT    H81 5802   2.047   1.831   1.340
  215OCT    H82 5803   1.971   1.689   1.261
  215OCT     O1 5804   2.176   1.702   1.244
  215OCT    HO1 5805   2.164   1.752   1.163
  216OCT     C1 5806   4.172   2.917   2.930
  216OCT    H11 5807   4.063   2.909   2.907
  216OCT    H12 5808   4.219   2.817   2.915
  216OCT    H13 5809   4.184   2.945   3.037
  216OCT     C2 5810   4.238   3.021   2.840
  216OCT    H21 5811   4.222   2.992   2.733
  216OCT    H22 5812   4.188   3.120   2.855
  216OCT     C3 5813   4.389   3.039   2.864
  216OCT    H31 5814   4.404   3.069   2.970
  216OCT    H32 5815   4.439   2.941   2.848
  216OCT     C4 5816   4.453   3.144   2.773
  216OCT    H41 5817   4.437   3.115   2.667
  216OCT    H42 5818   4.403   3.242   2.789
  216OCT     C5 5819   4.603   3.162   2.797
  216OCT    H51 5820   4.620   3.192   2.904
  216OCT    H52 5821   4.655   3.064   2.781
  216OCT     C6 5822   4.667   3.267   2.706
  216OCT    H61 5823   4.652   3.238   2.600
  216OCT    H62 5824   4.617   3.365   2.722
  216OCT     C7 5825   4.818   3.285   2.731
  216OCT    H71 5826   4.834   3.315   2.837
  216OCT    H72 5827   4.869   3.187   2.714
  216OCT     C8 5828   4.882   3.390   2.639
  216OCT    H81 5829   4.834   3.489   2.655
  216OCT    H82 5830   4.869   3.361   2.533
  216OCT     O1 5831   5.021   3.403   2.665
  216OCT    HO1 5832   5.053   3.470   2.605
  217OCT     C1 5833   3.566   4.325   2.345
  217OCT    H11 5834   3.539   4.237   2.283
  217OCT    H12 5835   3.548   4.418   2.285
  217OCT    H13 5836   3.675   4.320   2.368
  217OCT     C2 5837   3.484   4.328   2.473
  217OCT    H21 5838   3.375   4.331   2.447
  217OCT    H22 5839   3.502   4.234   2.530
  217OCT     C3 5840   3.515   4.447   2.565
  217OCT    H31 5841   3.622   4.444   2.592
  217OCT    H32 5842   3.496   4.541   2.509
  217OCT     C4 5843   3.431   4.447   2.694
  217OCT    H41 5844   3.323   4.451   2.667
  217OCT    H42 5845   3.450   4.354   2.750
  217OCT     C5 5846   3.462   4.566   2.786
  217OCT    H51 5847   3.570   4.564   2.814
  217OCT    H52 5848   3.443   4.661   2.730
  217OCT     C6 5849   3.378   4.567   2.914
  217OCT    H61 5850   3.270   4.570   2.887
  217OCT    H62 5851   3.397   4.473   2.970
  217OCT     C7 5852   3.409   4.686   3.006
  217OCT    H71 5853   3.517   4.683   3.034
  217OCT    H72 5854   3.390   4.781   2.951
  217OCT     C8 5855   3.325   4.686   3.135
  217OCT    H81 5856   3.344   4.593   3.192
  217OCT    H82 5857   3.217   4.691   3.109
  217OCT     O1 5858   3.357   4.798   3.217
  217OCT    HO1 5859   3.301   4.791   3.294
  218OCT     C1 5860   1.577   2.707   2.779
  218OCT    H11 5861   1.533   2.739   2.683
  218OCT    H12 5862   1.684   2.737   2.781
  218OCT    H13 5863   1.573   2.596   2.785
  218OCT     C2 5864   1.501   2.769   2.896
  218OCT    H21 5865   1.505   2.880   2.886
  218OCT    H22 5866   1.394   2.739   2.890
  218OCT     C3 5867   1.555   2.730   3.034
  218OCT    H31 5868   1.551   2.619   3.044
  218OCT    H32 5869   1.662   2.761   3.041
  218OCT     C4 5870   1.478   2.794   3.150
  218OCT    H41 5871   1.482   2.905   3.140
  218OCT    H42 5872   1.371   2.763   3.144
  218OCT     C5 5873   1.532   2.755   3.288
  218OCT    H51 5874   1.528   2.644   3.299
  218OCT    H52 5875   1.639   2.785   3.296
  218OCT     C6 5876   1.454   2.819   3.404
  218OCT    H61 5877   1.458   2.929   3.394
  218OCT    H62 5878   1.347   2.788   3.398
  218OCT     C7 5879   1.509   2.779   3.542
  218OCT    H71 5880   1.504   2.669   3.553
  218OCT    H72 5881   1.615   2.810   3.549
  218OCT     C8 5882   1.430   2.844   3.658
  218OCT    H81 5883   1.324   2.812   3.654
  218OCT    H82 5884   1.435   2.954   3.650
  218OCT     O1 5885   1.484   2.804   3.784
  218OCT    HO1 5886   1.430   2.848   3.850
  219OCT     C1 5887   4.338   0.838   1.834
  219OCT    H11 5888   4.372   0.833   1.939
  219OCT    H12 5889   4.427   0.840   1.767
  219OCT    H13 5890   4.281   0.932   1.819
  219OCT     C2 5891   4.250   0.717   1.801
  219OCT    H21 5892   4.309   0.624   1.819
  219OCT    H22 5893   4.163   0.716   1.871
  219OCT     C3 5894   4.197   0.715   1.656
  219OCT    H31 5895   4.138   0.808   1.639
  219OCT    H32 5896   4.284   0.716   1.587
  219OCT     C4 5897   4.109   0.593   1.626
  219OCT    H41 5898   4.168   0.501   1.644
  219OCT    H42 5899   4.022   0.593   1.695
  219OCT     C5 5900   4.057   0.591   1.482
  219OCT    H51 5901   3.997   0.684   1.463
  219OCT    H52 5902   4.143   0.592   1.411
  219OCT     C6 5903   3.969   0.469   1.452
  219OCT    H61 5904   4.028   0.376   1.469
  219OCT    H62 5905   3.882   0.468   1.521
  219OCT     C7 5906   3.916   0.467   1.307
  219OCT    H71 5907   3.857   0.560   1.289
  219OCT    H72 5908   4.002   0.467   1.237
  219OCT     C8 5909   3.828   0.345   1.277
  219OCT    H81 5910   3.740   0.344   1.345
  219OCT    H82 5911   3.886   0.252   1.293
  219OCT     O1 5912   3.782   0.347   1.142
  219OCT    HO1 5913   3.728   0.269   1.132
  220OCT     C1 5914   0.843   3.981   0.330
  220OCT    H11 5915   0.744   4.016   0.296
  220OCT    H12 5916   0.922   4.043   0.281
  220OCT    H13 5917   0.857   3.876   0.296
  220OCT     C2 5918   0.854   3.990   0.482
  220OCT    H21 5919   0.837   4.096   0.513
  220OCT    H22 5920   0.773   3.928   0.527
  220OCT     C3 5921   0.989   3.942   0.538
  220OCT    H31 5922   1.005   3.837   0.508
  220OCT    H32 5923   1.070   4.004   0.493
  220OCT     C4 5924   0.997   3.953   0.691
  220OCT    H41 5925   0.981   4.058   0.722
  220OCT    H42 5926   0.916   3.891   0.736
  220OCT     C5 5927   1.132   3.906   0.748
  220OCT    H51 5928   1.149   3.799   0.718
  220OCT    H52 5929   1.214   3.967   0.703
  220OCT     C6 5930   1.140   3.916   0.901
  220OCT    H61 5931   1.124   4.021   0.931
  220OCT    H62 5932   1.059   3.854   0.946
  220OCT     C7 5933   1.275   3.868   0.957
  220OCT    H71 5934   1.292   3.762   0.927
  220OCT    H72 5935   1.356   3.930   0.913
  220OCT     C8 5936   1.283   3.879   1.110
  220OCT    H81 5937   1.204   3.816   1.156
  220OCT    H82 5938   1.268   3.984   1.142
  220OCT     O1 5939   1.409   3.834   1.158
  220OCT    HO1 5940   1.406   3.843   1.253
  221OCT     C1 5941   4.851   0.337   0.331
  221OCT    H11 5942   4.756   0.288   0.302
  221OCT    H12 5943   4.828   0.442   0.361
  221OCT    H13 5944   4.918   0.340   0.243
  221OCT     C2 5945   4.916   0.263   0.447
  221OCT    H21 5946   4.845   0.260   0.533
  221OCT    H22 5947   4.935   0.157   0.416
  221OCT     C3 5948   5.049   0.324   0.495
  221OCT    H31 5949   5.119   0.326   0.409
  221OCT    H32 5950   5.029   0.429   0.527
  221OCT     C4 5951   5.112   0.247   0.611
  221OCT    H41 5952   5.042   0.245   0.697
  221OCT    H42 5953   5.132   0.142   0.579
  221OCT     C5 5954   5.245   0.309   0.659
  221OCT    H51 5955   5.317   0.311   0.574
  221OCT    H52 5956   5.227   0.414   0.691
  221OCT     C6 5957   5.308   0.231   0.776
  221OCT    H61 5958   5.238   0.229   0.861
  221OCT    H62 5959   5.328   0.127   0.744
  221OCT     C7 5960   5.441   0.294   0.823
  221OCT    H71 5961   5.513   0.296   0.738
  221OCT    H72 5962   5.423   0.398   0.856
  221OCT     C8 5963   5.504   0.216   0.940
  221OCT    H81 5964   5.526   0.112   0.909
  221OCT    H82 5965   5.435   0.214   1.026
  221OCT     O1 5966   5.627   0.277   0.980
  221OCT    HO1 5967   5.660   0.223   1.053
  222OCT     C1 5968   1.877   0.506   2.113
  222OCT    H11 5969   1.955   0.585   2.123
  222OCT    H12 5970   1.810   0.532   2.029
  222OCT    H13 5971   1.817   0.505   2.206
  222OCT     C2 5972   1.942   0.369   2.090
  222OCT    H21 5973   2.004   0.375   1.997
  222OCT    H22 5974   2.010   0.347   2.175
  222OCT     C3 5975   1.842   0.254   2.075
  222OCT    H31 5976   1.780   0.249   2.168
  222OCT    H32 5977   1.774   0.277   1.990
  222OCT     C4 5978   1.909   0.118   2.052
  222OCT    H41 5979   1.970   0.124   1.959
  222OCT    H42 5980   1.977   0.096   2.137
  222OCT     C5 5981   1.809   0.003   2.037
  222OCT    H51 5982   1.747  -0.003   2.129
  222OCT    H52 5983   1.740   0.024   1.952
  222OCT     C6 5984   1.876  -0.133   2.014
  222OCT    H61 5985   1.938  -0.128   1.921
  222OCT    H62 5986   1.944  -0.155   2.099
  222OCT     C7 5987   1.775  -0.248   1.999
  222OCT    H71 5988   1.714  -0.255   2.091
  222OCT    H72 5989   1.708  -0.227   1.914
  222OCT     C8 5990   1.844  -0.384   1.975
  222OCT    H81 5991   1.910  -0.409   2.060
  222OCT    H82 5992   1.904  -0.381   1.883
  222OCT     O1 5993   1.747  -0.488   1.962
  222OCT    HO1 5994   1.796  -0.569   1.948
  223OCT     C1 5995   0.777   5.424   1.082
  223OCT    H11 5996   0.708   5.503   1.119
  223OCT    H12 5997   0.790   5.348   1.162
  223OCT    H13 5998   0.876   5.469   1.060
  223OCT     C2 5999   0.720   5.358   0.956
  223OCT    H21 6000   0.620   5.315   0.980
  223OCT    H22 6001   0.705   5.437   0.878
  223OCT     C3 6002   0.808   5.247   0.898
  223OCT    H31 6003   0.908   5.290   0.874
  223OCT    H32 6004   0.822   5.168   0.975
  223OCT     C4 6005   0.749   5.183   0.772
  223OCT    H41 6006   0.649   5.140   0.796
  223OCT    H42 6007   0.735   5.261   0.694
  223OCT     C5 6008   0.837   5.071   0.713
  223OCT    H51 6009   0.937   5.113   0.689
  223OCT    H52 6010   0.852   4.992   0.791
  223OCT     C6 6011   0.778   5.007   0.587
  223OCT    H61 6012   0.678   4.964   0.612
  223OCT    H62 6013   0.764   5.085   0.510
  223OCT     C7 6014   0.867   4.895   0.530
  223OCT    H71 6015   0.966   4.938   0.504
  223OCT    H72 6016   0.880   4.817   0.606
  223OCT     C8 6017   0.806   4.832   0.403
  223OCT    H81 6018   0.793   4.908   0.324
  223OCT    H82 6019   0.708   4.787   0.426
  223OCT     O1 6020   0.892   4.729   0.353
  223OCT    HO1 6021   0.848   4.694   0.275
  224OCT     C1 6022   1.210   2.896   5.765
  224OCT    H11 6023   1.172   2.894   5.869
  224OCT    H12 6024   1.269   2.804   5.746
  224OCT    H13 6025   1.278   2.984   5.754
  224OCT     C2 6026   1.094   2.906   5.666
  224OCT    H21 6027   1.026   2.819   5.681
  224OCT    H22 6028   1.035   2.999   5.688
  224OCT     C3 6029   1.137   2.911   5.518
  224OCT    H31 6030   1.204   2.998   5.504
  224OCT    H32 6031   1.195   2.819   5.496
  224OCT     C4 6032   1.019   2.921   5.421
  224OCT    H41 6033   0.952   2.833   5.436
  224OCT    H42 6034   0.961   3.013   5.443
  224OCT     C5 6035   1.062   2.925   5.274
  224OCT    H51 6036   1.129   3.013   5.258
  224OCT    H52 6037   1.121   2.833   5.250
  224OCT     C6 6038   0.944   2.935   5.177
  224OCT    H61 6039   0.877   2.847   5.191
  224OCT    H62 6040   0.886   3.027   5.199
  224OCT     C7 6041   0.988   2.939   5.029
  224OCT    H71 6042   1.054   3.027   5.014
  224OCT    H72 6043   1.046   2.847   5.006
  224OCT     C8 6044   0.869   2.949   4.932
  224OCT    H81 6045   0.811   3.041   4.952
  224OCT    H82 6046   0.802   2.862   4.945
  224OCT     O1 6047   0.914   2.953   4.797
  224OCT    HO1 6048   0.835   2.959   4.743
  225OCT     C1 6049   0.144   2.659   5.476
  225OCT    H11 6050   0.182   2.572   5.419
  225OCT    H12 6051   0.034   2.647   5.491
  225OCT    H13 6052   0.160   2.751   5.416
  225OCT     C2 6053   0.215   2.670   5.611
  225OCT    H21 6054   0.198   2.575   5.668
  225OCT    H22 6055   0.324   2.680   5.593
  225OCT     C3 6056   0.169   2.788   5.697
  225OCT    H31 6057   0.186   2.882   5.641
  225OCT    H32 6058   0.059   2.778   5.716
  225OCT     C4 6059   0.241   2.797   5.832
  225OCT    H41 6060   0.224   2.703   5.889
  225OCT    H42 6061   0.351   2.807   5.814
  225OCT     C5 6062   0.195   2.915   5.919
  225OCT    H51 6063   0.212   3.010   5.862
  225OCT    H52 6064   0.086   2.906   5.937
  225OCT     C6 6065   0.268   2.923   6.053
  225OCT    H61 6066   0.251   2.829   6.110
  225OCT    H62 6067   0.377   2.933   6.035
  225OCT     C7 6068   0.221   3.042   6.139
  225OCT    H71 6069   0.239   3.136   6.084
  225OCT    H72 6070   0.112   3.032   6.158
  225OCT     C8 6071   0.295   3.050   6.274
  225OCT    H81 6072   0.404   3.062   6.258
  225OCT    H82 6073   0.277   2.958   6.333
  225OCT     O1 6074   0.249   3.161   6.351
  225OCT    HO1 6075   0.299   3.159   6.432
  226OCT     C1 6076   1.441   5.442   6.131
  226OCT    H11 6077   1.379   5.397   6.211
  226OCT    H12 6078   1.547   5.418   6.150
  226OCT    H13 6079   1.429   5.553   6.135
  226OCT     C2 6080   1.398   5.389   5.994
  226OCT    H21 6081   1.408   5.278   5.993
  226OCT    H22 6082   1.290   5.413   5.978
  226OCT     C3 6083   1.479   5.447   5.877
  226OCT    H31 6084   1.468   5.557   5.877
  226OCT    H32 6085   1.586   5.422   5.892
  226OCT     C4 6086   1.434   5.392   5.740
  226OCT    H41 6087   1.445   5.282   5.740
  226OCT    H42 6088   1.327   5.417   5.725
  226OCT     C5 6089   1.515   5.450   5.623
  226OCT    H51 6090   1.504   5.561   5.622
  226OCT    H52 6091   1.623   5.426   5.638
  226OCT     C6 6092   1.470   5.395   5.487
  226OCT    H61 6093   1.481   5.284   5.486
  226OCT    H62 6094   1.363   5.419   5.471
  226OCT     C7 6095   1.551   5.453   5.369
  226OCT    H71 6096   1.540   5.563   5.369
  226OCT    H72 6097   1.658   5.429   5.384
  226OCT     C8 6098   1.506   5.398   5.233
  226OCT    H81 6099   1.399   5.423   5.215
  226OCT    H82 6100   1.518   5.288   5.231
  226OCT     O1 6101   1.583   5.454   5.127
  226OCT    HO1 6102   1.550   5.415   5.047
  227OCT     C1 6103   1.558   4.084   0.318
  227OCT    H11 6104   1.638   4.078   0.241
  227OCT    H12 6105   1.542   3.983   0.361
  227OCT    H13 6106   1.464   4.116   0.268
  227OCT     C2 6107   1.597   4.183   0.427
  227OCT    H21 6108   1.693   4.150   0.473
  227OCT    H22 6109   1.615   4.283   0.380
  227OCT     C3 6110   1.492   4.199   0.538
  227OCT    H31 6111   1.397   4.233   0.492
  227OCT    H32 6112   1.475   4.100   0.585
  227OCT     C4 6113   1.534   4.299   0.647
  227OCT    H41 6114   1.630   4.266   0.693
  227OCT    H42 6115   1.552   4.399   0.600
  227OCT     C5 6116   1.430   4.315   0.758
  227OCT    H51 6117   1.333   4.349   0.713
  227OCT    H52 6118   1.411   4.216   0.805
  227OCT     C6 6119   1.472   4.415   0.866
  227OCT    H61 6120   1.567   4.381   0.912
  227OCT    H62 6121   1.489   4.515   0.820
  227OCT     C7 6122   1.366   4.431   0.978
  227OCT    H71 6123   1.271   4.465   0.933
  227OCT    H72 6124   1.349   4.332   1.025
  227OCT     C8 6125   1.409   4.531   1.086
  227OCT    H81 6126   1.425   4.631   1.041
  227OCT    H82 6127   1.503   4.498   1.134
  227OCT     O1 6128   1.309   4.542   1.187
  227OCT    HO1 6129   1.342   4.606   1.250
  228OCT     C1 6130   4.015   0.890   2.049
  228OCT    H11 6131   4.118   0.883   2.091
  228OCT    H12 6132   3.950   0.942   2.122
  228OCT    H13 6133   3.976   0.787   2.036
  228OCT     C2 6134   4.016   0.964   1.916
  228OCT    H21 6135   4.058   1.066   1.932
  228OCT    H22 6136   4.084   0.910   1.845
  228OCT     C3 6137   3.878   0.978   1.850
  228OCT    H31 6138   3.836   0.876   1.834
  228OCT    H32 6139   3.811   1.032   1.920
  228OCT     C4 6140   3.881   1.053   1.716
  228OCT    H41 6141   3.923   1.155   1.733
  228OCT    H42 6142   3.948   0.999   1.646
  228OCT     C5 6143   3.743   1.067   1.651
  228OCT    H51 6144   3.700   0.965   1.634
  228OCT    H52 6145   3.675   1.121   1.721
  228OCT     C6 6146   3.747   1.142   1.517
  228OCT    H61 6147   3.789   1.243   1.534
  228OCT    H62 6148   3.814   1.088   1.447
  228OCT     C7 6149   3.608   1.155   1.452
  228OCT    H71 6150   3.566   1.054   1.435
  228OCT    H72 6151   3.541   1.210   1.522
  228OCT     C8 6152   3.613   1.231   1.318
  228OCT    H81 6153   3.678   1.177   1.247
  228OCT    H82 6154   3.652   1.333   1.333
  228OCT     O1 6155   3.482   1.241   1.261
  228OCT    HO1 6156   3.493   1.288   1.179
  229OCT     C1 6157   0.029   5.619   2.081
  229OCT    H11 6158  -0.074   5.589   2.054
  229OCT    H12 6159   0.025   5.691   2.166
  229OCT    H13 6160   0.075   5.671   1.994
  229OCT     C2 6161   0.112   5.496   2.120
  229OCT    H21 6162   0.062   5.445   2.206
  229OCT    H22 6163   0.112   5.425   2.034
  229OCT     C3 6164   0.257   5.528   2.159
  229OCT    H31 6165   0.306   5.578   2.073
  229OCT    H32 6166   0.256   5.598   2.245
  229OCT     C4 6167   0.337   5.403   2.197
  229OCT    H41 6168   0.288   5.352   2.283
  229OCT    H42 6169   0.338   5.332   2.112
  229OCT     C5 6170   0.482   5.434   2.236
  229OCT    H51 6171   0.533   5.485   2.151
  229OCT    H52 6172   0.483   5.505   2.323
  229OCT     C6 6173   0.563   5.309   2.275
  229OCT    H61 6174   0.513   5.259   2.361
  229OCT    H62 6175   0.564   5.239   2.189
  229OCT     C7 6176   0.708   5.341   2.314
  229OCT    H71 6177   0.759   5.391   2.228
  229OCT    H72 6178   0.708   5.411   2.400
  229OCT     C8 6179   0.788   5.215   2.352
  229OCT    H81 6180   0.792   5.145   2.267
  229OCT    H82 6181   0.741   5.165   2.439
  229OCT     O1 6182   0.922   5.250   2.388
  229OCT    HO1 6183   0.965   5.167   2.410
  230OCT     C1 6184   0.364   3.246   2.179
  230OCT    H11 6185   0.461   3.268   2.130
  230OCT    H12 6186   0.282   3.291   2.117
  230OCT    H13 6187   0.362   3.295   2.279
  230OCT     C2 6188   0.343   3.096   2.193
  230OCT    H21 6189   0.348   3.049   2.092
  230OCT    H22 6190   0.428   3.054   2.253
  230OCT     C3 6191   0.211   3.056   2.259
  230OCT    H31 6192   0.207   3.101   2.360
  230OCT    H32 6193   0.127   3.097   2.199
  230OCT     C4 6194   0.193   2.904   2.272
  230OCT    H41 6195   0.197   2.858   2.171
  230OCT    H42 6196   0.277   2.862   2.333
  230OCT     C5 6197   0.061   2.864   2.338
  230OCT    H51 6198   0.055   2.909   2.440
  230OCT    H52 6199  -0.024   2.905   2.279
  230OCT     C6 6200   0.043   2.712   2.351
  230OCT    H61 6201   0.047   2.666   2.250
  230OCT    H62 6202   0.127   2.670   2.412
  230OCT     C7 6203  -0.090   2.672   2.418
  230OCT    H71 6204  -0.095   2.718   2.519
  230OCT    H72 6205  -0.174   2.713   2.358
  230OCT     C8 6206  -0.107   2.520   2.431
  230OCT    H81 6207  -0.025   2.478   2.492
  230OCT    H82 6208  -0.105   2.473   2.330
  230OCT     O1 6209  -0.231   2.488   2.493
  230OCT    HO1 6210  -0.235   2.392   2.497
  231OCT     C1 6211   3.044   4.352   5.251
  231OCT    H11 6212   2.982   4.395   5.332
  231OCT    H12 6213   3.066   4.245   5.276
  231OCT    H13 6214   3.140   4.407   5.246
  231OCT     C2 6215   2.971   4.361   5.117
  231OCT    H21 6216   2.873   4.307   5.126
  231OCT    H22 6217   2.948   4.468   5.096
  231OCT     C3 6218   3.049   4.303   4.998
  231OCT    H31 6219   3.145   4.357   4.990
  231OCT    H32 6220   3.071   4.196   5.019
  231OCT     C4 6221   2.973   4.314   4.865
  231OCT    H41 6222   2.877   4.259   4.874
  231OCT    H42 6223   2.951   4.420   4.844
  231OCT     C5 6224   3.051   4.256   4.747
  231OCT    H51 6225   3.149   4.309   4.737
  231OCT    H52 6226   3.074   4.148   4.767
  231OCT     C6 6227   2.975   4.266   4.614
  231OCT    H61 6228   2.879   4.212   4.622
  231OCT    H62 6229   2.954   4.373   4.593
  231OCT     C7 6230   3.055   4.208   4.495
  231OCT    H71 6231   3.151   4.262   4.485
  231OCT    H72 6232   3.076   4.101   4.515
  231OCT     C8 6233   2.978   4.219   4.362
  231OCT    H81 6234   2.957   4.325   4.339
  231OCT    H82 6235   2.882   4.164   4.369
  231OCT     O1 6236   3.054   4.164   4.255
  231OCT    HO1 6237   3.001   4.174   4.176
  232OCT     C1 6238   0.427   2.405   3.496
  232OCT    H11 6239   0.431   2.470   3.406
  232OCT    H12 6240   0.518   2.342   3.498
  232OCT    H13 6241   0.339   2.338   3.487
  232OCT     C2 6242   0.417   2.490   3.623
  232OCT    H21 6243   0.505   2.558   3.627
  232OCT    H22 6244   0.326   2.554   3.617
  232OCT     C3 6245   0.411   2.408   3.752
  232OCT    H31 6246   0.323   2.341   3.748
  232OCT    H32 6247   0.503   2.345   3.758
  232OCT     C4 6248   0.402   2.495   3.878
  232OCT    H41 6249   0.490   2.562   3.883
  232OCT    H42 6250   0.310   2.558   3.872
  232OCT     C5 6251   0.396   2.413   4.008
  232OCT    H51 6252   0.308   2.345   4.004
  232OCT    H52 6253   0.487   2.349   4.015
  232OCT     C6 6254   0.386   2.500   4.134
  232OCT    H61 6255   0.475   2.568   4.139
  232OCT    H62 6256   0.295   2.563   4.128
  232OCT     C7 6257   0.381   2.418   4.264
  232OCT    H71 6258   0.292   2.351   4.260
  232OCT    H72 6259   0.472   2.355   4.271
  232OCT     C8 6260   0.371   2.506   4.390
  232OCT    H81 6261   0.280   2.568   4.386
  232OCT    H82 6262   0.459   2.572   4.396
  232OCT     O1 6263   0.366   2.425   4.507
  232OCT    HO1 6264   0.360   2.487   4.581
  233OCT     C1 6265   0.783   4.562   3.689
  233OCT    H11 6266   0.721   4.650   3.664
  233OCT    H12 6267   0.741   4.472   3.638
  233OCT    H13 6268   0.778   4.544   3.798
  233OCT     C2 6269   0.928   4.584   3.645
  233OCT    H21 6270   0.929   4.604   3.535
  233OCT    H22 6271   0.967   4.676   3.696
  233OCT     C3 6272   1.022   4.467   3.675
  233OCT    H31 6273   1.021   4.448   3.785
  233OCT    H32 6274   0.984   4.377   3.624
  233OCT     C4 6275   1.167   4.493   3.630
  233OCT    H41 6276   1.168   4.512   3.521
  233OCT    H42 6277   1.205   4.583   3.682
  233OCT     C5 6278   1.261   4.376   3.661
  233OCT    H51 6279   1.260   4.356   3.771
  233OCT    H52 6280   1.223   4.284   3.610
  233OCT     C6 6281   1.406   4.401   3.616
  233OCT    H61 6282   1.407   4.420   3.506
  233OCT    H62 6283   1.444   4.492   3.667
  233OCT     C7 6284   1.500   4.283   3.647
  233OCT    H71 6285   1.499   4.264   3.756
  233OCT    H72 6286   1.462   4.193   3.595
  233OCT     C8 6287   1.644   4.310   3.601
  233OCT    H81 6288   1.685   4.399   3.653
  233OCT    H82 6289   1.647   4.327   3.492
  233OCT     O1 6290   1.728   4.199   3.632
  233OCT    HO1 6291   1.816   4.222   3.601
  234OCT     C1 6292   5.556   3.628   0.932
  234OCT    H11 6293   5.481   3.568   0.988
  234OCT    H12 6294   5.657   3.587   0.951
  234OCT    H13 6295   5.553   3.733   0.969
  234OCT     C2 6296   5.525   3.625   0.782
  234OCT    H21 6297   5.526   3.518   0.748
  234OCT    H22 6298   5.422   3.664   0.765
  234OCT     C3 6299   5.623   3.705   0.695
  234OCT    H31 6300   5.621   3.811   0.729
  234OCT    H32 6301   5.725   3.665   0.712
  234OCT     C4 6302   5.590   3.700   0.546
  234OCT    H41 6303   5.591   3.594   0.512
  234OCT    H42 6304   5.488   3.740   0.530
  234OCT     C5 6305   5.688   3.780   0.459
  234OCT    H51 6306   5.687   3.887   0.493
  234OCT    H52 6307   5.791   3.741   0.475
  234OCT     C6 6308   5.655   3.775   0.310
  234OCT    H61 6309   5.656   3.669   0.276
  234OCT    H62 6310   5.552   3.815   0.293
  234OCT     C7 6311   5.754   3.856   0.224
  234OCT    H71 6312   5.752   3.962   0.257
  234OCT    H72 6313   5.856   3.816   0.239
  234OCT     C8 6314   5.720   3.850   0.073
  234OCT    H81 6315   5.619   3.891   0.056
  234OCT    H82 6316   5.722   3.745   0.038
  234OCT     O1 6317   5.813   3.926  -0.002
  234OCT    HO1 6318   5.786   3.918  -0.094
  235OCT     C1 6319   0.745   1.484   4.746
  235OCT    H11 6320   0.706   1.502   4.849
  235OCT    H12 6321   0.801   1.387   4.746
  235OCT    H13 6322   0.816   1.565   4.720
  235OCT     C2 6323   0.630   1.479   4.646
  235OCT    H21 6324   0.559   1.398   4.676
  235OCT    H22 6325   0.574   1.576   4.650
  235OCT     C3 6326   0.674   1.454   4.501
  235OCT    H31 6327   0.744   1.535   4.471
  235OCT    H32 6328   0.728   1.358   4.496
  235OCT     C4 6329   0.556   1.450   4.402
  235OCT    H41 6330   0.486   1.369   4.432
  235OCT    H42 6331   0.502   1.547   4.406
  235OCT     C5 6332   0.600   1.425   4.257
  235OCT    H51 6333   0.671   1.506   4.226
  235OCT    H52 6334   0.655   1.329   4.252
  235OCT     C6 6335   0.483   1.421   4.158
  235OCT    H61 6336   0.413   1.340   4.188
  235OCT    H62 6337   0.428   1.518   4.163
  235OCT     C7 6338   0.527   1.396   4.013
  235OCT    H71 6339   0.597   1.477   3.982
  235OCT    H72 6340   0.582   1.300   4.008
  235OCT     C8 6341   0.409   1.392   3.915
  235OCT    H81 6342   0.355   1.489   3.917
  235OCT    H82 6343   0.339   1.311   3.942
  235OCT     O1 6344   0.455   1.369   3.782
  235OCT    HO1 6345   0.376   1.368   3.727
  236OCT     C1 6346   1.170   0.442  -0.328
  236OCT    H11 6347   1.257   0.442  -0.396
  236OCT    H12 6348   1.111   0.349  -0.344
  236OCT    H13 6349   1.105   0.529  -0.353
  236OCT     C2 6350   1.216   0.451  -0.182
  236OCT    H21 6351   1.283   0.364  -0.160
  236OCT    H22 6352   1.276   0.544  -0.169
  236OCT     C3 6353   1.101   0.452  -0.080
  236OCT    H31 6354   1.035   0.539  -0.101
  236OCT    H32 6355   1.042   0.359  -0.093
  236OCT     C4 6356   1.150   0.461   0.065
  236OCT    H41 6357   1.216   0.374   0.087
  236OCT    H42 6358   1.210   0.554   0.078
  236OCT     C5 6359   1.036   0.462   0.168
  236OCT    H51 6360   0.969   0.548   0.147
  236OCT    H52 6361   0.975   0.369   0.156
  236OCT     C6 6362   1.085   0.471   0.313
  236OCT    H61 6363   1.151   0.384   0.334
  236OCT    H62 6364   1.144   0.564   0.326
  236OCT     C7 6365   0.970   0.471   0.415
  236OCT    H71 6366   0.903   0.558   0.394
  236OCT    H72 6367   0.910   0.379   0.403
  236OCT     C8 6368   1.020   0.480   0.560
  236OCT    H81 6369   1.078   0.573   0.575
  236OCT    H82 6370   1.084   0.394   0.584
  236OCT     O1 6371   0.910   0.481   0.651
  236OCT    HO1 6372   0.948   0.486   0.739
  237OCT     C1 6373   2.904   6.128   0.605
  237OCT    H11 6374   2.901   6.236   0.629
  237OCT    H12 6375   2.799   6.091   0.595
  237OCT    H13 6376   2.951   6.074   0.690
  237OCT     C2 6377   2.982   6.102   0.476
  237OCT    H21 6378   2.934   6.159   0.393
  237OCT    H22 6379   3.086   6.142   0.489
  237OCT     C3 6380   2.991   5.954   0.436
  237OCT    H31 6381   3.039   5.898   0.518
  237OCT    H32 6382   2.888   5.915   0.423
  237OCT     C4 6383   3.070   5.932   0.306
  237OCT    H41 6384   3.021   5.988   0.224
  237OCT    H42 6385   3.173   5.971   0.319
  237OCT     C5 6386   3.079   5.784   0.266
  237OCT    H51 6387   3.127   5.727   0.348
  237OCT    H52 6388   2.975   5.744   0.253
  237OCT     C6 6389   3.158   5.762   0.136
  237OCT    H61 6390   3.109   5.818   0.053
  237OCT    H62 6391   3.261   5.801   0.149
  237OCT     C7 6392   3.166   5.613   0.096
  237OCT    H71 6393   3.215   5.556   0.178
  237OCT    H72 6394   3.063   5.574   0.082
  237OCT     C8 6395   3.245   5.592  -0.034
  237OCT    H81 6396   3.349   5.629  -0.022
  237OCT    H82 6397   3.197   5.646  -0.118
  237OCT     O1 6398   3.251   5.453  -0.068
  237OCT    HO1 6399   3.301   5.448  -0.149
  238OCT     C1 6400   1.381   2.084   3.603
  238OCT    H11 6401   1.465   2.013   3.616
  238OCT    H12 6402   1.289   2.026   3.581
  238OCT    H13 6403   1.402   2.149   3.516
  238OCT     C2 6404   1.362   2.168   3.729
  238OCT    H21 6405   1.343   2.100   3.815
  238OCT    H22 6406   1.456   2.223   3.750
  238OCT     C3 6407   1.247   2.269   3.721
  238OCT    H31 6408   1.266   2.337   3.635
  238OCT    H32 6409   1.152   2.214   3.700
  238OCT     C4 6410   1.230   2.352   3.849
  238OCT    H41 6411   1.211   2.284   3.934
  238OCT    H42 6412   1.324   2.407   3.869
  238OCT     C5 6413   1.115   2.453   3.840
  238OCT    H51 6414   1.133   2.522   3.755
  238OCT    H52 6415   1.019   2.399   3.820
  238OCT     C6 6416   1.098   2.536   3.968
  238OCT    H61 6417   1.079   2.468   4.054
  238OCT    H62 6418   1.192   2.592   3.989
  238OCT     C7 6419   0.982   2.638   3.959
  238OCT    H71 6420   1.001   2.707   3.874
  238OCT    H72 6421   0.887   2.583   3.939
  238OCT     C8 6422   0.966   2.720   4.088
  238OCT    H81 6423   1.058   2.777   4.108
  238OCT    H82 6424   0.945   2.654   4.174
  238OCT     O1 6425   0.858   2.813   4.075
  238OCT    HO1 6426   0.854   2.860   4.158
  239OCT     C1 6427   5.655   2.207   0.490
  239OCT    H11 6428   5.721   2.276   0.434
  239OCT    H12 6429   5.550   2.228   0.462
  239OCT    H13 6430   5.667   2.227   0.598
  239OCT     C2 6431   5.690   2.061   0.458
  239OCT    H21 6432   5.680   2.045   0.348
  239OCT    H22 6433   5.797   2.044   0.485
  239OCT     C3 6434   5.604   1.958   0.531
  239OCT    H31 6435   5.615   1.974   0.641
  239OCT    H32 6436   5.498   1.975   0.504
  239OCT     C4 6437   5.642   1.813   0.498
  239OCT    H41 6438   5.631   1.797   0.388
  239OCT    H42 6439   5.748   1.796   0.525
  239OCT     C5 6440   5.555   1.710   0.571
  239OCT    H51 6441   5.565   1.725   0.681
  239OCT    H52 6442   5.448   1.726   0.544
  239OCT     C6 6443   5.593   1.565   0.537
  239OCT    H61 6444   5.582   1.549   0.428
  239OCT    H62 6445   5.699   1.547   0.565
  239OCT     C7 6446   5.506   1.462   0.611
  239OCT    H71 6447   5.516   1.477   0.721
  239OCT    H72 6448   5.399   1.478   0.584
  239OCT     C8 6449   5.544   1.316   0.577
  239OCT    H81 6450   5.649   1.297   0.605
  239OCT    H82 6451   5.532   1.299   0.468
  239OCT     O1 6452   5.461   1.224   0.647
  239OCT    HO1 6453   5.491   1.137   0.621
  240OCT     C1 6454   3.499   2.238   0.500
  240OCT    H11 6455   3.443   2.316   0.444
  240OCT    H12 6456   3.440   2.143   0.497
  240OCT    H13 6457   3.507   2.269   0.606
  240OCT     C2 6458   3.637   2.217   0.439
  240OCT    H21 6459   3.626   2.188   0.332
  240OCT    H22 6460   3.693   2.314   0.442
  240OCT     C3 6461   3.722   2.110   0.510
  240OCT    H31 6462   3.734   2.140   0.616
  240OCT    H32 6463   3.667   2.014   0.507
  240OCT     C4 6464   3.861   2.091   0.447
  240OCT    H41 6465   3.849   2.062   0.341
  240OCT    H42 6466   3.915   2.188   0.450
  240OCT     C5 6467   3.945   1.985   0.518
  240OCT    H51 6468   3.958   2.013   0.625
  240OCT    H52 6469   3.891   1.887   0.515
  240OCT     C6 6470   4.084   1.966   0.455
  240OCT    H61 6471   4.072   1.937   0.348
  240OCT    H62 6472   4.139   2.063   0.458
  240OCT     C7 6473   4.168   1.859   0.526
  240OCT    H71 6474   4.181   1.888   0.633
  240OCT    H72 6475   4.114   1.762   0.523
  240OCT     C8 6476   4.307   1.841   0.462
  240OCT    H81 6477   4.363   1.936   0.467
  240OCT    H82 6478   4.297   1.810   0.357
  240OCT     O1 6479   4.382   1.741   0.532
  240OCT    HO1 6480   4.466   1.735   0.487
  241OCT     C1 6481   4.287   2.590   1.986
  241OCT    H11 6482   4.273   2.669   2.062
  241OCT    H12 6483   4.202   2.519   1.991
  241OCT    H13 6484   4.380   2.534   2.010
  241OCT     C2 6485   4.298   2.652   1.846
  241OCT    H21 6486   4.204   2.710   1.826
  241OCT    H22 6487   4.383   2.724   1.845
  241OCT     C3 6488   4.318   2.550   1.734
  241OCT    H31 6489   4.411   2.493   1.754
  241OCT    H32 6490   4.233   2.478   1.735
  241OCT     C4 6491   4.328   2.614   1.595
  241OCT    H41 6492   4.235   2.671   1.574
  241OCT    H42 6493   4.413   2.685   1.594
  241OCT     C5 6494   4.348   2.512   1.482
  241OCT    H51 6495   4.442   2.454   1.502
  241OCT    H52 6496   4.263   2.440   1.482
  241OCT     C6 6497   4.358   2.577   1.343
  241OCT    H61 6498   4.265   2.634   1.323
  241OCT    H62 6499   4.444   2.648   1.342
  241OCT     C7 6500   4.379   2.474   1.231
  241OCT    H71 6501   4.472   2.417   1.250
  241OCT    H72 6502   4.294   2.402   1.231
  241OCT     C8 6503   4.389   2.539   1.092
  241OCT    H81 6504   4.474   2.609   1.089
  241OCT    H82 6505   4.296   2.595   1.069
  241OCT     O1 6506   4.408   2.440   0.991
  241OCT    HO1 6507   4.413   2.488   0.908
  242OCT     C1 6508   3.696   3.258   1.320
  242OCT    H11 6509   3.755   3.342   1.280
  242OCT    H12 6510   3.766   3.176   1.349
  242OCT    H13 6511   3.629   3.220   1.240
  242OCT     C2 6512   3.614   3.303   1.441
  242OCT    H21 6513   3.684   3.343   1.519
  242OCT    H22 6514   3.548   3.387   1.410
  242OCT     C3 6515   3.529   3.192   1.504
  242OCT    H31 6516   3.459   3.153   1.427
  242OCT    H32 6517   3.596   3.109   1.536
  242OCT     C4 6518   3.448   3.240   1.626
  242OCT    H41 6519   3.518   3.279   1.703
  242OCT    H42 6520   3.381   3.323   1.595
  242OCT     C5 6521   3.362   3.130   1.689
  242OCT    H51 6522   3.292   3.090   1.612
  242OCT    H52 6523   3.428   3.046   1.721
  242OCT     C6 6524   3.281   3.178   1.810
  242OCT    H61 6525   3.351   3.217   1.887
  242OCT    H62 6526   3.215   3.261   1.779
  242OCT     C7 6527   3.196   3.066   1.873
  242OCT    H71 6528   3.125   3.027   1.796
  242OCT    H72 6529   3.262   2.983   1.905
  242OCT     C8 6530   3.115   3.115   1.995
  242OCT    H81 6531   3.047   3.197   1.964
  242OCT    H82 6532   3.183   3.153   2.073
  242OCT     O1 6533   3.037   3.009   2.049
  242OCT    HO1 6534   2.990   3.047   2.124
  243OCT     C1 6535   0.915   3.645   1.099
  243OCT    H11 6536   0.961   3.695   1.012
  243OCT    H12 6537   0.933   3.535   1.090
  243OCT    H13 6538   0.805   3.662   1.097
  243OCT     C2 6539   0.974   3.698   1.229
  243OCT    H21 6540   1.085   3.681   1.228
  243OCT    H22 6541   0.957   3.808   1.234
  243OCT     C3 6542   0.917   3.633   1.356
  243OCT    H31 6543   0.807   3.650   1.358
  243OCT    H32 6544   0.935   3.523   1.351
  243OCT     C4 6545   0.978   3.688   1.485
  243OCT    H41 6546   1.088   3.671   1.484
  243OCT    H42 6547   0.960   3.797   1.490
  243OCT     C5 6548   0.921   3.623   1.612
  243OCT    H51 6549   0.810   3.640   1.615
  243OCT    H52 6550   0.938   3.513   1.608
  243OCT     C6 6551   0.982   3.678   1.741
  243OCT    H61 6552   1.092   3.661   1.740
  243OCT    H62 6553   0.964   3.788   1.746
  243OCT     C7 6554   0.924   3.613   1.868
  243OCT    H71 6555   0.814   3.630   1.871
  243OCT    H72 6556   0.942   3.503   1.864
  243OCT     C8 6557   0.986   3.669   1.997
  243OCT    H81 6558   0.968   3.778   2.004
  243OCT    H82 6559   1.095   3.651   1.998
  243OCT     O1 6560   0.930   3.606   2.112
  243OCT    HO1 6561   0.973   3.645   2.188
  244OCT     C1 6562   0.118   1.955   5.215
  244OCT    H11 6563   0.128   1.939   5.324
  244OCT    H12 6564   0.036   2.028   5.196
  244OCT    H13 6565   0.089   1.858   5.168
  244OCT     C2 6566   0.249   2.006   5.156
  244OCT    H21 6567   0.277   2.102   5.206
  244OCT    H22 6568   0.330   1.932   5.178
  244OCT     C3 6569   0.245   2.030   5.004
  244OCT    H31 6570   0.218   1.935   4.954
  244OCT    H32 6571   0.165   2.105   4.983
  244OCT     C4 6572   0.378   2.082   4.948
  244OCT    H41 6573   0.405   2.177   4.998
  244OCT    H42 6574   0.458   2.007   4.969
  244OCT     C5 6575   0.374   2.106   4.796
  244OCT    H51 6576   0.347   2.011   4.744
  244OCT    H52 6577   0.294   2.180   4.773
  244OCT     C6 6578   0.507   2.157   4.739
  244OCT    H61 6579   0.534   2.253   4.790
  244OCT    H62 6580   0.587   2.083   4.761
  244OCT     C7 6581   0.502   2.181   4.587
  244OCT    H71 6582   0.476   2.086   4.536
  244OCT    H72 6583   0.423   2.256   4.565
  244OCT     C8 6584   0.636   2.233   4.531
  244OCT    H81 6585   0.716   2.159   4.551
  244OCT    H82 6586   0.663   2.329   4.580
  244OCT     O1 6587   0.627   2.254   4.391
  244OCT    HO1 6588   0.713   2.285   4.363
  245OCT     C1 6589   1.182   6.091   2.667
  245OCT    H11 6590   1.111   6.144   2.735
  245OCT    H12 6591   1.191   6.148   2.573
  245OCT    H13 6592   1.140   5.991   2.643
  245OCT     C2 6593   1.319   6.077   2.734
  245OCT    H21 6594   1.357   6.178   2.759
  245OCT    H22 6595   1.307   6.021   2.830
  245OCT     C3 6596   1.424   6.005   2.648
  245OCT    H31 6597   1.386   5.903   2.623
  245OCT    H32 6598   1.436   6.061   2.553
  245OCT     C4 6599   1.560   5.992   2.717
  245OCT    H41 6600   1.598   6.093   2.741
  245OCT    H42 6601   1.548   5.936   2.812
  245OCT     C5 6602   1.665   5.920   2.631
  245OCT    H51 6603   1.628   5.818   2.606
  245OCT    H52 6604   1.678   5.975   2.535
  245OCT     C6 6605   1.801   5.907   2.700
  245OCT    H61 6606   1.839   6.009   2.724
  245OCT    H62 6607   1.789   5.851   2.795
  245OCT     C7 6608   1.906   5.835   2.613
  245OCT    H71 6609   1.869   5.733   2.589
  245OCT    H72 6610   1.919   5.891   2.518
  245OCT     C8 6611   2.043   5.822   2.683
  245OCT    H81 6612   2.032   5.765   2.777
  245OCT    H82 6613   2.082   5.923   2.707
  245OCT     O1 6614   2.136   5.755   2.600
  245OCT    HO1 6615   2.218   5.751   2.649
  246OCT     C1 6616   3.156   0.634   3.775
  246OCT    H11 6617   3.116   0.530   3.774
  246OCT    H12 6618   3.165   0.670   3.670
  246OCT    H13 6619   3.257   0.633   3.820
  246OCT     C2 6620   3.063   0.726   3.855
  246OCT    H21 6621   2.962   0.723   3.809
  246OCT    H22 6622   3.054   0.686   3.959
  246OCT     C3 6623   3.110   0.872   3.863
  246OCT    H31 6624   3.211   0.874   3.909
  246OCT    H32 6625   3.119   0.911   3.759
  246OCT     C4 6626   3.015   0.961   3.943
  246OCT    H41 6627   2.914   0.959   3.897
  246OCT    H42 6628   3.007   0.922   4.047
  246OCT     C5 6629   3.062   1.107   3.951
  246OCT    H51 6630   3.164   1.111   3.998
  246OCT    H52 6631   3.071   1.148   3.848
  246OCT     C6 6632   2.967   1.197   4.032
  246OCT    H61 6633   2.867   1.195   3.985
  246OCT    H62 6634   2.959   1.157   4.135
  246OCT     C7 6635   3.015   1.343   4.039
  246OCT    H71 6636   3.116   1.346   4.086
  246OCT    H72 6637   3.023   1.384   3.936
  246OCT     C8 6638   2.919   1.433   4.120
  246OCT    H81 6639   2.911   1.395   4.224
  246OCT    H82 6640   2.819   1.432   4.074
  246OCT     O1 6641   2.967   1.567   4.124
  246OCT    HO1 6642   2.903   1.616   4.176
  247OCT     C1 6643   6.059   4.957   2.169
  247OCT    H11 6644   6.078   5.026   2.084
  247OCT    H12 6645   6.105   5.001   2.260
  247OCT    H13 6646   6.109   4.860   2.148
  247OCT     C2 6647   5.909   4.937   2.189
  247OCT    H21 6648   5.861   5.036   2.208
  247OCT    H22 6649   5.865   4.895   2.095
  247OCT     C3 6650   5.873   4.843   2.306
  247OCT    H31 6651   5.920   4.744   2.287
  247OCT    H32 6652   5.916   4.885   2.399
  247OCT     C4 6653   5.722   4.825   2.324
  247OCT    H41 6654   5.675   4.923   2.343
  247OCT    H42 6655   5.679   4.783   2.231
  247OCT     C5 6656   5.687   4.731   2.440
  247OCT    H51 6657   5.733   4.631   2.423
  247OCT    H52 6658   5.730   4.772   2.535
  247OCT     C6 6659   5.535   4.712   2.459
  247OCT    H61 6660   5.488   4.811   2.477
  247OCT    H62 6661   5.492   4.670   2.365
  247OCT     C7 6662   5.500   4.618   2.576
  247OCT    H71 6663   5.547   4.519   2.557
  247OCT    H72 6664   5.543   4.660   2.669
  247OCT     C8 6665   5.348   4.600   2.593
  247OCT    H81 6666   5.304   4.557   2.501
  247OCT    H82 6667   5.301   4.698   2.614
  247OCT     O1 6668   5.321   4.512   2.702
  247OCT    HO1 6669   5.225   4.506   2.707
  248OCT     C1 6670   0.572   3.477   0.570
  248OCT    H11 6671   0.535   3.433   0.665
  248OCT    H12 6672   0.676   3.442   0.553
  248OCT    H13 6673   0.574   3.587   0.580
  248OCT     C2 6674   0.482   3.436   0.453
  248OCT    H21 6675   0.480   3.325   0.446
  248OCT    H22 6676   0.378   3.470   0.474
  248OCT     C3 6677   0.526   3.493   0.317
  248OCT    H31 6678   0.527   3.604   0.324
  248OCT    H32 6679   0.629   3.458   0.296
  248OCT     C4 6680   0.434   3.450   0.202
  248OCT    H41 6681   0.433   3.339   0.195
  248OCT    H42 6682   0.331   3.485   0.223
  248OCT     C5 6683   0.478   3.507   0.066
  248OCT    H51 6684   0.480   3.618   0.072
  248OCT    H52 6685   0.582   3.473   0.044
  248OCT     C6 6686   0.386   3.464  -0.049
  248OCT    H61 6687   0.385   3.354  -0.056
  248OCT    H62 6688   0.283   3.499  -0.028
  248OCT     C7 6689   0.430   3.522  -0.185
  248OCT    H71 6690   0.431   3.632  -0.180
  248OCT    H72 6691   0.533   3.487  -0.207
  248OCT     C8 6692   0.338   3.479  -0.300
  248OCT    H81 6693   0.235   3.514  -0.281
  248OCT    H82 6694   0.337   3.368  -0.309
  248OCT     O1 6695   0.382   3.534  -0.424
  248OCT    HO1 6696   0.320   3.503  -0.491
  249OCT     C1 6697   4.269   1.688   4.357
  249OCT    H11 6698   4.256   1.668   4.465
  249OCT    H12 6699   4.169   1.686   4.308
  249OCT    H13 6700   4.330   1.606   4.313
  249OCT     C2 6701   4.336   1.823   4.334
  249OCT    H21 6702   4.274   1.903   4.382
  249OCT    H22 6703   4.435   1.823   4.386
  249OCT     C3 6704   4.358   1.859   4.187
  249OCT    H31 6705   4.421   1.781   4.140
  249OCT    H32 6706   4.260   1.860   4.136
  249OCT     C4 6707   4.426   1.996   4.167
  249OCT    H41 6708   4.363   2.075   4.214
  249OCT    H42 6709   4.524   1.995   4.219
  249OCT     C5 6710   4.448   2.032   4.020
  249OCT    H51 6711   4.511   1.953   3.972
  249OCT    H52 6712   4.350   2.032   3.967
  249OCT     C6 6713   4.516   2.168   4.001
  249OCT    H61 6714   4.453   2.247   4.047
  249OCT    H62 6715   4.614   2.168   4.052
  249OCT     C7 6716   4.537   2.204   3.852
  249OCT    H71 6717   4.601   2.125   3.805
  249OCT    H72 6718   4.439   2.205   3.800
  249OCT     C8 6719   4.605   2.341   3.834
  249OCT    H81 6720   4.704   2.341   3.883
  249OCT    H82 6721   4.543   2.420   3.878
  249OCT     O1 6722   4.624   2.369   3.695
  249OCT    HO1 6723   4.666   2.455   3.692
  250OCT     C1 6724   4.915   0.390  -0.015
  250OCT    H11 6725   4.819   0.410  -0.068
  250OCT    H12 6726   4.977   0.323  -0.077
  250OCT    H13 6727   4.892   0.338   0.081
  250OCT     C2 6728   4.988   0.521   0.013
  250OCT    H21 6729   5.007   0.573  -0.084
  250OCT    H22 6730   4.922   0.588   0.074
  250OCT     C3 6731   5.122   0.504   0.086
  250OCT    H31 6732   5.103   0.454   0.183
  250OCT    H32 6733   5.188   0.439   0.025
  250OCT     C4 6734   5.194   0.638   0.113
  250OCT    H41 6735   5.213   0.688   0.016
  250OCT    H42 6736   5.128   0.703   0.174
  250OCT     C5 6737   5.327   0.621   0.186
  250OCT    H51 6738   5.309   0.569   0.284
  250OCT    H52 6739   5.394   0.555   0.126
  250OCT     C6 6740   5.399   0.754   0.213
  250OCT    H61 6741   5.418   0.805   0.116
  250OCT    H62 6742   5.333   0.819   0.274
  250OCT     C7 6743   5.533   0.736   0.286
  250OCT    H71 6744   5.515   0.686   0.384
  250OCT    H72 6745   5.600   0.671   0.226
  250OCT     C8 6746   5.604   0.870   0.312
  250OCT    H81 6747   5.541   0.935   0.375
  250OCT    H82 6748   5.626   0.921   0.217
  250OCT     O1 6749   5.728   0.849   0.381
  250OCT    HO1 6750   5.766   0.936   0.393
  251OCT     C1 6751   1.319   0.293   1.073
  251OCT    H11 6752   1.213   0.318   1.052
  251OCT    H12 6753   1.323   0.202   1.136
  251OCT    H13 6754   1.365   0.377   1.131
  251OCT     C2 6755   1.396   0.271   0.942
  251OCT    H21 6756   1.346   0.189   0.885
  251OCT    H22 6757   1.388   0.364   0.880
  251OCT     C3 6758   1.544   0.237   0.961
  251OCT    H31 6759   1.593   0.319   1.017
  251OCT    H32 6760   1.551   0.144   1.022
  251OCT     C4 6761   1.618   0.215   0.828
  251OCT    H41 6762   1.569   0.133   0.772
  251OCT    H42 6763   1.611   0.308   0.767
  251OCT     C5 6764   1.766   0.180   0.847
  251OCT    H51 6765   1.816   0.263   0.903
  251OCT    H52 6766   1.775   0.088   0.909
  251OCT     C6 6767   1.840   0.159   0.714
  251OCT    H61 6768   1.792   0.076   0.658
  251OCT    H62 6769   1.833   0.251   0.653
  251OCT     C7 6770   1.989   0.124   0.734
  251OCT    H71 6771   2.039   0.206   0.789
  251OCT    H72 6772   1.997   0.031   0.794
  251OCT     C8 6773   2.063   0.103   0.600
  251OCT    H81 6774   2.058   0.195   0.539
  251OCT    H82 6775   2.016   0.020   0.544
  251OCT     O1 6776   2.200   0.071   0.623
  251OCT    HO1 6777   2.239   0.059   0.536
  252OCT     C1 6778   4.090   4.702   1.434
  252OCT    H11 6779   4.163   4.654   1.502
  252OCT    H12 6780   4.082   4.809   1.461
  252OCT    H13 6781   3.990   4.655   1.450
  252OCT     C2 6782   4.134   4.687   1.289
  252OCT    H21 6783   4.235   4.733   1.277
  252OCT    H22 6784   4.144   4.578   1.265
  252OCT     C3 6785   4.039   4.751   1.187
  252OCT    H31 6786   3.938   4.705   1.199
  252OCT    H32 6787   4.030   4.859   1.210
  252OCT     C4 6788   4.085   4.734   1.042
  252OCT    H41 6789   4.186   4.781   1.030
  252OCT    H42 6790   4.094   4.626   1.018
  252OCT     C5 6791   3.990   4.798   0.940
  252OCT    H51 6792   3.889   4.753   0.951
  252OCT    H52 6793   3.980   4.907   0.963
  252OCT     C6 6794   4.037   4.782   0.795
  252OCT    H61 6795   4.137   4.828   0.783
  252OCT    H62 6796   4.046   4.674   0.771
  252OCT     C7 6797   3.940   4.847   0.693
  252OCT    H71 6798   3.840   4.800   0.704
  252OCT    H72 6799   3.931   4.955   0.716
  252OCT     C8 6800   3.988   4.829   0.548
  252OCT    H81 6801   3.996   4.722   0.523
  252OCT    H82 6802   4.087   4.877   0.534
  252OCT     O1 6803   3.896   4.891   0.457
  252OCT    HO1 6804   3.932   4.876   0.370
  253OCT     C1 6805   2.345   2.912   0.493
  253OCT    H11 6806   2.318   2.967   0.585
  253OCT    H12 6807   2.265   2.837   0.472
  253OCT    H13 6808   2.439   2.857   0.510
  253OCT     C2 6809   2.360   3.008   0.375
  253OCT    H21 6810   2.264   3.064   0.361
  253OCT    H22 6811   2.439   3.083   0.399
  253OCT     C3 6812   2.396   2.940   0.242
  253OCT    H31 6813   2.492   2.885   0.256
  253OCT    H32 6814   2.317   2.866   0.217
  253OCT     C4 6815   2.411   3.039   0.126
  253OCT    H41 6816   2.315   3.094   0.112
  253OCT    H42 6817   2.490   3.113   0.150
  253OCT     C5 6818   2.447   2.971  -0.007
  253OCT    H51 6819   2.543   2.915   0.005
  253OCT    H52 6820   2.368   2.896  -0.033
  253OCT     C6 6821   2.462   3.070  -0.124
  253OCT    H61 6822   2.366   3.124  -0.137
  253OCT    H62 6823   2.541   3.144  -0.099
  253OCT     C7 6824   2.498   3.001  -0.256
  253OCT    H71 6825   2.594   2.946  -0.244
  253OCT    H72 6826   2.419   2.927  -0.282
  253OCT     C8 6827   2.513   3.100  -0.373
  253OCT    H81 6828   2.592   3.174  -0.350
  253OCT    H82 6829   2.417   3.154  -0.388
  253OCT     O1 6830   2.546   3.033  -0.493
  253OCT    HO1 6831   2.554   3.100  -0.561
  254OCT     C1 6832   1.167   2.229   0.397
  254OCT    H11 6833   1.106   2.313   0.357
  254OCT    H12 6834   1.273   2.262   0.404
  254OCT    H13 6835   1.163   2.144   0.324
  254OCT     C2 6836   1.115   2.184   0.533
  254OCT    H21 6837   1.118   2.271   0.603
  254OCT    H22 6838   1.008   2.154   0.523
  254OCT     C3 6839   1.193   2.068   0.596
  254OCT    H31 6840   1.189   1.981   0.526
  254OCT    H32 6841   1.299   2.099   0.607
  254OCT     C4 6842   1.138   2.025   0.733
  254OCT    H41 6843   1.143   2.112   0.802
  254OCT    H42 6844   1.032   1.995   0.722
  254OCT     C5 6845   1.217   1.909   0.795
  254OCT    H51 6846   1.213   1.821   0.726
  254OCT    H52 6847   1.324   1.939   0.807
  254OCT     C6 6848   1.162   1.866   0.932
  254OCT    H61 6849   1.166   1.953   1.002
  254OCT    H62 6850   1.056   1.836   0.921
  254OCT     C7 6851   1.241   1.750   0.995
  254OCT    H71 6852   1.237   1.663   0.926
  254OCT    H72 6853   1.347   1.780   1.006
  254OCT     C8 6854   1.186   1.708   1.132
  254OCT    H81 6855   1.080   1.675   1.122
  254OCT    H82 6856   1.191   1.793   1.203
  254OCT     O1 6857   1.261   1.600   1.186
  254OCT    HO1 6858   1.222   1.579   1.271
  255OCT     C1 6859   5.816   0.680   1.088
  255OCT    H11 6860   5.803   0.788   1.067
  255OCT    H12 6861   5.925   0.658   1.097
  255OCT    H13 6862   5.776   0.622   1.002
  255OCT     C2 6863   5.743   0.641   1.217
  255OCT    H21 6864   5.784   0.702   1.301
  255OCT    H22 6865   5.635   0.666   1.206
  255OCT     C3 6866   5.756   0.492   1.254
  255OCT    H31 6867   5.715   0.432   1.171
  255OCT    H32 6868   5.864   0.468   1.266
  255OCT     C4 6869   5.682   0.456   1.384
  255OCT    H41 6870   5.723   0.517   1.467
  255OCT    H42 6871   5.574   0.481   1.373
  255OCT     C5 6872   5.695   0.308   1.421
  255OCT    H51 6873   5.654   0.246   1.338
  255OCT    H52 6874   5.803   0.282   1.433
  255OCT     C6 6875   5.621   0.272   1.551
  255OCT    H61 6876   5.662   0.333   1.634
  255OCT    H62 6877   5.513   0.296   1.539
  255OCT     C7 6878   5.634   0.123   1.587
  255OCT    H71 6879   5.593   0.061   1.505
  255OCT    H72 6880   5.742   0.098   1.599
  255OCT     C8 6881   5.560   0.087   1.718
  255OCT    H81 6882   5.452   0.110   1.707
  255OCT    H82 6883   5.601   0.146   1.802
  255OCT     O1 6884   5.575  -0.051   1.748
  255OCT    HO1 6885   5.526  -0.066   1.829
  256OCT     C1 6886   6.164   0.769   6.000
  256OCT    H11 6887   6.213   0.805   6.092
  256OCT    H12 6888   6.070   0.718   6.027
  256OCT    H13 6889   6.231   0.695   5.950
  256OCT     C2 6890   6.136   0.886   5.905
  256OCT    H21 6891   6.071   0.960   5.958
  256OCT    H22 6892   6.232   0.937   5.882
  256OCT     C3 6893   6.068   0.846   5.774
  256OCT    H31 6894   6.133   0.773   5.721
  256OCT    H32 6895   5.971   0.796   5.798
  256OCT     C4 6896   6.040   0.965   5.681
  256OCT    H41 6897   5.975   1.038   5.734
  256OCT    H42 6898   6.136   1.016   5.657
  256OCT     C5 6899   5.972   0.925   5.550
  256OCT    H51 6900   6.037   0.852   5.496
  256OCT    H52 6901   5.875   0.875   5.573
  256OCT     C6 6902   5.945   1.045   5.457
  256OCT    H61 6903   5.880   1.118   5.510
  256OCT    H62 6904   6.041   1.095   5.433
  256OCT     C7 6905   5.876   1.004   5.326
  256OCT    H71 6906   5.941   0.931   5.272
  256OCT    H72 6907   5.780   0.954   5.349
  256OCT     C8 6908   5.849   1.124   5.233
  256OCT    H81 6909   5.944   1.174   5.207
  256OCT    H82 6910   5.783   1.197   5.284
  256OCT     O1 6911   5.786   1.082   5.113
  256OCT    HO1 6912   5.772   1.161   5.061
  257OCT     C1 6913   2.535   4.824   1.438
  257OCT    H11 6914   2.629   4.796   1.490
  257OCT    H12 6915   2.537   4.781   1.335
  257OCT    H13 6916   2.530   4.934   1.430
  257OCT     C2 6917   2.414   4.770   1.516
  257OCT    H21 6918   2.423   4.659   1.524
  257OCT    H22 6919   2.416   4.812   1.619
  257OCT     C3 6920   2.279   4.804   1.452
  257OCT    H31 6921   2.270   4.914   1.444
  257OCT    H32 6922   2.277   4.761   1.349
  257OCT     C4 6923   2.159   4.749   1.531
  257OCT    H41 6924   2.169   4.638   1.539
  257OCT    H42 6925   2.161   4.791   1.634
  257OCT     C5 6926   2.024   4.782   1.467
  257OCT    H51 6927   2.014   4.893   1.459
  257OCT    H52 6928   2.021   4.740   1.364
  257OCT     C6 6929   1.905   4.727   1.547
  257OCT    H61 6930   1.914   4.617   1.555
  257OCT    H62 6931   1.907   4.770   1.649
  257OCT     C7 6932   1.769   4.761   1.482
  257OCT    H71 6933   1.759   4.871   1.474
  257OCT    H72 6934   1.766   4.718   1.380
  257OCT     C8 6935   1.650   4.706   1.562
  257OCT    H81 6936   1.650   4.749   1.664
  257OCT    H82 6937   1.657   4.596   1.570
  257OCT     O1 6938   1.527   4.739   1.499
  257OCT    HO1 6939   1.458   4.702   1.554
  258OCT     C1 6940   4.996   0.982   3.185
  258OCT    H11 6941   4.949   0.932   3.098
  258OCT    H12 6942   4.980   1.092   3.176
  258OCT    H13 6943   5.105   0.962   3.182
  258OCT     C2 6944   4.935   0.930   3.315
  258OCT    H21 6945   4.825   0.949   3.314
  258OCT    H22 6946   4.950   0.820   3.320
  258OCT     C3 6947   4.994   0.994   3.442
  258OCT    H31 6948   5.103   0.974   3.443
  258OCT    H32 6949   4.979   1.104   3.437
  258OCT     C4 6950   4.931   0.940   3.571
  258OCT    H41 6951   4.822   0.960   3.570
  258OCT    H42 6952   4.947   0.830   3.576
  258OCT     C5 6953   4.991   1.003   3.698
  258OCT    H51 6954   5.101   0.984   3.700
  258OCT    H52 6955   4.976   1.114   3.694
  258OCT     C6 6956   4.928   0.950   3.827
  258OCT    H61 6957   4.819   0.969   3.826
  258OCT    H62 6958   4.943   0.840   3.832
  258OCT     C7 6959   4.988   1.014   3.954
  258OCT    H71 6960   5.097   0.994   3.956
  258OCT    H72 6961   4.972   1.124   3.950
  258OCT     C8 6962   4.924   0.959   4.083
  258OCT    H81 6963   4.940   0.850   4.090
  258OCT    H82 6964   4.816   0.980   4.084
  258OCT     O1 6965   4.983   1.021   4.198
  258OCT    HO1 6966   4.939   0.983   4.274
  259OCT     C1 6967   0.373   4.873   1.648
  259OCT    H11 6968   0.354   4.911   1.751
  259OCT    H12 6969   0.360   4.763   1.649
  259OCT    H13 6970   0.479   4.895   1.621
  259OCT     C2 6971   0.278   4.938   1.548
  259OCT    H21 6972   0.173   4.917   1.580
  259OCT    H22 6973   0.292   5.049   1.552
  259OCT     C3 6974   0.297   4.892   1.403
  259OCT    H31 6975   0.401   4.914   1.373
  259OCT    H32 6976   0.282   4.782   1.400
  259OCT     C4 6977   0.200   4.958   1.305
  259OCT    H41 6978   0.095   4.936   1.336
  259OCT    H42 6979   0.214   5.069   1.309
  259OCT     C5 6980   0.218   4.912   1.160
  259OCT    H51 6981   0.323   4.934   1.128
  259OCT    H52 6982   0.204   4.801   1.155
  259OCT     C6 6983   0.121   4.979   1.062
  259OCT    H61 6984   0.017   4.956   1.093
  259OCT    H62 6985   0.136   5.089   1.066
  259OCT     C7 6986   0.141   4.931   0.917
  259OCT    H71 6987   0.245   4.954   0.885
  259OCT    H72 6988   0.126   4.821   0.912
  259OCT     C8 6989   0.043   4.999   0.819
  259OCT    H81 6990   0.058   5.108   0.821
  259OCT    H82 6991  -0.061   4.976   0.848
  259OCT     O1 6992   0.065   4.952   0.686
  259OCT    HO1 6993   0.001   4.998   0.631
  260OCT     C1 6994   5.904   1.425   4.196
  260OCT    H11 6995   6.002   1.450   4.241
  260OCT    H12 6996   5.839   1.382   4.276
  260OCT    H13 6997   5.918   1.348   4.118
  260OCT     C2 6998   5.839   1.550   4.137
  260OCT    H21 6999   5.828   1.627   4.217
  260OCT    H22 7000   5.907   1.592   4.059
  260OCT     C3 7001   5.701   1.525   4.073
  260OCT    H31 7002   5.713   1.449   3.993
  260OCT    H32 7003   5.634   1.484   4.151
  260OCT     C4 7004   5.639   1.652   4.014
  260OCT    H41 7005   5.627   1.728   4.094
  260OCT    H42 7006   5.706   1.693   3.936
  260OCT     C5 7007   5.501   1.627   3.950
  260OCT    H51 7008   5.511   1.551   3.869
  260OCT    H52 7009   5.432   1.585   4.027
  260OCT     C6 7010   5.438   1.754   3.891
  260OCT    H61 7011   5.427   1.830   3.971
  260OCT    H62 7012   5.506   1.795   3.813
  260OCT     C7 7013   5.300   1.728   3.827
  260OCT    H71 7014   5.311   1.653   3.746
  260OCT    H72 7015   5.232   1.687   3.904
  260OCT     C8 7016   5.238   1.856   3.768
  260OCT    H81 7017   5.304   1.897   3.689
  260OCT    H82 7018   5.225   1.932   3.847
  260OCT     O1 7019   5.111   1.828   3.710
  260OCT    HO1 7020   5.079   1.911   3.676
  261OCT     C1 7021   5.169   0.666   5.356
  261OCT    H11 7022   5.157   0.747   5.430
  261OCT    H12 7023   5.159   0.568   5.408
  261OCT    H13 7024   5.271   0.671   5.312
  261OCT     C2 7025   5.063   0.678   5.246
  261OCT    H21 7026   4.962   0.675   5.292
  261OCT    H22 7027   5.074   0.778   5.197
  261OCT     C3 7028   5.071   0.570   5.138
  261OCT    H31 7029   5.172   0.574   5.091
  261OCT    H32 7030   5.060   0.471   5.187
  261OCT     C4 7031   4.964   0.585   5.029
  261OCT    H41 7032   4.864   0.581   5.075
  261OCT    H42 7033   4.976   0.684   4.980
  261OCT     C5 7034   4.972   0.476   4.921
  261OCT    H51 7035   5.073   0.479   4.873
  261OCT    H52 7036   4.961   0.376   4.969
  261OCT     C6 7037   4.865   0.491   4.812
  261OCT    H61 7038   4.765   0.487   4.858
  261OCT    H62 7039   4.877   0.590   4.763
  261OCT     C7 7040   4.874   0.382   4.704
  261OCT    H71 7041   4.974   0.386   4.656
  261OCT    H72 7042   4.862   0.282   4.752
  261OCT     C8 7043   4.767   0.398   4.595
  261OCT    H81 7044   4.778   0.496   4.544
  261OCT    H82 7045   4.666   0.392   4.640
  261OCT     O1 7046   4.778   0.295   4.497
  261OCT    HO1 7047   4.709   0.311   4.433
  262OCT     C1 7048   1.339   5.413   4.679
  262OCT    H11 7049   1.307   5.517   4.656
  262OCT    H12 7050   1.267   5.368   4.750
  262OCT    H13 7051   1.439   5.417   4.729
  262OCT     C2 7052   1.347   5.330   4.551
  262OCT    H21 7053   1.247   5.330   4.502
  262OCT    H22 7054   1.419   5.379   4.481
  262OCT     C3 7055   1.391   5.185   4.573
  262OCT    H31 7056   1.491   5.185   4.621
  262OCT    H32 7057   1.319   5.136   4.642
  262OCT     C4 7058   1.398   5.104   4.443
  262OCT    H41 7059   1.298   5.103   4.394
  262OCT    H42 7060   1.470   5.152   4.373
  262OCT     C5 7061   1.442   4.958   4.464
  262OCT    H51 7062   1.542   4.957   4.513
  262OCT    H52 7063   1.370   4.909   4.534
  262OCT     C6 7064   1.449   4.877   4.334
  262OCT    H61 7065   1.349   4.877   4.286
  262OCT    H62 7066   1.521   4.926   4.265
  262OCT     C7 7067   1.493   4.731   4.357
  262OCT    H71 7068   1.593   4.731   4.405
  262OCT    H72 7069   1.421   4.682   4.426
  262OCT     C8 7070   1.500   4.651   4.226
  262OCT    H81 7071   1.572   4.697   4.157
  262OCT    H82 7072   1.400   4.648   4.178
  262OCT     O1 7073   1.541   4.517   4.252
  262OCT    HO1 7074   1.543   4.473   4.166
  263OCT     C1 7075   4.940   6.036   3.844
  263OCT    H11 7076   4.976   6.104   3.924
  263OCT    H12 7077   4.829   6.043   3.839
  263OCT    H13 7078   4.967   5.931   3.870
  263OCT     C2 7079   5.002   6.074   3.709
  263OCT    H21 7080   4.975   6.180   3.687
  263OCT    H22 7081   5.113   6.069   3.718
  263OCT     C3 7082   4.958   5.986   3.592
  263OCT    H31 7083   4.985   5.881   3.615
  263OCT    H32 7084   4.847   5.992   3.583
  263OCT     C4 7085   5.021   6.027   3.458
  263OCT    H41 7086   4.994   6.132   3.436
  263OCT    H42 7087   5.132   6.021   3.467
  263OCT     C5 7088   4.977   5.939   3.341
  263OCT    H51 7089   5.004   5.833   3.363
  263OCT    H52 7090   4.866   5.944   3.331
  263OCT     C6 7091   5.041   5.980   3.207
  263OCT    H61 7092   5.014   6.085   3.185
  263OCT    H62 7093   5.151   5.973   3.216
  263OCT     C7 7094   4.996   5.891   3.090
  263OCT    H71 7095   5.023   5.785   3.112
  263OCT    H72 7096   4.885   5.897   3.080
  263OCT     C8 7097   5.060   5.932   2.956
  263OCT    H81 7098   5.170   5.925   2.964
  263OCT    H82 7099   5.033   6.036   2.932
  263OCT     O1 7100   5.016   5.847   2.851
  263OCT    HO1 7101   5.060   5.879   2.772
  264OCT     C1 7102   3.192   1.386   3.399
  264OCT    H11 7103   3.156   1.491   3.396
  264OCT    H12 7104   3.118   1.322   3.344
  264OCT    H13 7105   3.195   1.352   3.505
  264OCT     C2 7106   3.330   1.374   3.335
  264OCT    H21 7107   3.324   1.410   3.229
  264OCT    H22 7108   3.401   1.440   3.389
  264OCT     C3 7109   3.387   1.231   3.334
  264OCT    H31 7110   3.393   1.196   3.439
  264OCT    H32 7111   3.317   1.165   3.279
  264OCT     C4 7112   3.526   1.222   3.270
  264OCT    H41 7113   3.520   1.258   3.165
  264OCT    H42 7114   3.596   1.288   3.325
  264OCT     C5 7115   3.583   1.080   3.269
  264OCT    H51 7116   3.589   1.042   3.374
  264OCT    H52 7117   3.513   1.012   3.214
  264OCT     C6 7118   3.722   1.070   3.205
  264OCT    H61 7119   3.715   1.106   3.100
  264OCT    H62 7120   3.792   1.136   3.260
  264OCT     C7 7121   3.778   0.927   3.205
  264OCT    H71 7122   3.785   0.891   3.309
  264OCT    H72 7123   3.709   0.860   3.149
  264OCT     C8 7124   3.918   0.919   3.140
  264OCT    H81 7125   3.989   0.983   3.194
  264OCT    H82 7126   3.912   0.952   3.034
  264OCT     O1 7127   3.966   0.784   3.142
  264OCT    HO1 7128   4.052   0.787   3.100
  265OCT     C1 7129   0.496   2.398   2.003
  265OCT    H11 7130   0.406   2.451   2.040
  265OCT    H12 7131   0.538   2.337   2.086
  265OCT    H13 7132   0.572   2.473   1.973
  265OCT     C2 7133   0.460   2.309   1.884
  265OCT    H21 7134   0.382   2.236   1.916
  265OCT    H22 7135   0.415   2.372   1.804
  265OCT     C3 7136   0.579   2.231   1.825
  265OCT    H31 7137   0.656   2.304   1.793
  265OCT    H32 7138   0.623   2.168   1.905
  265OCT     C4 7139   0.540   2.143   1.706
  265OCT    H41 7140   0.463   2.070   1.739
  265OCT    H42 7141   0.497   2.206   1.626
  265OCT     C5 7142   0.659   2.065   1.647
  265OCT    H51 7143   0.737   2.138   1.615
  265OCT    H52 7144   0.704   2.001   1.727
  265OCT     C6 7145   0.620   1.977   1.528
  265OCT    H61 7146   0.543   1.904   1.561
  265OCT    H62 7147   0.577   2.040   1.448
  265OCT     C7 7148   0.740   1.900   1.470
  265OCT    H71 7149   0.818   1.972   1.437
  265OCT    H72 7150   0.784   1.835   1.549
  265OCT     C8 7151   0.701   1.811   1.350
  265OCT    H81 7152   0.658   1.873   1.269
  265OCT    H82 7153   0.625   1.737   1.382
  265OCT     O1 7154   0.814   1.741   1.299
  265OCT    HO1 7155   0.782   1.689   1.226
  266OCT     C1 7156   1.260   5.250   2.523
  266OCT    H11 7157   1.237   5.331   2.595
  266OCT    H12 7158   1.175   5.178   2.521
  266OCT    H13 7159   1.350   5.195   2.558
  266OCT     C2 7160   1.283   5.308   2.383
  266OCT    H21 7161   1.192   5.364   2.352
  266OCT    H22 7162   1.367   5.381   2.388
  266OCT     C3 7163   1.316   5.203   2.276
  266OCT    H31 7164   1.407   5.148   2.307
  266OCT    H32 7165   1.232   5.131   2.271
  266OCT     C4 7166   1.339   5.264   2.137
  266OCT    H41 7167   1.247   5.319   2.106
  266OCT    H42 7168   1.423   5.336   2.142
  266OCT     C5 7169   1.371   5.159   2.030
  266OCT    H51 7170   1.463   5.103   2.060
  266OCT    H52 7171   1.287   5.086   2.024
  266OCT     C6 7172   1.394   5.220   1.891
  266OCT    H61 7173   1.303   5.275   1.860
  266OCT    H62 7174   1.478   5.292   1.896
  266OCT     C7 7175   1.427   5.114   1.784
  266OCT    H71 7176   1.518   5.059   1.814
  266OCT    H72 7177   1.343   5.042   1.777
  266OCT     C8 7178   1.449   5.176   1.645
  266OCT    H81 7179   1.534   5.247   1.648
  266OCT    H82 7180   1.359   5.230   1.612
  266OCT     O1 7181   1.479   5.075   1.549
  266OCT    HO1 7182   1.492   5.120   1.465
  267OCT     C1 7183   2.603   2.978   2.920
  267OCT    H11 7184   2.647   2.921   3.004
  267OCT    H12 7185   2.624   3.086   2.935
  267OCT    H13 7186   2.493   2.963   2.921
  267OCT     C2 7187   2.661   2.930   2.787
  267OCT    H21 7188   2.772   2.944   2.789
  267OCT    H22 7189   2.641   2.821   2.776
  267OCT     C3 7190   2.605   3.003   2.664
  267OCT    H31 7191   2.495   2.989   2.661
  267OCT    H32 7192   2.626   3.112   2.675
  267OCT     C4 7193   2.665   2.954   2.531
  267OCT    H41 7194   2.775   2.968   2.534
  267OCT    H42 7195   2.644   2.845   2.521
  267OCT     C5 7196   2.609   3.027   2.409
  267OCT    H51 7197   2.499   3.013   2.405
  267OCT    H52 7198   2.630   3.136   2.419
  267OCT     C6 7199   2.669   2.977   2.276
  267OCT    H61 7200   2.780   2.991   2.279
  267OCT    H62 7201   2.648   2.868   2.265
  267OCT     C7 7202   2.613   3.051   2.154
  267OCT    H71 7203   2.503   3.037   2.150
  267OCT    H72 7204   2.634   3.159   2.164
  267OCT     C8 7205   2.674   3.000   2.021
  267OCT    H81 7206   2.652   2.893   2.008
  267OCT    H82 7207   2.783   3.015   2.022
  267OCT     O1 7208   2.619   3.071   1.910
  267OCT    HO1 7209   2.661   3.035   1.833
  268OCT     C1 7210   5.026   0.412   3.572
  268OCT    H11 7211   5.069   0.442   3.670
  268OCT    H12 7212   4.927   0.365   3.590
  268OCT    H13 7213   5.093   0.336   3.526
  268OCT     C2 7214   5.013   0.533   3.480
  268OCT    H21 7215   4.947   0.609   3.530
  268OCT    H22 7216   5.113   0.580   3.467
  268OCT     C3 7217   4.954   0.502   3.342
  268OCT    H31 7218   5.020   0.427   3.292
  268OCT    H32 7219   4.854   0.456   3.356
  268OCT     C4 7220   4.941   0.625   3.252
  268OCT    H41 7221   4.876   0.700   3.302
  268OCT    H42 7222   5.042   0.671   3.238
  268OCT     C5 7223   4.883   0.593   3.114
  268OCT    H51 7224   4.948   0.518   3.063
  268OCT    H52 7225   4.782   0.547   3.126
  268OCT     C6 7226   4.870   0.717   3.024
  268OCT    H61 7227   4.805   0.792   3.073
  268OCT    H62 7228   4.971   0.763   3.010
  268OCT     C7 7229   4.811   0.684   2.885
  268OCT    H71 7230   4.877   0.610   2.835
  268OCT    H72 7231   4.711   0.639   2.898
  268OCT     C8 7232   4.799   0.809   2.796
  268OCT    H81 7233   4.898   0.854   2.780
  268OCT    H82 7234   4.733   0.883   2.843
  268OCT     O1 7235   4.744   0.774   2.668
  268OCT    HO1 7236   4.740   0.856   2.619
  269OCT     C1 7237   4.880   6.084   4.525
  269OCT    H11 7238   4.930   6.109   4.429
  269OCT    H12 7239   4.776   6.053   4.504
  269OCT    H13 7240   4.876   6.176   4.588
  269OCT     C2 7241   4.955   5.973   4.598
  269OCT    H21 7242   4.960   5.883   4.532
  269OCT    H22 7243   5.060   6.006   4.616
  269OCT     C3 7244   4.893   5.932   4.733
  269OCT    H31 7245   4.890   6.022   4.798
  269OCT    H32 7246   4.789   5.898   4.714
  269OCT     C4 7247   4.971   5.820   4.803
  269OCT    H41 7248   4.975   5.731   4.738
  269OCT    H42 7249   5.075   5.854   4.822
  269OCT     C5 7250   4.909   5.780   4.938
  269OCT    H51 7251   4.905   5.869   5.005
  269OCT    H52 7252   4.804   5.746   4.921
  269OCT     C6 7253   4.987   5.668   5.009
  269OCT    H61 7254   4.990   5.579   4.943
  269OCT    H62 7255   5.091   5.702   5.027
  269OCT     C7 7256   4.924   5.628   5.143
  269OCT    H71 7257   4.921   5.717   5.210
  269OCT    H72 7258   4.820   5.593   5.126
  269OCT     C8 7259   5.002   5.516   5.214
  269OCT    H81 7260   5.106   5.549   5.234
  269OCT    H82 7261   5.005   5.425   5.150
  269OCT     O1 7262   4.941   5.481   5.338
  269OCT    HO1 7263   4.995   5.412   5.376
  270OCT     C1 7264   4.345   4.111   0.741
  270OCT    H11 7265   4.311   4.094   0.637
  270OCT    H12 7266   4.382   4.015   0.783
  270OCT    H13 7267   4.257   4.144   0.801
  270OCT     C2 7268   4.455   4.217   0.745
  270OCT    H21 7269   4.540   4.183   0.682
  270OCT    H22 7270   4.416   4.311   0.700
  270OCT     C3 7271   4.507   4.248   0.886
  270OCT    H31 7272   4.423   4.283   0.948
  270OCT    H32 7273   4.547   4.154   0.930
  270OCT     C4 7274   4.618   4.355   0.887
  270OCT    H41 7275   4.703   4.320   0.824
  270OCT    H42 7276   4.578   4.449   0.842
  270OCT     C5 7277   4.670   4.386   1.027
  270OCT    H51 7278   4.586   4.421   1.091
  270OCT    H52 7279   4.710   4.292   1.073
  270OCT     C6 7280   4.781   4.493   1.028
  270OCT    H61 7281   4.866   4.458   0.966
  270OCT    H62 7282   4.741   4.586   0.984
  270OCT     C7 7283   4.833   4.523   1.170
  270OCT    H71 7284   4.749   4.559   1.233
  270OCT    H72 7285   4.873   4.430   1.215
  270OCT     C8 7286   4.944   4.630   1.170
  270OCT    H81 7287   4.905   4.725   1.127
  270OCT    H82 7288   5.030   4.596   1.109
  270OCT     O1 7289   4.989   4.656   1.303
  270OCT    HO1 7290   5.057   4.723   1.295
  271OCT     C1 7291   1.628   5.379   4.852
  271OCT    H11 7292   1.530   5.334   4.880
  271OCT    H12 7293   1.619   5.490   4.858
  271OCT    H13 7294   1.650   5.353   4.746
  271OCT     C2 7295   1.738   5.328   4.944
  271OCT    H21 7296   1.712   5.354   5.049
  271OCT    H22 7297   1.743   5.217   4.937
  271OCT     C3 7298   1.877   5.385   4.913
  271OCT    H31 7299   1.904   5.358   4.808
  271OCT    H32 7300   1.873   5.496   4.921
  271OCT     C4 7301   1.987   5.332   5.007
  271OCT    H41 7302   1.960   5.359   5.112
  271OCT    H42 7303   1.991   5.222   4.999
  271OCT     C5 7304   2.126   5.389   4.976
  271OCT    H51 7305   2.153   5.363   4.871
  271OCT    H52 7306   2.122   5.500   4.983
  271OCT     C6 7307   2.235   5.336   5.070
  271OCT    H61 7308   2.209   5.363   5.175
  271OCT    H62 7309   2.239   5.226   5.063
  271OCT     C7 7310   2.374   5.394   5.038
  271OCT    H71 7311   2.401   5.367   4.934
  271OCT    H72 7312   2.371   5.504   5.046
  271OCT     C8 7313   2.483   5.340   5.133
  271OCT    H81 7314   2.490   5.230   5.125
  271OCT    H82 7315   2.459   5.367   5.238
  271OCT     O1 7316   2.610   5.396   5.100
  271OCT    HO1 7317   2.672   5.358   5.163
  272OCT     C1 7318   4.397   5.671   1.561
  272OCT    H11 7319   4.313   5.738   1.588
  272OCT    H12 7320   4.358   5.589   1.498
  272OCT    H13 7321   4.439   5.627   1.654
  272OCT     C2 7322   4.505   5.750   1.486
  272OCT    H21 7323   4.459   5.795   1.395
  272OCT    H22 7324   4.540   5.833   1.551
  272OCT     C3 7325   4.626   5.665   1.444
  272OCT    H31 7326   4.672   5.621   1.535
  272OCT    H32 7327   4.591   5.583   1.379
  272OCT     C4 7328   4.733   5.746   1.369
  272OCT    H41 7329   4.687   5.791   1.278
  272OCT    H42 7330   4.768   5.829   1.434
  272OCT     C5 7331   4.854   5.662   1.327
  272OCT    H51 7332   4.900   5.617   1.417
  272OCT    H52 7333   4.819   5.578   1.261
  272OCT     C6 7334   4.960   5.743   1.251
  272OCT    H61 7335   4.915   5.787   1.160
  272OCT    H62 7336   4.996   5.826   1.317
  272OCT     C7 7337   5.082   5.658   1.209
  272OCT    H71 7338   5.128   5.613   1.300
  272OCT    H72 7339   5.047   5.575   1.144
  272OCT     C8 7340   5.188   5.740   1.134
  272OCT    H81 7341   5.226   5.821   1.199
  272OCT    H82 7342   5.145   5.783   1.042
  272OCT     O1 7343   5.298   5.657   1.097
  272OCT    HO1 7344   5.360   5.714   1.051
  273OCT     C1 7345   4.776   5.290   1.469
  273OCT    H11 7346   4.793   5.300   1.360
  273OCT    H12 7347   4.722   5.194   1.488
  273OCT    H13 7348   4.710   5.373   1.502
  273OCT     C2 7349   4.908   5.293   1.546
  273OCT    H21 7350   4.973   5.210   1.508
  273OCT    H22 7351   4.960   5.389   1.523
  273OCT     C3 7352   4.893   5.280   1.698
  273OCT    H31 7353   4.829   5.363   1.734
  273OCT    H32 7354   4.842   5.184   1.720
  273OCT     C4 7355   5.028   5.283   1.772
  273OCT    H41 7356   5.092   5.200   1.735
  273OCT    H42 7357   5.079   5.379   1.749
  273OCT     C5 7358   5.013   5.270   1.924
  273OCT    H51 7359   4.949   5.353   1.962
  273OCT    H52 7360   4.961   5.174   1.948
  273OCT     C6 7361   5.147   5.274   1.998
  273OCT    H61 7362   5.211   5.191   1.961
  273OCT    H62 7363   5.199   5.370   1.976
  273OCT     C7 7364   5.132   5.260   2.151
  273OCT    H71 7365   5.069   5.343   2.188
  273OCT    H72 7366   5.081   5.164   2.174
  273OCT     C8 7367   5.267   5.264   2.224
  273OCT    H81 7368   5.319   5.360   2.204
  273OCT    H82 7369   5.331   5.181   2.190
  273OCT     O1 7370   5.248   5.251   2.365
  273OCT    HO1 7371   5.336   5.254   2.404
  274OCT     C1 7372   4.986   4.214   2.877
  274OCT    H11 7373   4.967   4.211   2.768
  274OCT    H12 7374   4.907   4.155   2.929
  274OCT    H13 7375   4.978   4.320   2.912
  274OCT     C2 7376   5.124   4.158   2.909
  274OCT    H21 7377   5.129   4.053   2.871
  274OCT    H22 7378   5.201   4.217   2.854
  274OCT     C3 7379   5.159   4.158   3.059
  274OCT    H31 7380   5.154   4.262   3.096
  274OCT    H32 7381   5.083   4.098   3.113
  274OCT     C4 7382   5.298   4.100   3.088
  274OCT    H41 7383   5.303   3.996   3.051
  274OCT    H42 7384   5.375   4.160   3.034
  274OCT     C5 7385   5.333   4.100   3.237
  274OCT    H51 7386   5.329   4.205   3.276
  274OCT    H52 7387   5.257   4.040   3.293
  274OCT     C6 7388   5.473   4.043   3.267
  274OCT    H61 7389   5.477   3.938   3.229
  274OCT    H62 7390   5.549   4.103   3.213
  274OCT     C7 7391   5.507   4.043   3.417
  274OCT    H71 7392   5.503   4.147   3.455
  274OCT    H72 7393   5.432   3.983   3.472
  274OCT     C8 7394   5.647   3.985   3.445
  274OCT    H81 7395   5.724   4.045   3.393
  274OCT    H82 7396   5.653   3.881   3.410
  274OCT     O1 7397   5.675   3.988   3.585
  274OCT    HO1 7398   5.763   3.950   3.595
  275OCT     C1 7399   2.141   5.341   2.988
  275OCT    H11 7400   2.126   5.242   2.941
  275OCT    H12 7401   2.103   5.419   2.919
  275OCT    H13 7402   2.250   5.358   3.002
  275OCT     C2 7403   2.068   5.348   3.122
  275OCT    H21 7404   1.959   5.329   3.105
  275OCT    H22 7405   2.107   5.267   3.189
  275OCT     C3 7406   2.083   5.483   3.195
  275OCT    H31 7407   2.191   5.502   3.212
  275OCT    H32 7408   2.043   5.563   3.129
  275OCT     C4 7409   2.008   5.487   3.329
  275OCT    H41 7410   1.900   5.468   3.312
  275OCT    H42 7411   2.048   5.407   3.395
  275OCT     C5 7412   2.023   5.621   3.402
  275OCT    H51 7413   2.131   5.642   3.420
  275OCT    H52 7414   1.984   5.703   3.336
  275OCT     C6 7415   1.949   5.626   3.536
  275OCT    H61 7416   1.841   5.607   3.519
  275OCT    H62 7417   1.988   5.546   3.602
  275OCT     C7 7418   1.964   5.761   3.609
  275OCT    H71 7419   2.072   5.780   3.627
  275OCT    H72 7420   1.925   5.842   3.543
  275OCT     C8 7421   1.889   5.765   3.743
  275OCT    H81 7422   1.929   5.686   3.810
  275OCT    H82 7423   1.781   5.747   3.727
  275OCT     O1 7424   1.906   5.891   3.807
  275OCT    HO1 7425   1.857   5.886   3.889
  276OCT     C1 7426   0.769   3.194   3.903
  276OCT    H11 7427   0.842   3.277   3.889
  276OCT    H12 7428   0.818   3.113   3.961
  276OCT    H13 7429   0.742   3.154   3.803
  276OCT     C2 7430   0.645   3.244   3.976
  276OCT    H21 7431   0.676   3.286   4.075
  276OCT    H22 7432   0.600   3.328   3.917
  276OCT     C3 7433   0.538   3.137   3.999
  276OCT    H31 7434   0.507   3.096   3.901
  276OCT    H32 7435   0.583   3.055   4.059
  276OCT     C4 7436   0.414   3.190   4.073
  276OCT    H41 7437   0.445   3.231   4.172
  276OCT    H42 7438   0.369   3.273   4.014
  276OCT     C5 7439   0.307   3.083   4.096
  276OCT    H51 7440   0.275   3.041   3.998
  276OCT    H52 7441   0.351   2.999   4.156
  276OCT     C6 7442   0.183   3.136   4.170
  276OCT    H61 7443   0.214   3.177   4.269
  276OCT    H62 7444   0.138   3.218   4.111
  276OCT     C7 7445   0.076   3.027   4.193
  276OCT    H71 7446   0.044   2.987   4.095
  276OCT    H72 7447   0.120   2.945   4.253
  276OCT     C8 7448  -0.048   3.082   4.267
  276OCT    H81 7449  -0.095   3.163   4.208
  276OCT    H82 7450  -0.019   3.121   4.366
  276OCT     O1 7451  -0.144   2.978   4.286
  276OCT    HO1 7452  -0.218   3.019   4.332
  277OCT     C1 7453   5.946   2.022   2.964
  277OCT    H11 7454   6.027   1.948   2.948
  277OCT    H12 7455   5.953   2.100   2.885
  277OCT    H13 7456   5.962   2.071   3.063
  277OCT     C2 7457   5.809   1.954   2.959
  277OCT    H21 7458   5.797   1.904   2.860
  277OCT    H22 7459   5.806   1.875   3.038
  277OCT     C3 7460   5.691   2.050   2.981
  277OCT    H31 7461   5.703   2.099   3.080
  277OCT    H32 7462   5.694   2.128   2.903
  277OCT     C4 7463   5.555   1.979   2.976
  277OCT    H41 7464   5.543   1.930   2.877
  277OCT    H42 7465   5.552   1.900   3.054
  277OCT     C5 7466   5.436   2.074   2.998
  277OCT    H51 7467   5.447   2.124   3.097
  277OCT    H52 7468   5.439   2.154   2.919
  277OCT     C6 7469   5.300   2.003   2.992
  277OCT    H61 7470   5.288   1.954   2.894
  277OCT    H62 7471   5.297   1.925   3.071
  277OCT     C7 7472   5.182   2.099   3.014
  277OCT    H71 7473   5.193   2.149   3.113
  277OCT    H72 7474   5.184   2.178   2.936
  277OCT     C8 7475   5.046   2.028   3.009
  277OCT    H81 7476   5.041   1.950   3.088
  277OCT    H82 7477   5.032   1.980   2.910
  277OCT     O1 7478   4.939   2.120   3.030
  277OCT    HO1 7479   4.859   2.069   3.025
  278OCT     C1 7480   0.175   4.223   2.279
  278OCT    H11 7481   0.233   4.194   2.369
  278OCT    H12 7482   0.130   4.324   2.296
  278OCT    H13 7483   0.091   4.151   2.265
  278OCT     C2 7484   0.265   4.225   2.155
  278OCT    H21 7485   0.349   4.297   2.173
  278OCT    H22 7486   0.310   4.124   2.142
  278OCT     C3 7487   0.193   4.264   2.025
  278OCT    H31 7488   0.110   4.192   2.008
  278OCT    H32 7489   0.149   4.365   2.038
  278OCT     C4 7490   0.286   4.265   1.903
  278OCT    H41 7491   0.369   4.337   1.921
  278OCT    H42 7492   0.330   4.164   1.890
  278OCT     C5 7493   0.215   4.304   1.773
  278OCT    H51 7494   0.131   4.233   1.754
  278OCT    H52 7495   0.170   4.406   1.785
  278OCT     C6 7496   0.307   4.305   1.651
  278OCT    H61 7497   0.390   4.377   1.669
  278OCT    H62 7498   0.351   4.204   1.638
  278OCT     C7 7499   0.235   4.344   1.521
  278OCT    H71 7500   0.152   4.273   1.502
  278OCT    H72 7501   0.191   4.446   1.533
  278OCT     C8 7502   0.329   4.345   1.399
  278OCT    H81 7503   0.372   4.244   1.384
  278OCT    H82 7504   0.411   4.417   1.414
  278OCT     O1 7505   0.258   4.382   1.281
  278OCT    HO1 7506   0.322   4.380   1.210
  279OCT     C1 7507   5.042   3.346   1.982
  279OCT    H11 7508   4.942   3.373   2.022
  279OCT    H12 7509   5.048   3.378   1.875
  279OCT    H13 7510   5.052   3.235   1.985
  279OCT     C2 7511   5.153   3.412   2.063
  279OCT    H21 7512   5.139   3.523   2.060
  279OCT    H22 7513   5.143   3.380   2.170
  279OCT     C3 7514   5.295   3.379   2.015
  279OCT    H31 7515   5.309   3.269   2.019
  279OCT    H32 7516   5.304   3.412   1.909
  279OCT     C4 7517   5.404   3.447   2.098
  279OCT    H41 7518   5.390   3.557   2.094
  279OCT    H42 7519   5.395   3.414   2.204
  279OCT     C5 7520   5.546   3.414   2.050
  279OCT    H51 7521   5.562   3.304   2.053
  279OCT    H52 7522   5.557   3.446   1.943
  279OCT     C6 7523   5.656   3.482   2.133
  279OCT    H61 7524   5.642   3.592   2.129
  279OCT    H62 7525   5.646   3.449   2.239
  279OCT     C7 7526   5.798   3.449   2.084
  279OCT    H71 7527   5.813   3.339   2.088
  279OCT    H72 7528   5.808   3.481   1.978
  279OCT     C8 7529   5.907   3.517   2.168
  279OCT    H81 7530   5.900   3.484   2.273
  279OCT    H82 7531   5.895   3.627   2.164
  279OCT     O1 7532   6.037   3.483   2.119
  279OCT    HO1 7533   6.099   3.529   2.176
  280OCT     C1 7534   2.864   4.606  -0.011
  280OCT    H11 7535   2.869   4.527  -0.088
  280OCT    H12 7536   2.764   4.655  -0.016
  280OCT    H13 7537   2.941   4.683  -0.034
  280OCT     C2 7538   2.887   4.548   0.129
  280OCT    H21 7539   2.810   4.470   0.148
  280OCT    H22 7540   2.987   4.498   0.130
  280OCT     C3 7541   2.882   4.651   0.242
  280OCT    H31 7542   2.959   4.728   0.223
  280OCT    H32 7543   2.782   4.700   0.241
  280OCT     C4 7544   2.906   4.590   0.381
  280OCT    H41 7545   2.828   4.512   0.400
  280OCT    H42 7546   3.005   4.540   0.382
  280OCT     C5 7547   2.901   4.693   0.494
  280OCT    H51 7548   2.978   4.771   0.476
  280OCT    H52 7549   2.801   4.743   0.494
  280OCT     C6 7550   2.924   4.631   0.633
  280OCT    H61 7551   2.847   4.554   0.652
  280OCT    H62 7552   3.024   4.582   0.634
  280OCT     C7 7553   2.919   4.736   0.746
  280OCT    H71 7554   2.997   4.813   0.728
  280OCT    H72 7555   2.820   4.785   0.746
  280OCT     C8 7556   2.943   4.673   0.885
  280OCT    H81 7557   3.043   4.625   0.888
  280OCT    H82 7558   2.866   4.597   0.906
  280OCT     O1 7559   2.937   4.773   0.987
  280OCT    HO1 7560   2.953   4.727   1.069
  281OCT     C1 7561   3.653   5.069   4.825
  281OCT    H11 7562   3.641   4.993   4.746
  281OCT    H12 7563   3.590   5.158   4.798
  281OCT    H13 7564   3.759   5.102   4.827
  281OCT     C2 7565   3.612   5.013   4.961
  281OCT    H21 7566   3.506   4.979   4.955
  281OCT    H22 7567   3.675   4.924   4.983
  281OCT     C3 7568   3.626   5.113   5.077
  281OCT    H31 7569   3.731   5.146   5.083
  281OCT    H32 7570   3.562   5.202   5.054
  281OCT     C4 7571   3.584   5.054   5.212
  281OCT    H41 7572   3.478   5.021   5.206
  281OCT    H42 7573   3.647   4.966   5.234
  281OCT     C5 7574   3.597   5.154   5.328
  281OCT    H51 7575   3.703   5.188   5.335
  281OCT    H52 7576   3.534   5.244   5.307
  281OCT     C6 7577   3.555   5.095   5.463
  281OCT    H61 7578   3.450   5.062   5.458
  281OCT    H62 7579   3.619   5.006   5.486
  281OCT     C7 7580   3.569   5.196   5.579
  281OCT    H71 7581   3.675   5.229   5.586
  281OCT    H72 7582   3.506   5.284   5.558
  281OCT     C8 7583   3.527   5.136   5.715
  281OCT    H81 7584   3.590   5.048   5.739
  281OCT    H82 7585   3.421   5.104   5.711
  281OCT     O1 7586   3.541   5.232   5.819
  281OCT    HO1 7587   3.514   5.188   5.899
  282OCT     C1 7588   3.500   2.005   3.642
  282OCT    H11 7589   3.543   2.016   3.541
  282OCT    H12 7590   3.550   2.078   3.710
  282OCT    H13 7591   3.521   1.903   3.679
  282OCT     C2 7592   3.349   2.030   3.640
  282OCT    H21 7593   3.330   2.133   3.600
  282OCT    H22 7594   3.302   1.958   3.569
  282OCT     C3 7595   3.280   2.017   3.776
  282OCT    H31 7596   3.299   1.915   3.815
  282OCT    H32 7597   3.327   2.090   3.846
  282OCT     C4 7598   3.129   2.043   3.771
  282OCT    H41 7599   3.111   2.145   3.732
  282OCT    H42 7600   3.082   1.970   3.701
  282OCT     C5 7601   3.061   2.030   3.907
  282OCT    H51 7602   3.078   1.927   3.948
  282OCT    H52 7603   3.107   2.102   3.978
  282OCT     C6 7604   2.909   2.056   3.902
  282OCT    H61 7605   2.891   2.158   3.862
  282OCT    H62 7606   2.863   1.983   3.832
  282OCT     C7 7607   2.841   2.042   4.039
  282OCT    H71 7608   2.859   1.940   4.079
  282OCT    H72 7609   2.887   2.115   4.109
  282OCT     C8 7610   2.690   2.068   4.033
  282OCT    H81 7611   2.642   1.995   3.965
  282OCT    H82 7612   2.670   2.170   3.995
  282OCT     O1 7613   2.631   2.055   4.162
  282OCT    HO1 7614   2.537   2.072   4.150
  283OCT     C1 7615   4.608   4.274   6.181
  283OCT    H11 7616   4.682   4.229   6.250
  283OCT    H12 7617   4.639   4.379   6.159
  283OCT    H13 7618   4.509   4.277   6.231
  283OCT     C2 7619   4.600   4.193   6.051
  283OCT    H21 7620   4.702   4.190   6.005
  283OCT    H22 7621   4.572   4.088   6.076
  283OCT     C3 7622   4.500   4.248   5.948
  283OCT    H31 7623   4.400   4.251   5.995
  283OCT    H32 7624   4.529   4.353   5.923
  283OCT     C4 7625   4.494   4.165   5.820
  283OCT    H41 7626   4.595   4.163   5.773
  283OCT    H42 7627   4.465   4.061   5.845
  283OCT     C5 7628   4.395   4.220   5.717
  283OCT    H51 7629   4.293   4.223   5.763
  283OCT    H52 7630   4.423   4.325   5.691
  283OCT     C6 7631   4.389   4.137   5.588
  283OCT    H61 7632   4.490   4.135   5.541
  283OCT    H62 7633   4.360   4.033   5.613
  283OCT     C7 7634   4.288   4.193   5.485
  283OCT    H71 7635   4.187   4.195   5.531
  283OCT    H72 7636   4.317   4.297   5.459
  283OCT     C8 7637   4.283   4.109   5.356
  283OCT    H81 7638   4.253   4.005   5.380
  283OCT    H82 7639   4.383   4.107   5.308
  283OCT     O1 7640   4.189   4.164   5.264
  283OCT    HO1 7641   4.192   4.107   5.187
  284OCT     C1 7642   1.920   2.144   4.611
  284OCT    H11 7643   1.872   2.133   4.512
  284OCT    H12 7644   1.992   2.229   4.607
  284OCT    H13 7645   1.978   2.051   4.633
  284OCT     C2 7646   1.815   2.168   4.720
  284OCT    H21 7647   1.757   2.260   4.694
  284OCT    H22 7648   1.743   2.082   4.720
  284OCT     C3 7649   1.873   2.184   4.861
  284OCT    H31 7650   1.929   2.092   4.887
  284OCT    H32 7651   1.943   2.269   4.861
  284OCT     C4 7652   1.765   2.208   4.968
  284OCT    H41 7653   1.708   2.300   4.942
  284OCT    H42 7654   1.694   2.122   4.968
  284OCT     C5 7655   1.822   2.224   5.109
  284OCT    H51 7656   1.880   2.132   5.136
  284OCT    H52 7657   1.894   2.309   5.110
  284OCT     C6 7658   1.715   2.248   5.216
  284OCT    H61 7659   1.658   2.340   5.190
  284OCT    H62 7660   1.644   2.162   5.216
  284OCT     C7 7661   1.773   2.264   5.357
  284OCT    H71 7662   1.830   2.172   5.384
  284OCT    H72 7663   1.844   2.349   5.358
  284OCT     C8 7664   1.664   2.288   5.464
  284OCT    H81 7665   1.594   2.202   5.466
  284OCT    H82 7666   1.608   2.380   5.440
  284OCT     O1 7667   1.723   2.302   5.593
  284OCT    HO1 7668   1.650   2.316   5.653
  285OCT     C1 7669   3.997   2.619   1.612
  285OCT    H11 7670   3.995   2.721   1.656
  285OCT    H12 7671   3.955   2.548   1.686
  285OCT    H13 7672   4.103   2.590   1.593
  285OCT     C2 7673   3.917   2.615   1.482
  285OCT    H21 7674   3.812   2.647   1.504
  285OCT    H22 7675   3.960   2.689   1.411
  285OCT     C3 7676   3.914   2.478   1.414
  285OCT    H31 7677   4.018   2.447   1.392
  285OCT    H32 7678   3.870   2.404   1.485
  285OCT     C4 7679   3.833   2.476   1.284
  285OCT    H41 7680   3.728   2.507   1.306
  285OCT    H42 7681   3.876   2.550   1.213
  285OCT     C5 7682   3.829   2.339   1.216
  285OCT    H51 7683   3.934   2.307   1.194
  285OCT    H52 7684   3.786   2.264   1.286
  285OCT     C6 7685   3.748   2.338   1.086
  285OCT    H61 7686   3.644   2.369   1.108
  285OCT    H62 7687   3.792   2.411   1.015
  285OCT     C7 7688   3.745   2.199   1.018
  285OCT    H71 7689   3.850   2.168   0.995
  285OCT    H72 7690   3.701   2.126   1.088
  285OCT     C8 7691   3.664   2.199   0.888
  285OCT    H81 7692   3.707   2.271   0.815
  285OCT    H82 7693   3.559   2.228   0.908
  285OCT     O1 7694   3.664   2.069   0.828
  285OCT    HO1 7695   3.612   2.077   0.748
  286OCT     C1 7696   5.587   4.636   4.590
  286OCT    H11 7697   5.622   4.531   4.586
  286OCT    H12 7698   5.558   4.660   4.695
  286OCT    H13 7699   5.496   4.646   4.527
  286OCT     C2 7700   5.696   4.732   4.542
  286OCT    H21 7701   5.786   4.719   4.606
  286OCT    H22 7702   5.724   4.704   4.437
  286OCT     C3 7703   5.655   4.880   4.544
  286OCT    H31 7704   5.565   4.893   4.480
  286OCT    H32 7705   5.628   4.907   4.648
  286OCT     C4 7706   5.766   4.974   4.495
  286OCT    H41 7707   5.856   4.961   4.559
  286OCT    H42 7708   5.794   4.946   4.391
  286OCT     C5 7709   5.726   5.122   4.498
  286OCT    H51 7710   5.636   5.136   4.433
  286OCT    H52 7711   5.698   5.150   4.602
  286OCT     C6 7712   5.837   5.215   4.448
  286OCT    H61 7713   5.927   5.202   4.513
  286OCT    H62 7714   5.865   5.188   4.344
  286OCT     C7 7715   5.796   5.364   4.451
  286OCT    H71 7716   5.706   5.378   4.387
  286OCT    H72 7717   5.769   5.392   4.555
  286OCT     C8 7718   5.908   5.457   4.402
  286OCT    H81 7719   5.935   5.432   4.298
  286OCT    H82 7720   5.997   5.446   4.466
  286OCT     O1 7721   5.865   5.593   4.406
  286OCT    HO1 7722   5.940   5.645   4.374
  287OCT     C1 7723   3.780   4.755   2.535
  287OCT    H11 7724   3.722   4.714   2.621
  287OCT    H12 7725   3.751   4.700   2.443
  287OCT    H13 7726   3.888   4.737   2.554
  287OCT     C2 7727   3.753   4.905   2.520
  287OCT    H21 7728   3.643   4.920   2.504
  287OCT    H22 7729   3.781   4.956   2.614
  287OCT     C3 7730   3.829   4.970   2.403
  287OCT    H31 7731   3.938   4.956   2.420
  287OCT    H32 7732   3.800   4.919   2.309
  287OCT     C4 7733   3.800   5.121   2.390
  287OCT    H41 7734   3.691   5.135   2.374
  287OCT    H42 7735   3.828   5.172   2.484
  287OCT     C5 7736   3.875   5.186   2.274
  287OCT    H51 7737   3.985   5.172   2.289
  287OCT    H52 7738   3.848   5.135   2.178
  287OCT     C6 7739   3.846   5.336   2.260
  287OCT    H61 7740   3.738   5.351   2.244
  287OCT    H62 7741   3.875   5.388   2.354
  287OCT     C7 7742   3.923   5.402   2.143
  287OCT    H71 7743   4.032   5.388   2.159
  287OCT    H72 7744   3.894   5.351   2.049
  287OCT     C8 7745   3.893   5.552   2.131
  287OCT    H81 7746   3.923   5.605   2.223
  287OCT    H82 7747   3.785   5.568   2.113
  287OCT     O1 7748   3.966   5.609   2.022
  287OCT    HO1 7749   3.943   5.702   2.020
  288OCT     C1 7750   5.813   5.071   5.622
  288OCT    H11 7751   5.845   5.135   5.707
  288OCT    H12 7752   5.766   4.979   5.662
  288OCT    H13 7753   5.903   5.042   5.564
  288OCT     C2 7754   5.714   5.147   5.533
  288OCT    H21 7755   5.626   5.177   5.595
  288OCT    H22 7756   5.763   5.241   5.497
  288OCT     C3 7757   5.664   5.067   5.412
  288OCT    H31 7758   5.752   5.038   5.351
  288OCT    H32 7759   5.615   4.975   5.449
  288OCT     C4 7760   5.566   5.146   5.325
  288OCT    H41 7761   5.478   5.175   5.386
  288OCT    H42 7762   5.615   5.239   5.288
  288OCT     C5 7763   5.516   5.066   5.204
  288OCT    H51 7764   5.603   5.036   5.141
  288OCT    H52 7765   5.466   4.973   5.239
  288OCT     C6 7766   5.417   5.145   5.116
  288OCT    H61 7767   5.329   5.174   5.178
  288OCT    H62 7768   5.466   5.237   5.080
  288OCT     C7 7769   5.367   5.064   4.995
  288OCT    H71 7770   5.454   5.035   4.932
  288OCT    H72 7771   5.317   4.971   5.031
  288OCT     C8 7772   5.268   5.143   4.908
  288OCT    H81 7773   5.316   5.235   4.869
  288OCT    H82 7774   5.179   5.172   4.967
  288OCT     O1 7775   5.225   5.065   4.797
  288OCT    HO1 7776   5.164   5.121   4.748
  289OCT     C1 7777   4.312   5.353   0.987
  289OCT    H11 7778   4.373   5.389   1.072
  289OCT    H12 7779   4.211   5.399   0.993
  289OCT    H13 7780   4.300   5.243   0.996
  289OCT     C2 7781   4.379   5.388   0.854
  289OCT    H21 7782   4.392   5.499   0.848
  289OCT    H22 7783   4.481   5.343   0.851
  289OCT     C3 7784   4.301   5.342   0.730
  289OCT    H31 7785   4.289   5.231   0.735
  289OCT    H32 7786   4.200   5.388   0.732
  289OCT     C4 7787   4.371   5.379   0.598
  289OCT    H41 7788   4.383   5.489   0.593
  289OCT    H42 7789   4.472   5.333   0.595
  289OCT     C5 7790   4.293   5.332   0.474
  289OCT    H51 7791   4.280   5.221   0.478
  289OCT    H52 7792   4.191   5.378   0.475
  289OCT     C6 7793   4.362   5.369   0.342
  289OCT    H61 7794   4.374   5.479   0.337
  289OCT    H62 7795   4.463   5.323   0.340
  289OCT     C7 7796   4.284   5.322   0.218
  289OCT    H71 7797   4.272   5.212   0.222
  289OCT    H72 7798   4.183   5.368   0.219
  289OCT     C8 7799   4.354   5.360   0.086
  289OCT    H81 7800   4.454   5.313   0.082
  289OCT    H82 7801   4.365   5.469   0.079
  289OCT     O1 7802   4.278   5.314  -0.026
  289OCT    HO1 7803   4.327   5.341  -0.104
  290OCT     C1 7804   4.860   3.959   4.224
  290OCT    H11 7805   4.910   4.034   4.289
  290OCT    H12 7806   4.764   3.929   4.271
  290OCT    H13 7807   4.925   3.869   4.216
  290OCT     C2 7808   4.835   4.018   4.085
  290OCT    H21 7809   4.771   4.109   4.096
  290OCT    H22 7810   4.932   4.050   4.041
  290OCT     C3 7811   4.766   3.922   3.987
  290OCT    H31 7812   4.829   3.831   3.976
  290OCT    H32 7813   4.669   3.891   4.031
  290OCT     C4 7814   4.742   3.984   3.849
  290OCT    H41 7815   4.678   4.074   3.860
  290OCT    H42 7816   4.839   4.015   3.805
  290OCT     C5 7817   4.673   3.888   3.751
  290OCT    H51 7818   4.736   3.796   3.739
  290OCT    H52 7819   4.575   3.855   3.794
  290OCT     C6 7820   4.649   3.949   3.613
  290OCT    H61 7821   4.585   4.040   3.624
  290OCT    H62 7822   4.746   3.980   3.569
  290OCT     C7 7823   4.579   3.852   3.515
  290OCT    H71 7824   4.643   3.762   3.503
  290OCT    H72 7825   4.482   3.821   3.558
  290OCT     C8 7826   4.555   3.915   3.376
  290OCT    H81 7827   4.652   3.945   3.331
  290OCT    H82 7828   4.491   4.004   3.386
  290OCT     O1 7829   4.491   3.822   3.289
  290OCT    HO1 7830   4.480   3.868   3.206
  291OCT     C1 7831   2.109   1.123   2.964
  291OCT    H11 7832   2.201   1.062   2.956
  291OCT    H12 7833   2.024   1.056   2.989
  291OCT    H13 7834   2.088   1.169   2.865
  291OCT     C2 7835   2.124   1.231   3.071
  291OCT    H21 7836   2.148   1.182   3.168
  291OCT    H22 7837   2.212   1.296   3.044
  291OCT     C3 7838   2.001   1.320   3.089
  291OCT    H31 7839   1.978   1.369   2.993
  291OCT    H32 7840   1.915   1.256   3.117
  291OCT     C4 7841   2.020   1.428   3.197
  291OCT    H41 7842   2.042   1.378   3.294
  291OCT    H42 7843   2.106   1.492   3.170
  291OCT     C5 7844   1.896   1.517   3.216
  291OCT    H51 7845   1.872   1.567   3.119
  291OCT    H52 7846   1.809   1.453   3.243
  291OCT     C6 7847   1.915   1.624   3.324
  291OCT    H61 7848   1.937   1.575   3.421
  291OCT    H62 7849   2.001   1.689   3.297
  291OCT     C7 7850   1.790   1.713   3.342
  291OCT    H71 7851   1.767   1.763   3.245
  291OCT    H72 7852   1.704   1.650   3.369
  291OCT     C8 7853   1.810   1.821   3.450
  291OCT    H81 7854   1.895   1.887   3.423
  291OCT    H82 7855   1.831   1.773   3.548
  291OCT     O1 7856   1.693   1.901   3.463
  291OCT    HO1 7857   1.712   1.965   3.532
  292OCT     C1 7858   5.879   3.619   3.577
  292OCT    H11 7859   5.982   3.660   3.569
  292OCT    H12 7860   5.871   3.531   3.509
  292OCT    H13 7861   5.807   3.696   3.541
  292OCT     C2 7862   5.846   3.579   3.720
  292OCT    H21 7863   5.921   3.504   3.754
  292OCT    H22 7864   5.858   3.669   3.786
  292OCT     C3 7865   5.706   3.522   3.740
  292OCT    H31 7866   5.632   3.597   3.707
  292OCT    H32 7867   5.695   3.432   3.675
  292OCT     C4 7868   5.676   3.483   3.885
  292OCT    H41 7869   5.750   3.407   3.919
  292OCT    H42 7870   5.687   3.572   3.950
  292OCT     C5 7871   5.535   3.425   3.905
  292OCT    H51 7872   5.460   3.500   3.872
  292OCT    H52 7873   5.523   3.335   3.840
  292OCT     C6 7874   5.505   3.386   4.050
  292OCT    H61 7875   5.579   3.310   4.083
  292OCT    H62 7876   5.516   3.475   4.115
  292OCT     C7 7877   5.364   3.328   4.069
  292OCT    H71 7878   5.289   3.404   4.036
  292OCT    H72 7879   5.353   3.238   4.005
  292OCT     C8 7880   5.335   3.289   4.215
  292OCT    H81 7881   5.344   3.378   4.280
  292OCT    H82 7882   5.407   3.212   4.249
  292OCT     O1 7883   5.203   3.236   4.228
  292OCT    HO1 7884   5.192   3.215   4.321
  293OCT     C1 7885   5.752   2.303   1.329
  293OCT    H11 7886   5.671   2.228   1.335
  293OCT    H12 7887   5.746   2.353   1.230
  293OCT    H13 7888   5.850   2.251   1.335
  293OCT     C2 7889   5.738   2.406   1.441
  293OCT    H21 7890   5.638   2.455   1.433
  293OCT    H22 7891   5.742   2.353   1.539
  293OCT     C3 7892   5.846   2.515   1.440
  293OCT    H31 7893   5.945   2.466   1.449
  293OCT    H32 7894   5.842   2.568   1.343
  293OCT     C4 7895   5.830   2.617   1.554
  293OCT    H41 7896   5.730   2.665   1.546
  293OCT    H42 7897   5.834   2.563   1.652
  293OCT     C5 7898   5.938   2.726   1.554
  293OCT    H51 7899   6.038   2.678   1.562
  293OCT    H52 7900   5.934   2.780   1.456
  293OCT     C6 7901   5.922   2.828   1.667
  293OCT    H61 7902   5.822   2.876   1.659
  293OCT    H62 7903   5.926   2.774   1.765
  293OCT     C7 7904   6.030   2.937   1.666
  293OCT    H71 7905   6.130   2.889   1.675
  293OCT    H72 7906   6.026   2.991   1.569
  293OCT     C8 7907   6.013   3.038   1.781
  293OCT    H81 7908   6.019   2.987   1.878
  293OCT    H82 7909   5.915   3.089   1.772
  293OCT     O1 7910   6.116   3.137   1.775
  293OCT    HO1 7911   6.099   3.196   1.849
  294OCT     C1 7912   3.114   0.883   4.647
  294OCT    H11 7913   3.203   0.950   4.643
  294OCT    H12 7914   3.025   0.945   4.670
  294OCT    H13 7915   3.128   0.811   4.731
  294OCT     C2 7916   3.096   0.809   4.515
  294OCT    H21 7917   3.086   0.884   4.433
  294OCT    H22 7918   3.189   0.750   4.494
  294OCT     C3 7919   2.975   0.715   4.512
  294OCT    H31 7920   2.987   0.640   4.593
  294OCT    H32 7921   2.884   0.775   4.532
  294OCT     C4 7922   2.960   0.642   4.377
  294OCT    H41 7923   2.948   0.717   4.296
  294OCT    H42 7924   3.051   0.583   4.357
  294OCT     C5 7925   2.838   0.548   4.374
  294OCT    H51 7926   2.849   0.472   4.455
  294OCT    H52 7927   2.746   0.607   4.394
  294OCT     C6 7928   2.823   0.475   4.240
  294OCT    H61 7929   2.811   0.550   4.159
  294OCT    H62 7930   2.914   0.415   4.220
  294OCT     C7 7931   2.701   0.380   4.237
  294OCT    H71 7932   2.712   0.305   4.318
  294OCT    H72 7933   2.609   0.439   4.257
  294OCT     C8 7934   2.686   0.308   4.102
  294OCT    H81 7935   2.776   0.247   4.082
  294OCT    H82 7936   2.673   0.381   4.021
  294OCT     O1 7937   2.572   0.221   4.104
  294OCT    HO1 7938   2.569   0.180   4.018
  295OCT     C1 7939   5.120   5.237   3.901
  295OCT    H11 7940   5.119   5.311   3.984
  295OCT    H12 7941   5.017   5.199   3.885
  295OCT    H13 7942   5.183   5.150   3.932
  295OCT     C2 7943   5.175   5.300   3.773
  295OCT    H21 7944   5.111   5.387   3.746
  295OCT    H22 7945   5.278   5.338   3.793
  295OCT     C3 7946   5.181   5.204   3.653
  295OCT    H31 7947   5.245   5.118   3.680
  295OCT    H32 7948   5.078   5.167   3.633
  295OCT     C4 7949   5.236   5.270   3.526
  295OCT    H41 7950   5.172   5.357   3.499
  295OCT    H42 7951   5.339   5.308   3.546
  295OCT     C5 7952   5.242   5.175   3.406
  295OCT    H51 7953   5.306   5.087   3.432
  295OCT    H52 7954   5.139   5.136   3.385
  295OCT     C6 7955   5.297   5.241   3.279
  295OCT    H61 7956   5.233   5.328   3.252
  295OCT    H62 7957   5.400   5.279   3.299
  295OCT     C7 7958   5.303   5.145   3.159
  295OCT    H71 7959   5.367   5.058   3.185
  295OCT    H72 7960   5.201   5.107   3.138
  295OCT     C8 7961   5.358   5.212   3.032
  295OCT    H81 7962   5.461   5.248   3.050
  295OCT    H82 7963   5.294   5.297   3.003
  295OCT     O1 7964   5.362   5.119   2.924
  295OCT    HO1 7965   5.397   5.168   2.849
  296OCT     C1 7966  -0.255  -0.224   4.704
  296OCT    H11 7967  -0.276  -0.306   4.776
  296OCT    H12 7968  -0.324  -0.140   4.725
  296OCT    H13 7969  -0.275  -0.261   4.601
  296OCT     C2 7970  -0.110  -0.178   4.718
  296OCT    H21 7971  -0.092  -0.144   4.823
  296OCT    H22 7972  -0.043  -0.265   4.699
  296OCT     C3 7973  -0.071  -0.064   4.622
  296OCT    H31 7974  -0.087  -0.098   4.518
  296OCT    H32 7975  -0.137   0.023   4.641
  296OCT     C4 7976   0.075  -0.020   4.638
  296OCT    H41 7977   0.092   0.014   4.742
  296OCT    H42 7978   0.142  -0.107   4.619
  296OCT     C5 7979   0.115   0.094   4.542
  296OCT    H51 7980   0.098   0.061   4.437
  296OCT    H52 7981   0.048   0.182   4.561
  296OCT     C6 7982   0.261   0.138   4.558
  296OCT    H61 7983   0.277   0.172   4.662
  296OCT    H62 7984   0.327   0.051   4.539
  296OCT     C7 7985   0.299   0.252   4.462
  296OCT    H71 7986   0.283   0.218   4.357
  296OCT    H72 7987   0.233   0.339   4.481
  296OCT     C8 7988   0.446   0.296   4.478
  296OCT    H81 7989   0.513   0.211   4.458
  296OCT    H82 7990   0.464   0.332   4.581
  296OCT     O1 7991   0.477   0.402   4.388
  296OCT    HO1 7992   0.569   0.423   4.403
  297OCT     C1 7993   4.382   4.043   3.005
  297OCT    H11 7994   4.466   4.022   3.075
  297OCT    H12 7995   4.319   4.124   3.049
  297OCT    H13 7996   4.320   3.952   2.996
  297OCT     C2 7997   4.436   4.086   2.869
  297OCT    H21 7998   4.500   4.176   2.882
  297OCT    H22 7999   4.501   4.004   2.829
  297OCT     C3 8000   4.327   4.117   2.765
  297OCT    H31 8001   4.264   4.027   2.752
  297OCT    H32 8002   4.263   4.199   2.805
  297OCT     C4 8003   4.385   4.160   2.629
  297OCT    H41 8004   4.448   4.250   2.643
  297OCT    H42 8005   4.449   4.078   2.590
  297OCT     C5 8006   4.276   4.191   2.526
  297OCT    H51 8007   4.212   4.101   2.511
  297OCT    H52 8008   4.211   4.273   2.564
  297OCT     C6 8009   4.333   4.234   2.390
  297OCT    H61 8010   4.396   4.324   2.403
  297OCT    H62 8011   4.397   4.152   2.350
  297OCT     C7 8012   4.223   4.265   2.286
  297OCT    H71 8013   4.160   4.175   2.271
  297OCT    H72 8014   4.159   4.347   2.325
  297OCT     C8 8015   4.281   4.308   2.150
  297OCT    H81 8016   4.344   4.227   2.108
  297OCT    H82 8017   4.343   4.399   2.162
  297OCT     O1 8018   4.177   4.336   2.057
  297OCT    HO1 8019   4.220   4.362   1.976
  298OCT     C1 8020   1.616   4.836   5.359
  298OCT    H11 8021   1.662   4.767   5.286
  298OCT    H12 8022   1.544   4.903   5.306
  298OCT    H13 8023   1.696   4.900   5.403
  298OCT     C2 8024   1.544   4.758   5.469
  298OCT    H21 8025   1.466   4.694   5.422
  298OCT    H22 8026   1.618   4.691   5.519
  298OCT     C3 8027   1.477   4.846   5.576
  298OCT    H31 8028   1.555   4.910   5.623
  298OCT    H32 8029   1.404   4.913   5.526
  298OCT     C4 8030   1.406   4.765   5.685
  298OCT    H41 8031   1.328   4.702   5.638
  298OCT    H42 8032   1.480   4.699   5.735
  298OCT     C5 8033   1.340   4.853   5.792
  298OCT    H51 8034   1.417   4.918   5.839
  298OCT    H52 8035   1.265   4.921   5.742
  298OCT     C6 8036   1.268   4.773   5.901
  298OCT    H61 8037   1.190   4.709   5.854
  298OCT    H62 8038   1.342   4.706   5.951
  298OCT     C7 8039   1.202   4.862   6.007
  298OCT    H71 8040   1.279   4.925   6.055
  298OCT    H72 8041   1.127   4.928   5.958
  298OCT     C8 8042   1.130   4.780   6.117
  298OCT    H81 8043   1.203   4.714   6.168
  298OCT    H82 8044   1.051   4.717   6.071
  298OCT     O1 8045   1.070   4.866   6.213
  298OCT    HO1 8046   1.028   4.808   6.277
  299OCT     C1 8047   2.468   1.778   5.690
  299OCT    H11 8048   2.561   1.724   5.718
  299OCT    H12 8049   2.410   1.715   5.619
  299OCT    H13 8050   2.496   1.872   5.637
  299OCT     C2 8051   2.384   1.809   5.814
  299OCT    H21 8052   2.360   1.713   5.865
  299OCT    H22 8053   2.446   1.870   5.884
  299OCT     C3 8054   2.254   1.885   5.785
  299OCT    H31 8055   2.279   1.980   5.734
  299OCT    H32 8056   2.193   1.823   5.715
  299OCT     C4 8057   2.172   1.915   5.911
  299OCT    H41 8058   2.147   1.819   5.962
  299OCT    H42 8059   2.233   1.976   5.981
  299OCT     C5 8060   2.042   1.990   5.882
  299OCT    H51 8061   2.065   2.086   5.831
  299OCT    H52 8062   1.979   1.929   5.812
  299OCT     C6 8063   1.960   2.020   6.008
  299OCT    H61 8064   1.935   1.924   6.059
  299OCT    H62 8065   2.021   2.081   6.078
  299OCT     C7 8066   1.829   2.095   5.978
  299OCT    H71 8067   1.853   2.191   5.928
  299OCT    H72 8068   1.767   2.034   5.909
  299OCT     C8 8069   1.747   2.125   6.106
  299OCT    H81 8070   1.807   2.187   6.175
  299OCT    H82 8071   1.721   2.030   6.156
  299OCT     O1 8072   1.627   2.195   6.074
  299OCT    HO1 8073   1.583   2.210   6.157
  300OCT     C1 8074   4.860   4.042   4.574
  300OCT    H11 8075   4.826   4.126   4.638
  300OCT    H12 8076   4.942   4.078   4.509
  300OCT    H13 8077   4.776   4.009   4.510
  300OCT     C2 8078   4.909   3.926   4.661
  300OCT    H21 8079   4.992   3.963   4.727
  300OCT    H22 8080   4.825   3.894   4.728
  300OCT     C3 8081   4.959   3.804   4.582
  300OCT    H31 8082   4.876   3.768   4.518
  300OCT    H32 8083   5.042   3.837   4.517
  300OCT     C4 8084   5.007   3.690   4.672
  300OCT    H41 8085   5.089   3.726   4.737
  300OCT    H42 8086   4.923   3.657   4.738
  300OCT     C5 8087   5.057   3.568   4.593
  300OCT    H51 8088   4.974   3.531   4.527
  300OCT    H52 8089   5.141   3.599   4.526
  300OCT     C6 8090   5.105   3.453   4.683
  300OCT    H61 8091   5.187   3.490   4.747
  300OCT    H62 8092   5.021   3.421   4.748
  300OCT     C7 8093   5.155   3.331   4.603
  300OCT    H71 8094   5.072   3.294   4.538
  300OCT    H72 8095   5.239   3.363   4.537
  300OCT     C8 8096   5.203   3.217   4.693
  300OCT    H81 8097   5.120   3.182   4.758
  300OCT    H82 8098   5.286   3.251   4.757
  300OCT     O1 8099   5.248   3.106   4.615
  300OCT    HO1 8100   5.276   3.039   4.678
  301SOL     OW 8101   2.405   5.454  -0.008
  301SOL    HW1 8102   2.452   5.488   0.068
  301SOL    HW2 8103   2.328   5.510  -0.016
  302SOL     OW 8104   2.022   1.938   5.065
  302SOL    HW1 8105   1.935   1.913   5.034
  302SOL    HW2 8106   2.005   2.001   5.134
  303SOL     OW 8107   1.758   3.323   3.353
  303SOL    HW1 8108   1.814   3.334   3.430
  303SOL    HW2 8109   1.683   3.379   3.371
  304SOL     OW 8110   5.734   0.230   2.036
  304SOL    HW1 8111   5.696   0.231   2.124
  304SOL    HW2 8112   5.828   0.230   2.050
  305SOL     OW 8113   5.357   4.404   5.106
  305SOL    HW1 8114   5.390   4.321   5.142
  305SOL    HW2 8115   5.321   4.382   5.022
  306SOL     OW 8116   0.181   4.160   0.381
  306SOL    HW1 8117   0.261   4.123   0.421
  306SOL    HW2 8118   0.200   4.253   0.373
  307SOL     OW 8119   5.561   4.959   4.039
  307SOL    HW1 8120   5.649   4.933   4.011
  307SOL    HW2 8121   5.577   5.016   4.114
  308SOL     OW 8122   2.917   1.019   1.910
  308SOL    HW1 8123   2.890   0.967   1.985
  308SOL    HW2 8124   2.990   1.071   1.942
  309SOL     OW 8125   4.699   1.068   4.310
  309SOL    HW1 8126   4.692   1.005   4.383
  309SOL    HW2 8127   4.665   1.149   4.346
  310SOL     OW 8128   2.763   3.556   3.614
  310SOL    HW1 8129   2.698   3.506   3.565
  310SOL    HW2 8130   2.765   3.514   3.700
  311SOL     OW 8131   4.717   1.238   2.291
  311SOL    HW1 8132   4.795   1.185   2.310
  311SOL    HW2 8133   4.747   1.302   2.228
  312SOL     OW 8134   5.470   0.840   1.479
  312SOL    HW1 8135   5.542   0.896   1.449
  312SOL    HW2 8136   5.506   0.752   1.478
  313SOL     OW 8137   4.299   0.451   4.005
  313SOL    HW1 8138   4.332   0.537   3.978
  313SOL    HW2 8139   4.244   0.423   3.933
  314SOL     OW 8140   0.966   0.106   0.820
  314SOL    HW1 8141   0.967   0.182   0.762
  314SOL    HW2 8142   1.016   0.039   0.774
  315SOL     OW 8143   2.261   0.689   4.029
  315SOL    HW1 8144   2.231   0.717   4.115
  315SOL    HW2 8145   2.322   0.756   4.001
  316SOL     OW 8146   4.680   5.282   0.456
  316SOL    HW1 8147   4.591   5.292   0.489
  316SOL    HW2 8148   4.674   5.310   0.365
  317SOL     OW 8149   2.602   3.888   1.264
  317SOL    HW1 8150   2.531   3.852   1.316
  317SOL    HW2 8151   2.622   3.972   1.305
  318SOL     OW 8152   5.888   4.247   0.661
  318SOL    HW1 8153   5.814   4.262   0.719
  318SOL    HW2 8154   5.960   4.225   0.718
  319SOL     OW 8155   1.350   0.467   2.702
  319SOL    HW1 8156   1.316   0.557   2.696
  319SOL    HW2 8157   1.329   0.428   2.618
  320SOL     OW 8158   0.295   5.747   3.411
  320SOL    HW1 8159   0.275   5.664   3.453
  320SOL    HW2 8160   0.328   5.802   3.482
  321SOL     OW 8161   1.280   3.600   3.775
  321SOL    HW1 8162   1.287   3.656   3.698
  321SOL    HW2 8163   1.346   3.532   3.761
  322SOL     OW 8164   1.690   0.895   5.316
  322SOL    HW1 8165   1.627   0.961   5.344
  322SOL    HW2 8166   1.728   0.864   5.398
  323SOL     OW 8167   5.345   2.048   3.402
  323SOL    HW1 8168   5.339   2.038   3.497
  323SOL    HW2 8169   5.414   2.113   3.389
  324SOL     OW 8170   3.447   0.769   5.572
  324SOL    HW1 8171   3.436   0.800   5.482
  324SOL    HW2 8172   3.458   0.675   5.564
  325SOL     OW 8173   5.901   0.156   3.416
  325SOL    HW1 8174   5.865   0.191   3.497
  325SOL    HW2 8175   5.862   0.070   3.408
  326SOL     OW 8176   2.299   3.406   2.524
  326SOL    HW1 8177   2.383   3.450   2.535
  326SOL    HW2 8178   2.319   3.313   2.532
  327SOL     OW 8179   2.186   2.569   2.141
  327SOL    HW1 8180   2.171   2.475   2.131
  327SOL    HW2 8181   2.276   2.582   2.115
  328SOL     OW 8182   2.395   0.951   3.065
  328SOL    HW1 8183   2.434   1.026   3.111
  328SOL    HW2 8184   2.356   0.899   3.135
  329SOL     OW 8185   5.251   5.869   4.116
  329SOL    HW1 8186   5.250   5.812   4.039
  329SOL    HW2 8187   5.268   5.956   4.081
  330SOL     OW 8188   4.102   4.302   2.928
  330SOL    HW1 8189   4.050   4.269   3.001
  330SOL    HW2 8190   4.124   4.225   2.877
  331SOL     OW 8191   1.637   0.236   3.696
  331SOL    HW1 8192   1.606   0.317   3.737
  331SOL    HW2 8193   1.652   0.259   3.605
  332SOL     OW 8194   2.782   4.756   4.410
  332SOL    HW1 8195   2.786   4.734   4.503
  332SOL    HW2 8196   2.694   4.791   4.398
  333SOL     OW 8197   4.046   5.929   1.964
  333SOL    HW1 8198   4.006   6.012   1.986
  333SOL    HW2 8199   4.088   5.900   2.044
  334SOL     OW 8200   4.409   5.511   2.015
  334SOL    HW1 8201   4.392   5.418   2.033
  334SOL    HW2 8202   4.326   5.544   1.981
  335SOL     OW 8203   1.333   0.532   3.595
  335SOL    HW1 8204   1.317   0.600   3.661
  335SOL    HW2 8205   1.246   0.500   3.572
  336SOL     OW 8206   2.940   4.300   1.103
  336SOL    HW1 8207   2.872   4.265   1.160
  336SOL    HW2 8208   3.019   4.253   1.128
  337SOL     OW 8209   2.586   2.216   0.073
  337SOL    HW1 8210   2.554   2.239   0.161
  337SOL    HW2 8211   2.636   2.136   0.086
  338SOL     OW 8212   3.411   3.423   0.353
  338SOL    HW1 8213   3.481   3.431   0.288
  338SOL    HW2 8214   3.395   3.329   0.359
  339SOL     OW 8215   4.484   4.983   3.072
  339SOL    HW1 8216   4.562   4.933   3.098
  339SOL    HW2 8217   4.512   5.033   2.996
  340SOL     OW 8218   1.835   3.354   0.576
  340SOL    HW1 8219   1.844   3.259   0.574
  340SOL    HW2 8220   1.811   3.374   0.666
  341SOL     OW 8221   5.140   2.860   2.036
  341SOL    HW1 8222   5.193   2.780   2.040
  341SOL    HW2 8223   5.166   2.909   2.113
  342SOL     OW 8224   3.789   3.664   2.900
  342SOL    HW1 8225   3.715   3.605   2.907
  342SOL    HW2 8226   3.751   3.745   2.866
  343SOL     OW 8227   5.196   4.606   3.942
  343SOL    HW1 8228   5.234   4.519   3.955
  343SOL    HW2 8229   5.182   4.639   4.030
  344SOL     OW 8230   2.479   5.752   1.053
  344SOL    HW1 8231   2.563   5.707   1.068
  344SOL    HW2 8232   2.504   5.841   1.029
  345SOL     OW 8233   4.113   3.792   3.283
  345SOL    HW1 8234   4.132   3.837   3.201
  345SOL    HW2 8235   4.195   3.794   3.331
  346SOL     OW 8236   1.994   2.110   2.584
  346SOL    HW1 8237   2.046   2.030   2.587
  346SOL    HW2 8238   2.039   2.166   2.521
  347SOL     OW 8239   4.878   1.987   2.374
  347SOL    HW1 8240   4.905   1.919   2.311
  347SOL    HW2 8241   4.786   2.003   2.353
  348SOL     OW 8242   5.484   4.007   2.915
  348SOL    HW1 8243   5.466   3.914   2.900
  348SOL    HW2 8244   5.450   4.050   2.837
  349SOL     OW 8245   4.473   1.737   4.739
  349SOL    HW1 8246   4.457   1.736   4.644
  349SOL    HW2 8247   4.514   1.821   4.755
  350SOL     OW 8248   0.855   0.150   5.880
  350SOL    HW1 8249   0.887   0.084   5.942
  350SOL    HW2 8250   0.918   0.148   5.809
  351SOL     OW 8251   3.517   2.582   4.604
  351SOL    HW1 8252   3.448   2.647   4.595
  351SOL    HW2 8253   3.592   2.621   4.559
  352SOL     OW 8254   2.574   2.218   4.479
  352SOL    HW1 8255   2.599   2.276   4.406
  352SOL    HW2 8256   2.618   2.136   4.460
  353SOL     OW 8257   5.737   2.981   4.070
  353SOL    HW1 8258   5.812   2.930   4.037
  353SOL    HW2 8259   5.675   2.916   4.101
  354SOL     OW 8260   2.710   5.270   1.711
  354SOL    HW1 8261   2.660   5.219   1.648
  354SOL    HW2 8262   2.667   5.355   1.714
  355SOL     OW 8263   5.275   4.950   5.830
  355SOL    HW1 8264   5.344   4.886   5.846
  355SOL    HW2 8265   5.308   5.031   5.868
  356SOL     OW 8266   3.132   1.187   0.538
  356SOL    HW1 8267   3.196   1.258   0.550
  356SOL    HW2 8268   3.176   1.125   0.481
  357SOL     OW 8269   2.289   1.344   5.861
  357SOL    HW1 8270   2.333   1.289   5.926
  357SOL    HW2 8271   2.205   1.364   5.900
  358SOL     OW 8272   5.546   1.854   4.565
  358SOL    HW1 8273   5.615   1.864   4.499
  358SOL    HW2 8274   5.552   1.934   4.617
  359SOL     OW 8275   3.308   4.967   4.648
  359SOL    HW1 8276   3.234   4.994   4.703
  359SOL    HW2 8277   3.383   5.008   4.689
  360SOL     OW 8278   0.416   1.837   3.832
  360SOL    HW1 8279   0.362   1.854   3.755
  360SOL    HW2 8280   0.354   1.830   3.904
  361SOL     OW 8281   4.125   1.452   4.280
  361SOL    HW1 8282   4.155   1.513   4.347
  361SOL    HW2 8283   4.188   1.462   4.209
  362SOL     OW 8284   4.683   2.339   2.130
  362SOL    HW1 8285   4.693   2.429   2.099
  362SOL    HW2 8286   4.746   2.289   2.080
  363SOL     OW 8287   2.519   1.297   2.671
  363SOL    HW1 8288   2.542   1.223   2.727
  363SOL    HW2 8289   2.542   1.374   2.722
  364SOL     OW 8290   4.122   0.061   4.207
  364SOL    HW1 8291   4.087   0.023   4.288
  364SOL    HW2 8292   4.082   0.010   4.138
  365SOL     OW 8293   0.499   1.315   2.646
  365SOL    HW1 8294   0.423   1.326   2.589
  365SOL    HW2 8295   0.550   1.246   2.604
  366SOL     OW 8296   1.565   0.162   0.095
  366SOL    HW1 8297   1.519   0.200   0.169
  366SOL    HW2 8298   1.496   0.137   0.034
  367SOL     OW 8299   2.291   2.250   0.848
  367SOL    HW1 8300   2.286   2.281   0.758
  367SOL    HW2 8301   2.384   2.236   0.864
  368SOL     OW 8302   2.613   4.143   2.764
  368SOL    HW1 8303   2.536   4.191   2.794
  368SOL    HW2 8304   2.665   4.207   2.717
  369SOL     OW 8305   5.192   0.318   1.469
  369SOL    HW1 8306   5.156   0.373   1.399
  369SOL    HW2 8307   5.261   0.372   1.507
  370SOL     OW 8308   3.104   1.245   2.645
  370SOL    HW1 8309   3.041   1.184   2.607
  370SOL    HW2 8310   3.187   1.220   2.605
  371SOL     OW 8311   3.870   3.366   5.498
  371SOL    HW1 8312   3.800   3.410   5.449
  371SOL    HW2 8313   3.827   3.336   5.577
  372SOL     OW 8314   3.633   5.821   4.817
  372SOL    HW1 8315   3.703   5.811   4.881
  372SOL    HW2 8316   3.667   5.781   4.738
  373SOL     OW 8317   3.635   4.349   3.944
  373SOL    HW1 8318   3.656   4.351   4.037
  373SOL    HW2 8319   3.595   4.433   3.926
  374SOL     OW 8320   1.691   3.335   3.783
  374SOL    HW1 8321   1.641   3.288   3.717
  374SOL    HW2 8322   1.663   3.426   3.775
  375SOL     OW 8323   1.139   4.461   1.384
  375SOL    HW1 8324   1.071   4.429   1.325
  375SOL    HW2 8325   1.149   4.553   1.362
  376SOL     OW 8326   3.657   4.241   2.008
  376SOL    HW1 8327   3.713   4.224   2.084
  376SOL    HW2 8328   3.623   4.329   2.023
  377SOL     OW 8329   0.822   3.463   2.480
  377SOL    HW1 8330   0.900   3.457   2.535
  377SOL    HW2 8331   0.756   3.412   2.527
  378SOL     OW 8332   1.289   3.061   5.012
  378SOL    HW1 8333   1.332   3.026   5.091
  378SOL    HW2 8334   1.345   3.034   4.940
  379SOL     OW 8335   2.242   2.884   5.716
  379SOL    HW1 8336   2.154   2.892   5.753
  379SOL    HW2 8337   2.246   2.953   5.650
  380SOL     OW 8338   4.958   4.632   0.157
  380SOL    HW1 8339   5.030   4.695   0.162
  380SOL    HW2 8340   4.976   4.582   0.078
  381SOL     OW 8341   2.272   0.160   3.584
  381SOL    HW1 8342   2.307   0.201   3.505
  381SOL    HW2 8343   2.231   0.231   3.632
  382SOL     OW 8344   0.432   0.931   2.667
  382SOL    HW1 8345   0.415   1.015   2.711
  382SOL    HW2 8346   0.402   0.866   2.729
  383SOL     OW 8347   4.299   0.255   4.735
  383SOL    HW1 8348   4.284   0.185   4.672
  383SOL    HW2 8349   4.337   0.212   4.811
  384SOL     OW 8350   2.800   3.504   2.868
  384SOL    HW1 8351   2.812   3.586   2.820
  384SOL    HW2 8352   2.864   3.509   2.939
  385SOL     OW 8353   1.367   4.173   5.839
  385SOL    HW1 8354   1.359   4.238   5.909
  385SOL    HW2 8355   1.280   4.133   5.834
  386SOL     OW 8356   1.170   3.928   2.930
  386SOL    HW1 8357   1.169   3.984   2.852
  386SOL    HW2 8358   1.254   3.884   2.926
  387SOL     OW 8359   5.380   4.746   1.587
  387SOL    HW1 8360   5.436   4.785   1.520
  387SOL    HW2 8361   5.339   4.672   1.543
  388SOL     OW 8362   0.678   1.039   5.245
  388SOL    HW1 8363   0.750   0.979   5.228
  388SOL    HW2 8364   0.664   1.084   5.162
  389SOL     OW 8365   4.778   0.798   4.041
  389SOL    HW1 8366   4.715   0.727   4.029
  389SOL    HW2 8367   4.726   0.877   4.032
  390SOL     OW 8368   1.507   0.435   2.356
  390SOL    HW1 8369   1.563   0.458   2.282
  390SOL    HW2 8370   1.459   0.358   2.327
  391SOL     OW 8371   2.970   5.059   0.727
  391SOL    HW1 8372   3.054   5.099   0.749
  391SOL    HW2 8373   2.972   5.049   0.632
  392SOL     OW 8374   2.613   2.558   4.241
  392SOL    HW1 8375   2.562   2.587   4.166
  392SOL    HW2 8376   2.614   2.632   4.300
  393SOL     OW 8377   4.133   0.807   4.416
  393SOL    HW1 8378   4.047   0.821   4.375
  393SOL    HW2 8379   4.174   0.739   4.363
  394SOL     OW 8380   3.870   1.519   1.340
  394SOL    HW1 8381   3.953   1.512   1.388
  394SOL    HW2 8382   3.861   1.612   1.323
  395SOL     OW 8383   2.834   3.303   3.118
  395SOL    HW1 8384   2.771   3.249   3.071
  395SOL    HW2 8385   2.916   3.256   3.110
  396SOL     OW 8386   1.256   4.628   2.285
  396SOL    HW1 8387   1.317   4.555   2.297
  396SOL    HW2 8388   1.307   4.693   2.237
  397SOL     OW 8389   3.720   2.913   2.771
  397SOL    HW1 8390   3.765   2.890   2.852
  397SOL    HW2 8391   3.649   2.970   2.798
  398SOL     OW 8392   0.730   2.328   4.816
  398SOL    HW1 8393   0.813   2.290   4.843
  398SOL    HW2 8394   0.665   2.261   4.836
  399SOL     OW 8395   4.835   1.785   5.245
  399SOL    HW1 8396   4.924   1.801   5.277
  399SOL    HW2 8397   4.787   1.864   5.268
  400SOL     OW 8398   0.114   0.987   1.242
  400SOL    HW1 8399   0.128   0.930   1.318
  400SOL    HW2 8400   0.170   1.063   1.258
   6.00000   6.00000   6.00000
