Methylethylsulfide box
 2197
    1MES     CS    1   0.826   5.995   2.184 -0.1119 -0.1126  0.5146
    2MES     CS    2   2.982   4.452   2.345 -0.1432 -0.5732  0.0503
    3MES     CS    3   5.082   6.336   0.579  0.2158 -0.0596  0.3738
    4MES     CS    4   4.911   6.480   2.216 -0.1812 -0.3539 -0.0310
    5MES     CS    5   0.726   1.725   0.459  0.1174 -0.0232  0.0193
    6MES     CS    6   1.844   1.542   4.446 -0.0221  0.1407 -0.0976
    7MES     CS    7   3.668   3.375   5.692 -0.0194  0.0470 -0.0217
    8MES     CS    8   0.959   0.662   6.225 -0.0427  0.1342  0.1797
    9MES     CS    9   3.350   3.773   5.392  0.1574  0.0421  0.1141
   10MES     CS   10   5.290   4.910   2.382  0.0379 -0.0546 -0.0508
   11MES     CS   11   4.014   2.008   6.174  0.0810  0.2759 -0.0713
   12MES     CS   12   1.153   3.828   5.756  0.1878 -0.4185 -0.1880
   13MES     CS   13   3.104   3.450   2.200 -0.1545 -0.0851 -0.1201
   14MES     CS   14   3.398   6.026   4.533 -0.0925  0.1948  0.0202
   15MES     CS   15   6.507   3.309   3.037 -0.0717 -0.0531 -0.2808
   16MES     CS   16   2.963   1.058   6.607  0.2043  0.0139  0.0545
   17MES     CS   17   1.128   1.555   3.558  0.0563 -0.0182  0.2146
   18MES     CS   18   3.791   2.934   0.767  0.2216  0.0991 -0.2155
   19MES     CS   19   5.124   3.782   5.717  0.0843  0.0442 -0.1154
   20MES     CS   20   3.781   6.599   6.366 -0.1125 -0.1387  0.1983
   21MES     CS   21   0.412   4.976   4.890 -0.0369  0.3444  0.1635
   22MES     CS   22   0.822   4.789   5.318 -0.0866 -0.0862 -0.0702
   23MES     CS   23   2.968   0.110   4.464 -0.2281  0.1160 -0.1516
   24MES     CS   24   2.263   3.383   0.683 -0.1289 -0.2632 -0.2577
   25MES     CS   25   6.456   6.199   1.830 -0.0813  0.2346  0.0581
   26MES     CS   26   1.755   3.567   2.753 -0.0199 -0.0928  0.1377
   27MES     CS   27   6.636   4.825   5.156  0.3036  0.1038 -0.0193
   28MES     CS   28   2.560   1.522   4.417  0.2315  0.0729 -0.1824
   29MES     CS   29   3.019   5.285   5.166  0.0736  0.2284  0.2515
   30MES     CS   30   5.281   2.689   1.727 -0.0079  0.3225  0.3371
   31MES     CS   31   4.673   3.980   1.231  0.0269  0.0015 -0.1313
   32MES     CS   32   6.160   0.684   1.370  0.2697  0.2080  0.1593
   33MES     CS   33   3.240   4.592   0.478 -0.0434  0.0496  0.1597
   34MES     CS   34   0.176   0.660   6.117 -0.0652 -0.1348  0.1421
   35MES     CS   35   2.216   3.263   1.624  0.0273  0.0179  0.0609
   36MES     CS   36   3.332   3.250   6.089 -0.1976  0.0788 -0.1400
   37MES     CS   37   2.804   2.540   0.073 -0.0346 -0.1384 -0.0301
   38MES     CS   38   2.193   6.017   2.252 -0.2154  0.0685  0.0462
   39MES     CS   39   2.548   3.904   1.786  0.4512  0.0927  0.1182
   40MES     CS   40   1.628   2.562   5.051  0.3232  0.1601 -0.0153
   41MES     CS   41   2.852   3.435   3.566  0.0854  0.2642  0.0603
   42MES     CS   42   1.006   1.554   2.972  0.3250 -0.1672 -0.1777
   43MES     CS   43   4.886   2.246   5.825  0.0729 -0.0188 -0.3512
   44MES     CS   44   5.286   1.085   2.751  0.0824 -0.1540  0.2070
   45MES     CS   45   0.626   4.321   0.879 -0.0031  0.0886 -0.3090
   46MES     CS   46   3.586   0.344   2.659 -0.1922 -0.3178  0.0761
   47MES     CS   47   6.328   2.678   6.124 -0.2813  0.0506  0.0940
   48MES     CS   48   3.408   0.103   4.145 -0.0870  0.2781  0.1095
   49MES     CS   49   4.760   5.557   3.224 -0.0388  0.1369  0.3961
   50MES     CS   50   3.049   0.786   5.853 -0.0693  0.0597 -0.0598
   51MES     CS   51   2.922   5.996   3.700 -0.3268 -0.1856  0.2542
   52MES     CS   52   6.615   1.273   4.435 -0.0356 -0.0735 -0.1660
   53MES     CS   53   5.836   2.494   0.963  0.1213  0.0491  0.1184
   54MES     CS   54   6.111   2.428   4.854  0.2653  0.0694  0.1162
   55MES     CS   55   4.592   3.645   2.177 -0.0280 -0.2041 -0.3245
   56MES     CS   56   3.695   4.903   3.737 -0.3112 -0.4439 -0.1949
   57MES     CS   57   0.638   0.430   1.999  0.2756  0.0563  0.0894
   58MES     CS   58   4.342   2.923   3.900 -0.0209 -0.0712  0.1643
   59MES     CS   59   1.583   1.041   5.550  0.2165  0.1057 -0.3317
   60MES     CS   60   0.391   3.173   1.756  0.1887 -0.0979 -0.3411
   61MES     CS   61   6.576   2.529   1.491 -0.0378 -0.0842 -0.1731
   62MES     CS   62   0.552   0.552   3.782 -0.1181 -0.1190  0.2127
   63MES     CS   63   3.447   3.216   3.014 -0.0336 -0.0293  0.0486
   64MES     CS   64   3.277   5.053   4.173 -0.1511 -0.0377 -0.1285
   65MES     CS   65   4.964   1.946   6.247 -0.3356  0.1248 -0.0918
   66MES     CS   66   2.146   1.507   3.209  0.3498  0.2175  0.0746
   67MES     CS   67   5.957   5.187   6.647 -0.4408  0.1286 -0.0651
   68MES     CS   68   2.280   1.699   4.048  0.0206 -0.2900  0.2954
   69MES     CS   69   4.030   5.276   1.100 -0.1657  0.0301  0.1031
   70MES     CS   70   2.882   4.176   4.653  0.1626 -0.0142 -0.1012
   71MES     CS   71   3.493   3.323   0.480  0.1731  0.0433 -0.2019
   72MES     CS   72   0.562   1.412   5.935  0.2222  0.1435  0.1638
   73MES     CS   73   2.669   3.607   2.477 -0.1203  0.2468 -0.1405
   74MES     CS   74   5.546   3.292   3.376 -0.0808  0.3310 -0.1264
   75MES     CS   75   6.249   3.358   4.544 -0.2861  0.0929  0.1345
   76MES     CS   76   2.537   3.933   5.534 -0.3700 -0.1762  0.5675
   77MES     CS   77   2.143   3.778   2.045 -0.3837 -0.0347  0.2243
   78MES     CS   78   1.443   4.946   0.972 -0.0538 -0.2682  0.0871
   79MES     CS   79   3.536   0.148   0.121  0.0090 -0.4374  0.2104
   80MES     CS   80   1.296   1.966   0.332  0.1991  0.0112 -0.0252
   81MES     CS   81   0.001   5.876   2.850  0.0102  0.2094 -0.1913
   82MES     CS   82   0.155   3.338   3.827  0.0679  0.0069 -0.2840
   83MES     CS   83   5.234   0.495   3.581 -0.0689  0.1094  0.1170
   84MES     CS   84   4.462   1.889   1.205  0.0070  0.2545  0.1527
   85MES     CS   85   2.969   6.247   1.012  0.1099  0.0939 -0.1312
   86MES     CS   86   3.767   2.275   3.412 -0.1448  0.0066  0.1761
   87MES     CS   87   5.819   2.740   4.652 -0.1871  0.0287 -0.0120
   88MES     CS   88   5.220   4.672   5.574 -0.0966  0.2806 -0.0555
   89MES     CS   89   1.858   0.002   6.600 -0.0406 -0.0913 -0.2659
   90MES     CS   90   5.912   0.288   5.618  0.0338  0.0902  0.0269
   91MES     CS   91   0.643   0.183   3.390  0.1414 -0.1447  0.3011
   92MES     CS   92   2.328   2.858   4.544  0.0796 -0.1733 -0.0515
   93MES     CS   93   0.873   1.957   6.460 -0.1681 -0.0918  0.4635
   94MES     CS   94   0.900   0.079   2.890  0.1063 -0.1042  0.0369
   95MES     CS   95   3.857   4.664   6.140 -0.1767 -0.3046 -0.0082
   96MES     CS   96   3.547   3.809   0.268  0.1500  0.0646 -0.0805
   97MES     CS   97   0.677   3.707   5.497 -0.1539 -0.0717  0.0427
   98MES     CS   98   3.150   2.264   2.559 -0.0032  0.1092  0.0597
   99MES     CS   99   0.376   0.352   4.802 -0.1420 -0.1054  0.0480
  100MES     CS  100   2.007   2.268   5.264  0.1116 -0.0450 -0.1909
  101MES     CS  101   0.721   3.124   5.710  0.1012  0.1813 -0.3276
  102MES     CS  102   5.904   3.590   4.260  0.0499  0.1925 -0.1098
  103MES     CS  103   5.634   3.294   4.503  0.1170  0.2963 -0.0231
  104MES     CS  104   1.096   4.807   2.893 -0.1737 -0.0900  0.1255
  105MES     CS  105   1.556   0.422   2.335 -0.1116  0.0919 -0.1737
  106MES     CS  106   2.689   3.189   4.340  0.0708  0.0606  0.2359
  107MES     CS  107   6.053   3.687   1.150  0.4144  0.1491 -0.0266
  108MES     CS  108   2.009   4.739   0.161  0.1752 -0.3051 -0.0640
  109MES     CS  109   0.884   5.778   3.355  0.0460 -0.0767 -0.4396
  110MES     CS  110   4.479   3.907   0.217 -0.0166  0.0569 -0.0296
  111MES     CS  111   1.979   1.799   5.057  0.2119  0.1560 -0.2192
  112MES     CS  112   1.981   4.332   6.087  0.1596 -0.0017 -0.2829
  113MES     CS  113   2.460   6.569   6.608 -0.0122  0.1696 -0.0598
  114MES     CS  114   5.766   0.010   0.535 -0.2199  0.2278 -0.1729
  115MES     CS  115   0.304   5.103   5.394 -0.3899  0.1139 -0.0009
  116MES     CS  116   3.304   3.308   3.514  0.0777  0.0286  0.0822
  117MES     CS  117   6.146   4.130   4.845  0.1594 -0.0268  0.0249
  118MES     CS  118   2.356   2.419   0.788 -0.2572 -0.0591 -0.0927
  119MES     CS  119   4.254   0.432   3.969  0.0094  0.1374  0.0939
  120MES     CS  120   2.064   0.582   4.816 -0.1767  0.1404 -0.3610
  121MES     CS  121   0.257   6.627   1.025 -0.0027  0.4151 -0.1712
  122MES     CS  122   5.812   0.602   3.388  0.0391 -0.0125 -0.3580
  123MES     CS  123   0.840   6.463   1.161  0.0562 -0.3726  0.3469
  124MES     CS  124   5.921   4.040   0.399  0.1752 -0.1818 -0.0466
  125MES     CS  125   4.349   0.991   4.921 -0.1875  0.0256  0.1832
  126MES     CS  126   6.141   0.905   5.882 -0.2383 -0.2958  0.1425
  127MES     CS  127   2.928   5.876   4.308  0.0657 -0.0540  0.1952
  128MES     CS  128   3.287   1.644   3.702  0.1809  0.0745  0.0293
  129MES     CS  129   4.094   3.829   2.945 -0.1157 -0.1726  0.0277
  130MES     CS  130   0.926   5.683   6.576 -0.1431  0.1032 -0.1411
  131MES     CS  131   5.309   1.795   0.748 -0.2155  0.0294 -0.1951
  132MES     CS  132   0.346   2.782   4.527 -0.0655 -0.0303  0.0601
  133MES     CS  133   2.840   4.944   2.363 -0.0135  0.2711 -0.0280
  134MES     CS  134   3.616   3.365   2.184  0.3062  0.4567  0.1020
  135MES     CS  135   4.741   3.628   5.342 -0.1972  0.0273 -0.0592
  136MES     CS  136   1.748   0.191   3.371 -0.0881  0.0460 -0.1861
  137MES     CS  137   3.513   1.518   6.304  0.0097  0.0544 -0.2431
  138MES     CS  138   3.060   0.464   2.584 -0.4136  0.2198  0.1035
  139MES     CS  139   2.600   0.345   2.285  0.0054 -0.2428  0.2411
  140MES     CS  140   4.842   4.862   0.598 -0.1374  0.1138 -0.0370
  141MES     CS  141   5.377   3.318   2.874 -0.1239  0.2495 -0.0585
  142MES     CS  142   2.276   4.684   1.250 -0.1643 -0.1318 -0.3430
  143MES     CS  143   6.154   0.593   1.881  0.1756  0.2317  0.0179
  144MES     CS  144   4.143   3.435   2.054 -0.0735 -0.0461  0.0633
  145MES     CS  145   3.118   6.293   4.192 -0.1565  0.1266  0.1282
  146MES     CS  146   6.151   3.305   0.365  0.3892  0.0975  0.1180
  147MES     CS  147   2.375   3.191   3.258 -0.2694  0.1345  0.0583
  148MES     CS  148   0.980   0.741   0.918 -0.1097  0.2928 -0.2251
  149MES     CS  149   5.563   2.790   1.370 -0.0239  0.1971 -0.3179
  150MES     CS  150   0.435   1.328   3.405  0.0504  0.3057  0.1183
  151MES     CS  151   1.266   0.177   3.650 -0.4771  0.2209  0.1355
  152MES     CS  152   0.966   4.487   6.492 -0.0468  0.4438  0.0474
  153MES     CS  153   0.057   4.966   0.884 -0.2158  0.1300  0.0502
  154MES     CS  154   4.832   1.648   0.900 -0.0575 -0.0488 -0.2710
  155MES     CS  155   3.055   1.249   6.200  0.0655  0.0230  0.0279
  156MES     CS  156   6.208   4.610   5.351  0.1525  0.1566 -0.2700
  157MES     CS  157   6.147   3.937   3.721  0.0981 -0.0040  0.1065
  158MES     CS  158   0.797   5.487   4.960  0.0543 -0.2030  0.1268
  159MES     CS  159   0.781   6.017   5.584 -0.0179 -0.0082 -0.0236
  160MES     CS  160   6.208   3.305   0.871  0.1967  0.0429  0.1907
  161MES     CS  161   2.175   6.227   0.722  0.1542  0.2009  0.0561
  162MES     CS  162   1.909   1.975   3.979 -0.1445  0.0582 -0.1639
  163MES     CS  163   4.308   6.472   2.707 -0.0114 -0.2580  0.0702
  164MES     CS  164   6.129   3.757   1.621  0.0505 -0.1796 -0.3323
  165MES     CS  165   0.485   4.054   1.322  0.2587 -0.2163  0.1323
  166MES     CS  166   4.512   1.718   4.854  0.0911  0.1413  0.0288
  167MES     CS  167   5.730   5.824   2.584 -0.1095  0.1639  0.3010
  168MES     CS  168   6.335   6.241   5.342 -0.0282 -0.0979 -0.0519
  169MES     CS  169   4.482   3.091   5.307  0.0507 -0.0542 -0.2667
  170MES     CS  170   1.353   5.413   1.124 -0.0016 -0.1113  0.1858
  171MES     CS  171   4.924   0.046   2.878  0.2363  0.2436  0.1775
  172MES     CS  172   2.739   4.547   0.441 -0.1832  0.1837 -0.0202
  173MES     CS  173   4.732   2.481   3.077  0.1556  0.0828 -0.2558
  174MES     CS  174   2.186   4.299   4.985 -0.0137 -0.0103 -0.1755
  175MES     CS  175   4.914   3.213   0.887  0.3366  0.4539 -0.3102
  176MES     CS  176   4.094   2.621   4.307  0.2280 -0.1963  0.2755
  177MES     CS  177   1.428   4.760   3.275 -0.1848 -0.4748 -0.2526
  178MES     CS  178   2.955   3.904   5.795  0.0541  0.0005 -0.0137
  179MES     CS  179   6.249   4.250   3.112 -0.2754 -0.1221  0.1492
  180MES     CS  180   2.024   0.048   0.495 -0.4562  0.3212 -0.3160
  181MES     CS  181   5.100   2.374   4.883  0.1505 -0.0691  0.1627
  182MES     CS  182   3.569   5.297   0.720 -0.3347 -0.4218 -0.2220
  183MES     CS  183   5.142   4.857   6.134 -0.2640 -0.1661  0.2740
  184MES     CS  184   5.885   3.845   3.313 -0.0206 -0.3352 -0.0251
  185MES     CS  185   1.678   1.736   2.862  0.1028  0.3596  0.0711
  186MES     CS  186   5.626   3.368   4.984  0.2385  0.0265  0.3503
  187MES     CS  187   3.471   5.146   3.274  0.0257  0.0151  0.0519
  188MES     CS  188   4.327   0.688   1.845 -0.2703  0.0182 -0.1430
  189MES     CS  189   3.710   2.211   5.844  0.0165  0.0569 -0.1364
  190MES     CS  190   2.444   0.777   2.208 -0.3487 -0.4103  0.1326
  191MES     CS  191   6.352   1.917   0.765 -0.2268 -0.1702 -0.4322
  192MES     CS  192   2.630   0.557   4.880  0.0673 -0.1246 -0.0995
  193MES     CS  193   5.819   1.836   4.183 -0.2610  0.1908  0.0693
  194MES     CS  194   1.659   6.626   1.509  0.1778  0.0102  0.0412
  195MES     CS  195   5.205   4.474   0.709  0.1402 -0.2025  0.1969
  196MES     CS  196   4.126   0.653   2.361  0.4538  0.1144 -0.0242
  197MES     CS  197   1.778   2.102   0.187  0.0362  0.0354  0.1446
  198MES     CS  198   0.047   5.990   0.977 -0.3409  0.1703 -0.0614
  199MES     CS  199   0.821   0.763   4.168 -0.3234  0.1124  0.2848
  200MES     CS  200   5.189   3.670   0.828  0.2298 -0.2233  0.0607
  201MES     CS  201   2.597   3.035   0.008 -0.1625 -0.0521 -0.1468
  202MES     CS  202   4.129   0.261   2.081 -0.1550  0.2463  0.1458
  203MES     CS  203   2.798   4.721   1.437  0.2688  0.1082  0.1454
  204MES     CS  204   3.990   1.133   3.660  0.0969 -0.1074  0.1921
  205MES     CS  205   0.199   1.770   2.017  0.1406 -0.0925 -0.3243
  206MES     CS  206   2.477   4.294   3.240  0.2412 -0.0472 -0.1860
  207MES     CS  207   4.336   0.744   4.400  0.0614  0.1693  0.0044
  208MES     CS  208   5.613   0.731   5.704 -0.1138  0.2289 -0.1594
  209MES     CS  209   5.016   5.734   5.269  0.0007 -0.3118  0.0868
  210MES     CS  210   5.821   4.445   4.629 -0.0333  0.1123 -0.2221
  211MES     CS  211   2.195   5.395   6.268 -0.1835  0.3026 -0.0020
  212MES     CS  212   1.600   3.654   5.007 -0.3667  0.0881  0.0878
  213MES     CS  213   6.644   0.107   6.255  0.0132  0.1123  0.1039
  214MES     CS  214   4.030   5.012   3.244 -0.1104 -0.1981 -0.1571
  215MES     CS  215   0.257   0.993   0.365  0.1196 -0.3143 -0.4918
  216MES     CS  216   0.754   2.211   5.140 -0.2695  0.0968  0.3301
  217MES     CS  217   4.627   2.414   3.990 -0.0851  0.0547  0.0637
  218MES     CS  218   5.504   0.807   0.836 -0.1544  0.0185  0.1959
  219MES     CS  219   0.054   2.134   6.279 -0.1253  0.1459 -0.2465
  220MES     CS  220   6.626   2.363   0.944 -0.1246 -0.1139 -0.1979
  221MES     CS  221   2.564   6.260   5.261  0.3216  0.0488  0.2537
  222MES     CS  222   6.632   5.889   6.530  0.1189  0.0250 -0.1022
  223MES     CS  223   1.534   5.872   0.843 -0.1994  0.0182  0.0182
  224MES     CS  224   6.504   2.564   5.704  0.2419  0.1530 -0.0091
  225MES     CS  225   0.042   3.673   1.645 -0.0417 -0.0550  0.1736
  226MES     CS  226   0.766   5.125   0.105  0.2690 -0.1981 -0.1476
  227MES     CS  227   1.005   3.420   5.265  0.1298 -0.0913 -0.5420
  228MES     CS  228   1.658   0.777   2.919 -0.2024 -0.0473  0.0724
  229MES     CS  229   2.700   3.152   0.745 -0.2235  0.1018  0.0960
  230MES     CS  230   2.577   1.514   0.984 -0.0785 -0.1602 -0.0837
  231MES     CS  231   1.206   5.311   0.125  0.2192 -0.1223  0.1843
  232MES     CS  232   4.473   4.128   2.316 -0.0520  0.1590  0.1987
  233MES     CS  233   6.620   4.143   6.276  0.0005  0.1753  0.0981
  234MES     CS  234   4.871   6.211   2.873  0.2886 -0.2187  0.1965
  235MES     CS  235   1.821   5.143   4.684  0.0369  0.1971 -0.3923
  236MES     CS  236   3.332   0.648   1.710 -0.0350  0.0204  0.0537
  237MES     CS  237   3.382   3.583   4.635  0.2105 -0.2900  0.0083
  238MES     CS  238   0.073   3.705   0.566  0.0868 -0.1083 -0.2912
  239MES     CS  239   4.944   1.932   4.693 -0.1615 -0.2310  0.0322
  240MES     CS  240   3.836   5.125   4.272  0.2599  0.0659  0.1437
  241MES     CS  241   1.677   0.279   4.460  0.1114 -0.0992  0.0299
  242MES     CS  242   2.343   0.825   4.550 -0.1292  0.0857  0.2652
  243MES     CS  243   5.876   1.452   0.755 -0.0022 -0.1943 -0.1921
  244MES     CS  244   5.763   2.820   1.852 -0.2113 -0.0429 -0.1149
  245MES     CS  245   6.503   4.604   4.037 -0.0040 -0.0475 -0.3638
  246MES     CS  246   4.483   3.642   2.656  0.0205  0.1098  0.0550
  247MES     CS  247   1.643   5.712   4.878 -0.1451  0.3004 -0.2439
  248MES     CS  248   0.491   2.254   4.334  0.3410 -0.0954 -0.0497
  249MES     CS  249   4.747   0.332   0.443 -0.0273 -0.3023 -0.4631
  250MES     CS  250   3.635   2.859   4.298  0.2718 -0.0763  0.0194
  251MES     CS  251   1.073   5.908   1.283  0.0540 -0.0055  0.2624
  252MES     CS  252   5.349   5.540   4.574 -0.0809  0.0444  0.2444
  253MES     CS  253   5.539   0.756   2.412  0.2022 -0.0689 -0.1394
  254MES     CS  254   1.436   0.616   0.684  0.0433 -0.0237  0.1039
  255MES     CS  255   2.440   3.489   6.565 -0.1010 -0.0267 -0.3612
  256MES     CS  256   3.177   0.279   5.031  0.1183 -0.2109 -0.1150
  257MES     CS  257   3.049   1.744   1.112  0.0463  0.2134 -0.0113
  258MES     CS  258   1.046   1.794   5.132 -0.0445 -0.2729 -0.2090
  259MES     CS  259   3.866   4.648   1.511 -0.0542  0.0313  0.1397
  260MES     CS  260   3.369   5.665   5.494 -0.0642  0.6083  0.1603
  261MES     CS  261   0.234   3.707   6.302 -0.2639 -0.3149  0.1011
  262MES     CS  262   4.483   1.276   4.515  0.0435  0.0093 -0.0674
  263MES     CS  263   4.493   2.608   0.412  0.0756 -0.3383 -0.0530
  264MES     CS  264   0.072   1.158   2.943 -0.4768 -0.0601  0.2530
  265MES     CS  265   4.571   6.207   4.732 -0.1638 -0.2345  0.1731
  266MES     CS  266   1.390   1.246   2.722  0.1467 -0.0195 -0.1326
  267MES     CS  267   5.212   0.563   2.799 -0.2597 -0.1742 -0.2955
  268MES     CS  268   0.029   3.217   0.725 -0.1169 -0.1748  0.2739
  269MES     CS  269   1.505   3.179   2.761 -0.2062 -0.1206 -0.1013
  270MES     CS  270   5.458   2.250   1.426  0.0408 -0.1481  0.0422
  271MES     CS  271   1.060   5.591   2.130 -0.2801  0.2511  0.4366
  272MES     CS  272   5.509   0.602   0.386 -0.4016  0.0410 -0.1000
  273MES     CS  273   4.007   1.728   1.136 -0.2095 -0.0561 -0.1026
  274MES     CS  274   4.360   6.167   5.253  0.3213  0.1643  0.0153
  275MES     CS  275   4.666   5.447   3.843 -0.0707 -0.1857 -0.0688
  276MES     CS  276   2.198   1.582   6.192  0.0759 -0.1474  0.2365
  277MES     CS  277   1.616   2.802   0.925 -0.1709  0.0901  0.0045
  278MES     CS  278   4.203   4.734   4.360  0.0800 -0.4646  0.0298
  279MES     CS  279   4.445   1.400   0.345  0.1637 -0.0375  0.1488
  280MES     CS  280   5.802   0.896   4.473 -0.1548  0.1192 -0.0464
  281MES     CS  281   4.729   0.381   4.623  0.1684  0.0159  0.4121
  282MES     CS  282   1.843   4.967   2.481 -0.2001  0.0166  0.0012
  283MES     CS  283   6.137   4.156   2.213 -0.0653 -0.0579  0.1320
  284MES     CS  284   1.593   5.968   3.050  0.1339 -0.2017 -0.0111
  285MES     CS  285   3.167   0.876   4.733 -0.1593 -0.1243 -0.0481
  286MES     CS  286   4.639   3.436   1.241  0.1007  0.0819 -0.1681
  287MES     CS  287   3.628   6.275   0.529  0.1460  0.0572 -0.0261
  288MES     CS  288   0.209   1.616   2.475 -0.1802 -0.0302  0.0210
  289MES     CS  289   6.610   0.668   0.568 -0.1518 -0.0118 -0.2379
  290MES     CS  290   2.232   6.129   0.067 -0.0658  0.0316  0.0486
  291MES     CS  291   6.328   0.639   3.609 -0.0154 -0.1070  0.2184
  292MES     CS  292   6.545   5.782   5.163 -0.0201  0.2351 -0.2173
  293MES     CS  293   1.411   0.606   3.319 -0.2860  0.0189 -0.0358
  294MES     CS  294   4.567   3.361   0.167  0.3238 -0.1482 -0.2353
  295MES     CS  295   3.224   5.010   2.747  0.1114 -0.0864 -0.0627
  296MES     CS  296   0.197   0.139   5.263 -0.0821  0.3231  0.0744
  297MES     CS  297   5.407   5.814   4.978 -0.0349  0.1856 -0.4260
  298MES     CS  298   2.135   5.307   3.751 -0.0730  0.3086 -0.1151
  299MES     CS  299   6.625   4.701   6.446 -0.3917  0.0592  0.0369
  300MES     CS  300   6.187   5.405   4.464  0.1570 -0.0121  0.4516
  301MES     CS  301   1.221   2.396   3.735 -0.3444  0.0500  0.0970
  302MES     CS  302   0.166   1.002   1.480 -0.1099  0.1795 -0.0793
  303MES     CS  303   6.035   4.825   6.307  0.0195  0.0194  0.0520
  304MES     CS  304   6.422   5.770   1.321  0.2575 -0.1945 -0.3112
  305MES     CS  305   2.163   6.494   2.679 -0.2435 -0.0155 -0.0082
  306MES     CS  306   5.986   6.568   5.221  0.0719  0.0948  0.5464
  307MES     CS  307   3.310   4.683   3.123  0.0929  0.0458 -0.0731
  308MES     CS  308   4.275   0.745   3.479 -0.1446  0.2516  0.0938
  309MES     CS  309   3.986   3.866   6.635  0.1347 -0.0613 -0.1250
  310MES     CS  310   3.807   5.756   0.774 -0.0047 -0.2539 -0.5561
  311MES     CS  311   4.000   1.825   2.944 -0.1239 -0.0872 -0.0540
  312MES     CS  312   3.348   0.674   6.511 -0.3294 -0.0386  0.1915
  313MES     CS  313   1.086   0.271   5.536 -0.3746 -0.0390  0.5083
  314MES     CS  314   5.636   0.652   4.854 -0.1946 -0.1284  0.2920
  315MES     CS  315   4.928   5.395   6.489  0.0340  0.4613  0.1286
  316MES     CS  316   4.983   6.224   3.401 -0.1681  0.1063  0.1462
  317MES     CS  317   2.145   0.684   1.014  0.3687  0.4806  0.0045
  318MES     CS  318   6.281   3.898   0.788  0.0185 -0.1572  0.0585
  319MES     CS  319   6.445   6.599   5.722 -0.0029  0.0992 -0.0896
  320MES     CS  320   6.534   0.012   4.916  0.2095 -0.0356  0.0467
  321MES     CS  321   2.395   0.324   4.549  0.2506 -0.2273  0.0494
  322MES     CS  322   3.281   0.957   3.183  0.4685  0.0668 -0.0640
  323MES     CS  323   3.951   4.731   2.431 -0.0695  0.4405  0.0379
  324MES     CS  324   1.328   0.531   5.930  0.0144  0.1327 -0.3208
  325MES     CS  325   5.534   4.910   3.411 -0.2743  0.0939 -0.2722
  326MES     CS  326   5.060   2.189   0.056  0.0796 -0.1734 -0.1917
  327MES     CS  327   5.804   6.166   3.033 -0.2468 -0.1287 -0.3491
  328MES     CS  328   4.165   1.598   2.577  0.3163 -0.3329 -0.3156
  329MES     CS  329   5.219   5.358   3.303 -0.0007 -0.0822 -0.1681
  330MES     CS  330   4.930   0.405   1.366  0.0339  0.1229  0.0599
  331MES     CS  331   5.011   5.757   5.771 -0.1276 -0.1999  0.2226
  332MES     CS  332   1.592   6.038   4.077  0.1311 -0.0507  0.0802
  333MES     CS  333   5.867   4.986   2.604  0.2215  0.0387  0.1029
  334MES     CS  334   2.837   4.521   2.803  0.0875 -0.1829  0.3449
  335MES     CS  335   5.050   4.167   3.878 -0.3080  0.0431 -0.3109
  336MES     CS  336   0.594   1.319   2.113 -0.1772  0.0253  0.0759
  337MES     CS  337   3.090   4.512   5.771  0.1184  0.0127 -0.1795
  338MES     CS  338   0.062   5.429   1.120  0.0221 -0.2394 -0.1222
  339MES     CS  339   5.943   3.403   3.055 -0.2884 -0.0773  0.1834
  340MES     CS  340   0.518   3.752   4.521 -0.0930  0.1943 -0.0073
  341MES     CS  341   2.154   5.808   5.932 -0.0189  0.1641 -0.1871
  342MES     CS  342   3.970   5.943   3.116  0.2282 -0.3664  0.1861
  343MES     CS  343   4.971   4.012   0.400 -0.2630 -0.0911  0.2487
  344MES     CS  344   2.876   2.445   1.928  0.4580  0.0756 -0.0141
  345MES     CS  345   0.253   6.416   6.026  0.0555  0.3830 -0.0724
  346MES     CS  346   1.255   1.481   0.069  0.0226  0.1184  0.1443
  347MES     CS  347   6.267   5.984   3.209  0.2799 -0.1728 -0.1067
  348MES     CS  348   2.477   2.772   0.470 -0.3130 -0.0008  0.1069
  349MES     CS  349   1.673   3.763   2.319  0.2498 -0.2681 -0.0842
  350MES     CS  350   4.012   6.427   3.222  0.0932 -0.0437  0.0577
  351MES     CS  351   2.992   3.633   1.742 -0.1468 -0.0536 -0.4339
  352MES     CS  352   1.242   4.508   5.635  0.1162 -0.2802  0.2311
  353MES     CS  353   5.722   3.734   2.139  0.0478 -0.0831 -0.1316
  354MES     CS  354   4.051   1.083   2.681  0.2493  0.0488  0.0752
  355MES     CS  355   1.922   4.680   0.761 -0.0531  0.2847 -0.1651
  356MES     CS  356   5.801   1.130   5.377 -0.1320 -0.1086  0.0654
  357MES     CS  357   0.996   6.260   5.194  0.0979 -0.1937 -0.0357
  358MES     CS  358   0.589   4.742   2.881  0.0050  0.0116 -0.2199
  359MES     CS  359   1.083   0.539   0.399 -0.0491  0.0623 -0.1280
  360MES     CS  360   2.223   1.498   5.626 -0.1228 -0.1529 -0.0316
  361MES     CS  361   5.384   2.494   2.206 -0.1400 -0.1599 -0.2379
  362MES     CS  362   1.900   0.214   5.607  0.0870  0.0071  0.2148
  363MES     CS  363   0.181   0.491   2.293  0.1146  0.0457 -0.2934
  364MES     CS  364   2.234   2.443   2.039  0.2638  0.0507 -0.5121
  365MES     CS  365   2.422   2.125   2.964 -0.0511  0.0430  0.0106
  366MES     CS  366   0.048   4.543   1.209 -0.1878 -0.1566  0.1267
  367MES     CS  367   4.284   4.283   6.022  0.0148  0.2939 -0.2012
  368MES     CS  368   6.167   5.925   2.714  0.0076 -0.2663  0.1272
  369MES     CS  369   0.252   4.496   3.709  0.1870 -0.3674 -0.2458
  370MES     CS  370   3.484   4.217   5.865 -0.0632 -0.1033  0.3289
  371MES     CS  371   4.934   1.416   4.710  0.2795  0.1341 -0.1609
  372MES     CS  372   6.278   2.495   2.527 -0.1571  0.2792  0.1317
  373MES     CS  373   2.736   4.600   6.174 -0.1915  0.1574 -0.2840
  374MES     CS  374   2.290   4.251   3.675 -0.1610  0.0571  0.1256
  375MES     CS  375   3.056   2.925   4.222 -0.0546 -0.2178 -0.1406
  376MES     CS  376   1.219   5.945   2.518 -0.0490 -0.0454  0.0213
  377MES     CS  377   2.459   4.949   0.598  0.1204  0.1608 -0.2051
  378MES     CS  378   3.543   3.913   2.245 -0.3071 -0.0792  0.1177
  379MES     CS  379   5.253   3.149   4.267 -0.0699 -0.3006  0.3471
  380MES     CS  380   0.399   5.986   2.513  0.1515 -0.1745 -0.4636
  381MES     CS  381   0.246   1.020   5.470 -0.1711 -0.0886 -0.1672
  382MES     CS  382   3.008   2.938   3.706  0.2596  0.0797 -0.0444
  383MES     CS  383   6.310   5.850   5.697  0.3951  0.1295  0.1432
  384MES     CS  384   6.373   0.292   5.299  0.2663  0.0388  0.2735
  385MES     CS  385   2.171   4.295   5.549  0.0096 -0.1185  0.2401
  386MES     CS  386   5.828   6.367   2.418 -0.0874 -0.0930 -0.0119
  387MES     CS  387   0.197   5.012   0.387  0.2235 -0.0155  0.0577
  388MES     CS  388   5.764   5.540   5.739 -0.1869 -0.0134  0.0112
  389MES     CS  389   5.252   6.237   3.848  0.2676  0.1591 -0.0599
  390MES     CS  390   0.565   2.331   0.405  0.1203 -0.0222  0.2688
  391MES     CS  391   6.507   5.900   2.299 -0.1337 -0.3918  0.0473
  392MES     CS  392   4.122   3.148   1.181 -0.0952 -0.0935  0.0546
  393MES     CS  393   0.992   2.275   4.161 -0.3147 -0.3549 -0.1299
  394MES     CS  394   2.407   4.578   4.595 -0.3429 -0.1831 -0.0939
  395MES     CS  395   5.009   2.707   0.081  0.0565 -0.0410 -0.1481
  396MES     CS  396   5.272   0.329   0.946  0.0967  0.1114  0.2001
  397MES     CS  397   3.079   4.123   0.388  0.1555 -0.1875 -0.0868
  398MES     CS  398   6.532   1.934   5.034  0.1075 -0.3924  0.0612
  399MES     CS  399   6.065   5.937   1.626  0.3017 -0.2142  0.2452
  400MES     CS  400   2.952   2.238   4.695  0.0614  0.1343  0.0455
  401MES     CS  401   2.479   2.967   5.357 -0.2026 -0.2761 -0.1324
  402MES     CS  402   3.896   6.214   2.654  0.0723  0.2069 -0.3144
  403MES     CS  403   1.364   2.473   0.567  0.3217  0.0445  0.0654
  404MES     CS  404   0.337   0.062   2.424  0.1029 -0.3288 -0.0551
  405MES     CS  405   3.918   3.321   2.852 -0.0220  0.1939  0.1738
  406MES     CS  406   5.003   0.706   5.427  0.1763  0.0672 -0.0328
  407MES     CS  407   5.477   3.765   3.061 -0.1697  0.2414  0.1749
  408MES     CS  408   2.274   6.500   2.211 -0.3178 -0.1205 -0.0710
  409MES     CS  409   0.392   0.469   4.268 -0.2873 -0.0114  0.0056
  410MES     CS  410   2.638   1.093   0.366 -0.1023 -0.1732 -0.2006
  411MES     CS  411   0.465   5.408   4.584  0.2783  0.0225  0.0124
  412MES     CS  412   2.163   3.367   4.233  0.2993  0.0481  0.0378
  413MES     CS  413   0.354   5.541   5.144 -0.0011  0.2231  0.2364
  414MES     CS  414   6.019   0.679   0.697  0.3103 -0.0289  0.1012
  415MES     CS  415   5.306   2.517   5.736  0.2825  0.1098  0.2599
  416MES     CS  416   3.719   1.413   2.461 -0.1386  0.0323  0.1271
  417MES     CS  417   5.037   0.951   3.204  0.1941 -0.2104  0.2408
  418MES     CS  418   0.163   0.180   0.601 -0.3093  0.3138  0.2009
  419MES     CS  419   2.041   0.992   0.296 -0.0344 -0.0734 -0.0093
  420MES     CS  420   3.527   5.258   5.139  0.2897 -0.3322  0.0425
  421MES     CS  421   4.383   4.195   3.851  0.1073 -0.0642  0.0054
  422MES     CS  422   1.560   4.345   3.009 -0.0564  0.3092 -0.0121
  423MES     CS  423   6.061   2.554   1.434  0.1831  0.0965  0.1224
  424MES     CS  424   6.120   3.286   5.140  0.0792  0.1386 -0.0093
  425MES     CS  425   1.332   2.199   4.859 -0.2172 -0.1147 -0.0220
  426MES     CS  426   3.119   0.276   5.630  0.1939 -0.1801 -0.2362
  427MES     CS  427   3.114   3.890   1.315 -0.4727 -0.2091 -0.1782
  428MES     CS  428   0.538   1.270   4.525 -0.0770 -0.1069  0.1557
  429MES     CS  429   4.805   4.566   1.053  0.1840  0.4524  0.1512
  430MES     CS  430   6.290   0.468   6.382  0.0647  0.1908  0.2475
  431MES     CS  431   6.573   4.484   2.102 -0.1607 -0.0085  0.1799
  432MES     CS  432   4.792   0.749   1.753 -0.0515  0.0760  0.1610
  433MES     CS  433   1.783   5.562   1.348  0.2052  0.1008  0.1186
  434MES     CS  434   5.297   0.783   4.075  0.0182  0.1154  0.0878
  435MES     CS  435   0.976   4.719   2.060  0.1677  0.0517 -0.1535
  436MES     CS  436   3.790   5.174   5.560 -0.2383 -0.1499 -0.0358
  437MES     CS  437   2.281   0.463   5.757  0.1701 -0.0770 -0.1899
  438MES     CS  438   4.595   2.547   5.536  0.0008 -0.1523  0.0596
  439MES     CS  439   3.970   2.168   1.400 -0.1003 -0.2468 -0.1795
  440MES     CS  440   4.148   2.125   3.852 -0.2255  0.1465 -0.2931
  441MES     CS  441   5.999   4.339   2.642 -0.1073  0.0214 -0.1771
  442MES     CS  442   5.793   4.350   3.528  0.0583 -0.1952 -0.1390
  443MES     CS  443   3.807   4.873   2.000 -0.0722 -0.1145  0.2051
  444MES     CS  444   5.876   2.625   0.215  0.0154 -0.0374  0.0119
  445MES     CS  445   3.683   5.486   3.850  0.0715  0.1211  0.0402
  446MES     CS  446   2.467   1.799   4.913  0.0144 -0.3527  0.0050
  447MES     CS  447   0.528   4.189   4.120  0.1588 -0.1848 -0.0347
  448MES     CS  448   2.880   2.426   3.742  0.3026  0.0315  0.1102
  449MES     CS  449   3.518   0.948   6.164  0.1622 -0.2091 -0.1913
  450MES     CS  450   3.426   4.549   5.469 -0.4317  0.1026  0.0248
  451MES     CS  451   2.769   5.473   0.504 -0.0792  0.0724  0.1199
  452MES     CS  452   1.781   1.050   4.787  0.2793 -0.1118 -0.0132
  453MES     CS  453   0.894   2.068   3.697  0.0207  0.1048 -0.1017
  454MES     CS  454   2.418   2.186   3.882  0.2048 -0.3855 -0.1320
  455MES     CS  455   5.222   5.754   1.248  0.0014 -0.1336  0.2911
  456MES     CS  456   0.834   3.525   0.439  0.2852  0.1340 -0.0678
  457MES     CS  457   1.651   0.249   5.193  0.0904 -0.0382  0.2192
  458MES     CS  458   5.427   2.974   2.540 -0.1705 -0.0922  0.0605
  459MES     CS  459   0.952   3.144   1.853  0.2873 -0.1174  0.5302
  460MES     CS  460   0.373   0.760   1.020  0.0755  0.2286 -0.0239
  461MES     CS  461   1.039   0.899   3.091 -0.1475 -0.3653  0.0249
  462MES     CS  462   0.374   2.784   0.695  0.0712 -0.0872  0.0363
  463MES     CS  463   1.592   3.110   3.357 -0.3037  0.0451  0.1867
  464MES     CS  464   0.815   6.328   4.218 -0.1147  0.2135 -0.0169
  465MES     CS  465   5.312   2.873   3.631  0.3107  0.0112 -0.0663
  466MES     CS  466   6.212   2.763   4.332  0.0894  0.0562  0.3313
  467MES     CS  467   6.589   2.881   3.873  0.1990 -0.1173 -0.0835
  468MES     CS  468   3.101   6.000   1.817  0.4352 -0.5544  0.2381
  469MES     CS  469   3.348   5.759   0.487 -0.1338 -0.0649 -0.0133
  470MES     CS  470   0.801   3.536   6.600  0.1622 -0.0328  0.1868
  471MES     CS  471   3.673   1.972   1.706 -0.1440  0.0476  0.2693
  472MES     CS  472   5.388   2.907   6.421  0.1251  0.0219 -0.0301
  473MES     CS  473   2.100   5.854   1.050 -0.0637  0.2310  0.1754
  474MES     CS  474   2.448   5.472   5.308 -0.1190 -0.3012  0.1076
  475MES     CS  475   6.115   0.416   4.945 -0.0643  0.1880  0.1543
  476MES     CS  476   4.944   2.117   1.104 -0.1561  0.2226  0.0978
  477MES     CS  477   3.997   0.052   0.237  0.1110  0.0985 -0.1843
  478MES     CS  478   4.648   1.656   6.596 -0.0176 -0.2935  0.2178
  479MES     CS  479   0.007   4.343   5.329 -0.0807  0.0521 -0.0398
  480MES     CS  480   4.391   5.242   0.624  0.1617  0.3566  0.0152
  481MES     CS  481   5.172   5.827   0.580  0.1753  0.3781  0.1219
  482MES     CS  482   5.383   4.751   4.360 -0.1591 -0.1431  0.0059
  483MES     CS  483   6.620   3.046   4.310  0.1537  0.0036 -0.0257
  484MES     CS  484   0.385   4.619   5.426 -0.3058 -0.1343  0.0826
  485MES     CS  485   4.623   2.192   4.991 -0.0145 -0.4242 -0.0469
  486MES     CS  486   3.376   5.976   5.075 -0.0014  0.2314  0.0114
  487MES     CS  487   4.238   2.372   3.081  0.0858 -0.1606  0.3712
  488MES     CS  488   6.408   6.123   3.698  0.2218 -0.1968  0.3176
  489MES     CS  489   2.306   0.054   0.978  0.4386 -0.2992 -0.0557
  490MES     CS  490   2.586   6.483   3.602 -0.1186  0.0247  0.2006
  491MES     CS  491   5.571   6.061   6.001  0.1727 -0.1507 -0.4097
  492MES     CS  492   4.262   5.054   2.043 -0.2111  0.0033 -0.0866
  493MES     CS  493   3.279   6.255   6.288  0.2551  0.1296  0.1103
  494MES     CS  494   3.245   5.135   3.691 -0.1248 -0.1484  0.3174
  495MES     CS  495   5.771   1.007   1.668 -0.0404 -0.1594  0.4045
  496MES     CS  496   3.567   6.147   1.419 -0.1087  0.2258 -0.1190
  497MES     CS  497   3.915   6.146   0.066 -0.5381 -0.1661 -0.1280
  498MES     CS  498   3.938   1.513   5.118 -0.0477  0.2145  0.0316
  499MES     CS  499   3.998   1.401   6.225  0.2994  0.2652 -0.0535
  500MES     CS  500   6.627   2.421   2.858 -0.1570  0.1768 -0.3619
  501MES     CS  501   2.682   3.436   1.431 -0.1496  0.0683  0.0753
  502MES     CS  502   3.229   4.544   4.491 -0.1886 -0.2034 -0.2294
  503MES     CS  503   2.157   2.804   3.937  0.1945  0.4162  0.0824
  504MES     CS  504   2.597   0.910   6.148 -0.2390 -0.0433  0.0449
  505MES     CS  505   4.516   5.070   3.474 -0.1920 -0.0224 -0.1003
  506MES     CS  506   2.995   1.098   3.629 -0.0680 -0.2910  0.1300
  507MES     CS  507   1.641   1.198   1.304 -0.1303 -0.1819  0.1250
  508MES     CS  508   0.077   1.529   0.717 -0.0743  0.0829 -0.0894
  509MES     CS  509   3.639   0.827   1.323 -0.0019 -0.0399 -0.0801
  510MES     CS  510   0.723   0.783   2.334 -0.0808 -0.0045 -0.2451
  511MES     CS  511   1.394   2.292   2.796  0.0171  0.0377  0.3792
  512MES     CS  512   2.719   5.559   3.888  0.4949 -0.0809  0.0919
  513MES     CS  513   3.130   5.866   1.316  0.0614  0.2145 -0.0656
  514MES     CS  514   3.084   4.704   6.571  0.0999 -0.1216 -0.2789
  515MES     CS  515   5.850   3.733   4.717 -0.0304 -0.2342  0.2370
  516MES     CS  516   0.641   3.750   4.986  0.1090 -0.1343  0.2961
  517MES     CS  517   2.578   6.207   3.166  0.0658 -0.0711  0.1235
  518MES     CS  518   6.226   4.960   2.998 -0.0709  0.4424 -0.1588
  519MES     CS  519   6.086   0.016   4.604 -0.1046  0.0998 -0.0077
  520MES     CS  520   1.754   4.377   2.483  0.1867  0.3320 -0.2366
  521MES     CS  521   2.135   1.903   0.567  0.2169 -0.0737 -0.0733
  522MES     CS  522   6.301   2.096   4.214  0.0744 -0.1054  0.0157
  523MES     CS  523   3.477   4.106   4.765  0.0349 -0.2757  0.0656
  524MES     CS  524   2.608   0.509   1.214  0.1806 -0.1219 -0.0369
  525MES     CS  525   5.526   2.463   6.554 -0.0231 -0.2170 -0.0698
  526MES     CS  526   4.420   6.480   1.157 -0.0670 -0.3142 -0.0509
  527MES     CS  527   4.409   1.568   3.600 -0.0974 -0.2040  0.0310
  528MES     CS  528   4.073   2.708   3.470  0.0334  0.1568  0.1293
  529MES     CS  529   5.734   1.172   5.890  0.2968  0.1723  0.0919
  530MES     CS  530   4.267   3.553   5.029  0.0495 -0.0261  0.4882
  531MES     CS  531   2.397   5.864   4.453  0.1247  0.0139 -0.0026
  532MES     CS  532   3.643   4.887   0.418  0.0755  0.0836  0.3340
  533MES     CS  533   1.337   5.424   3.404 -0.2161  0.1828 -0.0645
  534MES     CS  534   5.716   2.512   2.838 -0.2597 -0.1562  0.3158
  535MES     CS  535   6.138   5.380   5.405 -0.1367 -0.0400  0.1858
  536MES     CS  536   0.120   1.888   4.396 -0.0340  0.5266  0.1441
  537MES     CS  537   6.302   5.990   0.266  0.1143  0.0753 -0.1049
  538MES     CS  538   6.450   3.909   4.471  0.1838  0.2180  0.1604
  539MES     CS  539   5.752   1.834   6.166 -0.1058 -0.2637  0.0574
  540MES     CS  540   1.123   0.156   0.708  0.0586 -0.0707 -0.2251
  541MES     CS  541   6.411   2.406   3.711  0.0031  0.1325 -0.2940
  542MES     CS  542   2.828   5.933   4.817 -0.0646 -0.0475 -0.0224
  543MES     CS  543   0.359   1.103   4.982 -0.0032 -0.0646 -0.0286
  544MES     CS  544   0.878   3.865   2.833  0.0590  0.3830  0.2752
  545MES     CS  545   2.765   6.542   2.451 -0.1546  0.0386 -0.1761
  546MES     CS  546   6.322   1.252   2.642 -0.0920 -0.0603 -0.0317
  547MES     CS  547   2.353   5.174   2.087  0.4678  0.1011  0.3453
  548MES     CS  548   1.930   3.183   3.002 -0.0529 -0.0317 -0.0018
  549MES     CS  549   0.556   4.933   3.635 -0.0413 -0.0514  0.1499
  550MES     CS  550   0.629   1.741   0.926 -0.0440 -0.2352  0.1296
  551MES     CS  551   4.629   6.147   5.900 -0.0354  0.1471  0.1218
  552MES     CS  552   4.517   0.942   2.282 -0.1747 -0.1630 -0.1466
  553MES     CS  553   5.929   2.244   6.312 -0.0282  0.0655 -0.1319
  554MES     CS  554   2.581   1.552   2.958  0.0893 -0.0210 -0.0674
  555MES     CS  555   0.479   5.757   4.212 -0.0042 -0.1295  0.0309
  556MES     CS  556   1.139   3.371   1.469  0.0252  0.0612 -0.1467
  557MES     CS  557   0.821   2.166   1.172 -0.1037 -0.1142  0.1554
  558MES     CS  558   0.342   4.462   6.208 -0.1126  0.0769  0.1450
  559MES     CS  559   0.731   6.189   1.630  0.0366 -0.3742 -0.1803
  560MES     CS  560   5.081   1.513   1.789  0.3608  0.3832 -0.2366
  561MES     CS  561   0.616   5.930   5.102  0.0527 -0.0195  0.1240
  562MES     CS  562   1.939   3.199   0.249 -0.0304  0.2518 -0.2441
  563MES     CS  563   2.126   5.254   0.311  0.1435  0.3307 -0.1380
  564MES     CS  564   3.828   0.914   3.252  0.2915  0.3679 -0.0663
  565MES     CS  565   1.242   2.510   1.086 -0.0947  0.2569  0.1634
  566MES     CS  566   0.929   2.698   4.557 -0.1199 -0.1293  0.3804
  567MES     CS  567   0.589   1.881   1.487 -0.2539  0.1123  0.2157
  568MES     CS  568   1.473   5.551   5.356  0.1204  0.1006 -0.1956
  569MES     CS  569   4.102   3.094   4.343 -0.2991 -0.0786  0.2983
  570MES     CS  570   4.017   3.591   0.409  0.1381  0.2928  0.3503
  571MES     CS  571   4.140   0.672   1.222  0.1002  0.0726  0.2151
  572MES     CS  572   5.762   3.448   1.476 -0.0983  0.2692 -0.2120
  573MES     CS  573   2.369   0.068   1.691  0.1422 -0.0240  0.1901
  574MES     CS  574   5.919   5.715   0.079 -0.2457  0.0468 -0.1489
  575MES     CS  575   3.515   2.136   6.328  0.0300 -0.0006  0.3268
  576MES     CS  576   3.214   2.521   6.383 -0.0350 -0.1417 -0.3320
  577MES     CS  577   3.565   0.194   0.684 -0.0246  0.2198 -0.1130
  578MES     CS  578   4.504   3.611   3.295 -0.1817  0.2271  0.2507
  579MES     CS  579   3.506   5.027   6.391 -0.1062  0.1462 -0.1748
  580MES     CS  580   0.066   0.929   3.435  0.0442  0.1611 -0.0754
  581MES     CS  581   5.271   5.023   0.948  0.1364  0.0090 -0.2042
  582MES     CS  582   4.956   5.377   0.804  0.1234  0.3413  0.1373
  583MES     CS  583   5.918   5.430   3.978 -0.1152  0.1107  0.2775
  584MES     CS  584   5.805   4.591   4.032 -0.3331 -0.0612  0.1756
  585MES     CS  585   1.702   4.594   3.722  0.3264  0.2177  0.3557
  586MES     CS  586   1.494   3.053   5.911  0.1478 -0.1004 -0.0058
  587MES     CS  587   0.827   4.787   4.107  0.0136 -0.2382  0.2458
  588MES     CS  588   1.209   1.330   5.508 -0.1481 -0.1021 -0.3243
  589MES     CS  589   6.234   1.721   1.868  0.4622 -0.0803 -0.1628
  590MES     CS  590   2.868   1.313   1.298 -0.0875 -0.1508  0.0614
  591MES     CS  591   0.484   4.869   1.082  0.2339  0.3594 -0.0386
  592MES     CS  592   0.235   1.473   1.229  0.1277 -0.1928 -0.0808
  593MES     CS  593   4.158   3.244   6.470  0.0870  0.1393 -0.2896
  594MES     CS  594   2.937   0.523   3.039 -0.0575 -0.3046 -0.1616
  595MES     CS  595   0.545   0.445   2.806  0.2153  0.0220  0.0290
  596MES     CS  596   6.226   5.095   4.912 -0.0007 -0.0357 -0.2020
  597MES     CS  597   3.846   4.849   0.875  0.0394 -0.0992 -0.3213
  598MES     CS  598   0.958   4.614   4.597  0.2130  0.2245 -0.1195
  599MES     CS  599   5.829   3.356   5.536 -0.0686 -0.1187  0.1534
  600MES     CS  600   2.975   2.954   0.341  0.1334 -0.0765 -0.1047
  601MES     CS  601   6.182   0.432   4.121 -0.3033 -0.0521  0.3462
  602MES     CS  602   5.379   2.303   0.873 -0.0686  0.1664 -0.0047
  603MES     CS  603   2.071   3.022   5.810 -0.2845 -0.0131 -0.0234
  604MES     CS  604   1.701   1.558   6.003  0.0288  0.0439  0.1981
  605MES     CS  605   1.502   5.136   2.823  0.1052  0.1919 -0.0956
  606MES     CS  606   1.768   2.520   2.425  0.0674  0.1488 -0.0492
  607MES     CS  607   1.098   5.827   6.093 -0.0422  0.1108 -0.1044
  608MES     CS  608   4.474   0.090   3.071  0.2118 -0.0384 -0.2060
  609MES     CS  609   1.291   4.306   0.178  0.0988  0.0509  0.0798
  610MES     CS  610   3.133   3.737   4.059 -0.2655 -0.2306  0.0732
  611MES     CS  611   4.887   5.061   5.162  0.2544 -0.0760 -0.0089
  612MES     CS  612   2.766   3.800   0.990  0.1621  0.0140  0.0702
  613MES     CS  613   1.304   3.672   2.635 -0.1640  0.3414  0.0598
  614MES     CS  614   1.325   5.538   0.559 -0.1391 -0.1393  0.0069
  615MES     CS  615   3.863   3.026   3.871 -0.1118 -0.0512  0.3137
  616MES     CS  616   1.860   4.172   1.417 -0.0636 -0.0383  0.0349
  617MES     CS  617   4.892   5.419   1.338  0.0939 -0.1295 -0.0932
  618MES     CS  618   4.293   5.187   2.549  0.3597 -0.1907  0.2198
  619MES     CS  619   5.901   1.932   4.655 -0.0543  0.1098  0.1725
  620MES     CS  620   1.246   2.825   4.148 -0.3133  0.0204 -0.2273
  621MES     CS  621   5.692   0.599   2.836  0.1134 -0.1250 -0.1396
  622MES     CS  622   0.512   3.230   5.210  0.0325  0.0933  0.3486
  623MES     CS  623   4.337   4.487   1.249  0.3281  0.0623 -0.1411
  624MES     CS  624   3.827   5.475   3.342  0.0281 -0.0978 -0.1032
  625MES     CS  625   2.460   0.984   1.341  0.0112  0.0539  0.2935
  626MES     CS  626   4.363   3.155   5.966  0.4054 -0.1203 -0.0100
  627MES     CS  627   1.181   5.846   5.050  0.1270 -0.2984 -0.0682
  628MES     CS  628   1.382   3.998   1.346 -0.0623  0.0245 -0.1567
  629MES     CS  629   4.188   1.255   2.078 -0.0589 -0.0259 -0.2418
  630MES     CS  630   1.327   2.337   5.898  0.0777 -0.0908 -0.0530
  631MES     CS  631   5.810   3.078   0.596 -0.3507  0.4855  0.0066
  632MES     CS  632   4.977   0.398   2.382 -0.1473  0.1551 -0.2165
  633MES     CS  633   2.011   2.878   3.440  0.1474 -0.1336  0.1502
  634MES     CS  634   2.865   1.070   1.802  0.2023  0.0680 -0.3595
  635MES     CS  635   0.248   5.880   4.701  0.1513  0.1426  0.1267
  636MES     CS  636   1.688   5.408   5.966  0.2062 -0.2519  0.1664
  637MES     CS  637   1.058   4.291   4.138  0.1538  0.0899  0.0251
  638MES     CS  638   6.524   0.755   4.156  0.0501 -0.0970  0.1180
  639MES     CS  639   5.732   5.291   4.797 -0.0618  0.1125  0.1010
  640MES     CS  640   0.406   6.352   4.587  0.0773 -0.1850  0.3508
  641MES     CS  641   5.209   5.535   2.781  0.1833 -0.2570  0.1477
  642MES     CS  642   6.528   5.168   6.357  0.3668  0.1184  0.2130
  643MES     CS  643   2.971   4.415   3.373  0.0944  0.0449 -0.0891
  644MES     CS  644   2.814   6.038   0.496 -0.3229 -0.0078  0.0581
  645MES     CS  645   3.089   5.400   2.007 -0.1378  0.3493 -0.3710
  646MES     CS  646   1.617   3.555   1.642 -0.0742 -0.0969  0.1822
  647MES     CS  647   2.013   1.277   5.265 -0.0724 -0.3012  0.3116
  648MES     CS  648   0.735   2.548   5.608 -0.0285  0.1533  0.0250
  649MES     CS  649   3.679   4.340   0.392  0.1497  0.1858 -0.1486
  650MES     CS  650   6.130   1.322   0.032  0.0511 -0.0551 -0.2865
  651MES     CS  651   2.702   5.033   2.854  0.0424  0.0202  0.0699
  652MES     CS  652   1.202   2.568   1.710 -0.2531 -0.1245 -0.1100
  653MES     CS  653   4.607   6.448   3.564 -0.3075  0.0149 -0.1945
  654MES     CS  654   3.157   4.642   3.843 -0.3637 -0.0186 -0.0744
  655MES     CS  655   0.410   2.090   4.811 -0.1131 -0.2246  0.2468
  656MES     CS  656   0.705   1.327   4.044 -0.1258 -0.0053  0.0171
  657MES     CS  657   3.059   0.985   0.506 -0.3735 -0.1721 -0.0463
  658MES     CS  658   1.322   3.185   1.078 -0.1589  0.2299  0.0190
  659MES     CS  659   1.870   0.711   4.389 -0.1678 -0.3759  0.0959
  660MES     CS  660   3.900   1.441   0.079 -0.2404 -0.0346 -0.1384
  661MES     CS  661   4.173   1.705   4.217 -0.0466  0.2085  0.4019
  662MES     CS  662   0.268   0.054   1.938  0.2275  0.2783  0.1759
  663MES     CS  663   1.375   0.953   2.336 -0.1928  0.1179 -0.0460
  664MES     CS  664   1.713   6.086   5.190  0.1515  0.0870 -0.0555
  665MES     CS  665   0.102   3.914   5.773  0.1519 -0.2706 -0.0308
  666MES     CS  666   3.141   1.869   4.220 -0.0615 -0.0870  0.2906
  667MES     CS  667   4.950   2.194   2.166  0.0715 -0.1243 -0.1573
  668MES     CS  668   5.508   5.313   0.176 -0.1039  0.0261  0.1095
  669MES     CS  669   3.169   2.684   2.284  0.2405 -0.3109 -0.1952
  670MES     CS  670   3.455   2.814   1.464  0.1731 -0.0746 -0.2313
  671MES     CS  671   6.267   0.361   3.130  0.1001 -0.1966  0.0143
  672MES     CS  672   2.268   3.636   6.030 -0.1216 -0.0478  0.0471
  673MES     CS  673   4.712   4.845   4.404 -0.1026  0.1284  0.3072
  674MES     CS  674   1.515   3.287   2.297 -0.0182 -0.0783 -0.1277
  675MES     CS  675   3.544   1.254   3.457 -0.0421  0.1476 -0.1602
  676MES     CS  676   4.052   1.135   0.550  0.2046 -0.0257  0.1744
  677MES     CS  677   3.310   0.344   1.287  0.3083  0.1492  0.0684
  678MES     CS  678   2.141   0.647   6.248 -0.0333 -0.0889  0.0361
  679MES     CS  679   6.203   2.791   0.825  0.1655  0.1115  0.3128
  680MES     CS  680   2.248   0.397   0.122  0.1793  0.0979  0.0556
  681MES     CS  681   2.766   0.966   3.176 -0.2334 -0.0272 -0.0119
  682MES     CS  682   1.839   1.078   0.817 -0.1940  0.0787 -0.1265
  683MES     CS  683   1.489   4.483   1.162 -0.0555 -0.1581 -0.0535
  684MES     CS  684   2.095   3.995   6.637  0.0661  0.1738  0.0475
  685MES     CS  685   4.080   2.636   2.569  0.0551 -0.0346  0.2351
  686MES     CS  686   4.137   5.167   3.782 -0.1239  0.1705 -0.0456
  687MES     CS  687   3.407   2.975   5.456 -0.2549  0.1136 -0.0907
  688MES     CS  688   4.168   5.573   1.787 -0.2228  0.4289 -0.0261
  689MES     CS  689   5.826   6.569   6.056  0.0104 -0.0872  0.1258
  690MES     CS  690   0.131   2.937   2.897 -0.2014 -0.1210 -0.0129
  691MES     CS  691   0.959   0.319   1.600 -0.2119  0.0501 -0.0358
  692MES     CS  692   3.031   2.052   0.131  0.0322  0.0396  0.1723
  693MES     CS  693   1.646   4.089   5.707 -0.0260  0.0710 -0.1036
  694MES     CS  694   4.885   1.357   1.331  0.0475  0.1514  0.0189
  695MES     CS  695   5.273   1.803   1.469 -0.2853  0.0307  0.1405
  696MES     CS  696   5.699   2.549   6.031  0.2094  0.4115 -0.0264
  697MES     CS  697   0.153   4.056   0.912  0.1169 -0.1576 -0.1132
  698MES     CS  698   1.161   3.171   0.605 -0.0872 -0.0501 -0.0253
  699MES     CS  699   1.267   2.800   5.569  0.2026  0.1839 -0.3126
  700MES     CS  700   3.717   1.441   1.329 -0.0341  0.2933 -0.1397
  701MES     CS  701   1.511   2.187   1.420  0.1751 -0.5249  0.1579
  702MES     CS  702   6.316   0.944   4.632 -0.1832 -0.1134 -0.0253
  703MES     CS  703   4.794   1.871   2.549  0.1104 -0.1156  0.0706
  704MES     CS  704   5.689   4.518   5.383  0.1760 -0.2621 -0.0701
  705MES     CS  705   4.555   3.962   4.236  0.2426  0.2408 -0.2043
  706MES     CS  706   5.706   4.423   6.531  0.2817 -0.0359  0.1941
  707MES     CS  707   4.882   1.334   6.239 -0.2543 -0.2434  0.0938
  708MES     CS  708   2.509   3.462   5.488 -0.0572  0.1141  0.0144
  709MES     CS  709   2.110   2.653   0.081 -0.1151 -0.3984 -0.0014
  710MES     CS  710   3.143   3.138   4.650  0.0748 -0.2928  0.1472
  711MES     CS  711   5.877   2.622   3.294  0.1624 -0.0788  0.1918
  712MES     CS  712   1.938   2.407   4.254  0.0086  0.3819  0.0497
  713MES     CS  713   4.454   0.311   2.525 -0.0258  0.1059 -0.2927
  714MES     CS  714   2.677   1.940   0.748 -0.0472  0.0149 -0.2068
  715MES     CS  715   1.642   2.478   6.543  0.2049  0.2029 -0.1809
  716MES     CS  716   3.691   0.457   5.545  0.1573 -0.0793  0.3011
  717MES     CS  717   4.128   1.144   1.571 -0.2992 -0.0972 -0.3205
  718MES     CS  718   4.474   0.566   6.560 -0.0225 -0.4642  0.2173
  719MES     CS  719   3.520   1.163   0.517 -0.0522 -0.0535  0.2660
  720MES     CS  720   0.108   1.649   3.168  0.0532  0.0807  0.1130
  721MES     CS  721   1.282   2.611   2.215 -0.0991 -0.0786  0.0394
  722MES     CS  722   4.793   3.019   0.470 -0.0549  0.1014 -0.1446
  723MES     CS  723   5.447   5.839   2.111 -0.0116 -0.1144  0.0462
  724MES     CS  724   4.107   5.427   4.709 -0.2714 -0.1127 -0.0568
  725MES     CS  725   3.936   4.968   4.824 -0.3480 -0.0613  0.0800
  726MES     CS  726   3.272   1.499   5.205  0.0071  0.1624  0.0001
  727MES     CS  727   5.890   2.821   6.420 -0.3483  0.2667  0.1250
  728MES     CS  728   5.965   2.042   0.147  0.0978  0.1551  0.0158
  729MES     CS  729   4.478   0.394   1.024  0.0665  0.0961 -0.0459
  730MES     CS  730   1.915   5.181   4.169 -0.1082 -0.0025 -0.0711
  731MES     CS  731   0.314   5.671   3.496 -0.2599  0.1333  0.3420
  732MES     CS  732   1.533   3.976   0.602  0.0206 -0.1274  0.0110
  733MES     CS  733   5.809   4.924   1.294  0.0658 -0.1657 -0.3471
  734MES     CS  734   5.403   4.805   6.606 -0.2750 -0.2007  0.2260
  735MES     CS  735   0.568   3.996   6.577 -0.0481 -0.2235 -0.0273
  736MES     CS  736   4.534   1.117   3.310  0.1226 -0.0954  0.1040
  737MES     CS  737   6.304   3.793   2.793  0.0918  0.0274  0.1297
  738MES     CS  738   6.250   0.883   3.159 -0.0063 -0.2057 -0.0404
  739MES     CS  739   5.359   1.427   1.094  0.0501 -0.0657  0.3646
  740MES     CS  740   1.188   4.302   2.628  0.0533  0.1342 -0.1423
  741MES     CS  741   5.441   1.192   2.042 -0.2106  0.0366 -0.3257
  742MES     CS  742   5.702   3.440   3.843 -0.0130  0.3269 -0.0546
  743MES     CS  743   0.982   5.012   2.445  0.2260 -0.0908 -0.2639
  744MES     CS  744   3.551   0.643   4.281 -0.1959  0.0711 -0.1967
  745MES     CS  745   2.798   5.586   1.570  0.1879  0.0624  0.0209
  746MES     CS  746   5.008   6.563   1.173 -0.1522  0.0434 -0.2156
  747MES     CS  747   1.128   3.074   3.604  0.2994  0.0292 -0.1233
  748MES     CS  748   3.253   4.875   0.896 -0.1157  0.0447  0.1969
  749MES     CS  749   2.658   2.736   5.807 -0.1914  0.0745 -0.0196
  750MES     CS  750   0.754   1.791   2.560 -0.3267  0.0339  0.2035
  751MES     CS  751   3.747   3.845   0.737 -0.0363  0.1267 -0.2234
  752MES     CS  752   4.447   4.714   6.329 -0.0661  0.0125 -0.1134
  753MES     CS  753   5.010   3.618   4.387 -0.0981 -0.1900 -0.1814
  754MES     CS  754   4.389   2.743   2.197 -0.0196 -0.2696  0.0203
  755MES     CS  755   4.412   0.330   1.525  0.0476  0.3916  0.0707
  756MES     CS  756   2.136   1.945   4.458 -0.1019  0.1072  0.1452
  757MES     CS  757   3.732   5.320   2.099  0.0769  0.0260 -0.2862
  758MES     CS  758   6.216   2.375   0.519 -0.2592 -0.4376  0.0826
  759MES     CS  759   1.494   6.441   3.135 -0.0524  0.1847  0.1699
  760MES     CS  760   1.063   3.056   2.324 -0.3498 -0.0848 -0.2493
  761MES     CS  761   2.470   2.101   1.791  0.1394  0.0499  0.1784
  762MES     CS  762   0.963   3.208   6.273 -0.0789  0.2448 -0.1954
  763MES     CS  763   4.688   0.336   2.008 -0.3411 -0.2177 -0.1636
  764MES     CS  764   4.842   6.017   1.487  0.0191 -0.5085  0.0276
  765MES     CS  765   4.193   3.503   1.549 -0.0704 -0.1621  0.0761
  766MES     CS  766   6.187   1.098   4.171  0.0887 -0.0774  0.0609
  767MES     CS  767   3.014   2.620   1.358  0.0276  0.1278  0.0524
  768MES     CS  768   4.881   6.082   0.954  0.0372  0.0244  0.2421
  769MES     CS  769   5.702   0.449   1.752 -0.0374 -0.2135  0.1205
  770MES     CS  770   2.361   2.733   2.996 -0.0724  0.1720 -0.1731
  771MES     CS  771   0.798   3.175   0.873  0.1698 -0.3017  0.1889
  772MES     CS  772   5.251   0.168   0.408  0.0528  0.1259 -0.0496
  773MES     CS  773   4.689   3.872   4.739  0.1884 -0.0346 -0.1080
  774MES     CS  774   1.175   5.080   5.541 -0.1653 -0.0318  0.1493
  775MES     CS  775   2.566   5.691   2.966  0.0699  0.0524  0.0405
  776MES     CS  776   3.971   4.318   0.992  0.0849 -0.2059 -0.0562
  777MES     CS  777   3.904   0.448   6.482  0.2566 -0.1092 -0.1529
  778MES     CS  778   1.381   4.153   4.787 -0.0720  0.0913  0.1137
  779MES     CS  779   4.057   4.160   1.463 -0.1515  0.1073 -0.4800
  780MES     CS  780   2.959   2.296   5.250  0.4550  0.4926 -0.0070
  781MES     CS  781   2.713   6.617   4.917 -0.0419 -0.1742  0.0627
  782MES     CS  782   1.003   0.137   6.145 -0.4392 -0.0404 -0.0212
  783MES     CS  783   4.414   5.956   6.495  0.4465  0.2496  0.5130
  784MES     CS  784   1.470   5.160   5.087  0.0968 -0.1609 -0.0763
  785MES     CS  785   0.318   2.458   5.897 -0.1224 -0.3686 -0.2286
  786MES     CS  786   2.290   5.800   3.636 -0.0109 -0.0823  0.2692
  787MES     CS  787   3.522   6.528   2.499  0.0971  0.2174 -0.3354
  788MES     CS  788   5.013   2.194   0.551 -0.0261  0.0217  0.0239
  789MES     CS  789   5.385   6.336   1.036 -0.0637  0.0121 -0.0211
  790MES     CS  790   0.929   4.290   1.405 -0.1058 -0.4808  0.2942
  791MES     CS  791   4.144   4.324   2.705  0.2567 -0.0768  0.2269
  792MES     CS  792   4.456   1.717   6.085  0.0127  0.0593 -0.3753
  793MES     CS  793   2.584   4.037   0.616 -0.0826 -0.0060  0.3786
  794MES     CS  794   6.174   3.098   3.933 -0.0485 -0.1396  0.1178
  795MES     CS  795   5.581   5.617   3.638  0.2050  0.0466 -0.1968
  796MES     CS  796   2.146   5.907   5.409  0.1370 -0.0440  0.0596
  797MES     CS  797   1.097   0.961   5.805  0.3410  0.0806 -0.0577
  798MES     CS  798   2.665   1.959   1.335  0.0142 -0.0135  0.2945
  799MES     CS  799   1.349   3.604   3.599 -0.0721  0.1925 -0.0000
  800MES     CS  800   3.222   0.500   3.504 -0.0507  0.0447  0.2008
  801MES     CS  801   4.074   4.715   0.348  0.2188 -0.2048 -0.1144
  802MES     CS  802   2.779   1.791   3.338 -0.0480 -0.0882  0.2877
  803MES     CS  803   6.607   0.827   5.049  0.0271  0.1435  0.0240
  804MES     CS  804   1.972   5.703   0.003  0.1078  0.0878 -0.1269
  805MES     CS  805   1.084   5.516   2.970  0.3260  0.2751  0.0852
  806MES     CS  806   1.361   2.994   4.746  0.0271  0.3577  0.4770
  807MES     CS  807   1.030   3.646   1.093  0.0378  0.0730  0.0633
  808MES     CS  808   5.292   3.618   2.424 -0.1754 -0.1094 -0.0082
  809MES     CS  809   3.917   6.074   2.176  0.0041 -0.3668 -0.0052
  810MES     CS  810   3.102   5.141   0.495 -0.0206 -0.0013 -0.0481
  811MES     CS  811   5.393   4.905   0.439 -0.0119  0.1965 -0.1866
  812MES     CS  812   0.269   6.360   2.844 -0.2455  0.2260  0.2601
  813MES     CS  813   4.698   3.393   6.303 -0.3761 -0.1996 -0.0477
  814MES     CS  814   3.010   4.123   2.956 -0.1225  0.1173 -0.0707
  815MES     CS  815   1.123   3.365   5.757  0.0604  0.1327  0.0331
  816MES     CS  816   5.600   2.076   5.670  0.1673  0.1013  0.0911
  817MES     CS  817   0.434   2.924   4.037 -0.0218  0.0049  0.3735
  818MES     CS  818   3.873   4.160   3.859 -0.1179 -0.0051  0.4999
  819MES     CS  819   6.577   5.022   4.544 -0.1227  0.3687  0.1925
  820MES     CS  820   0.132   3.511   4.346  0.3858 -0.1063 -0.0259
  821MES     CS  821   5.862   2.098   3.742  0.0511 -0.0858  0.2061
  822MES     CS  822   3.444   3.613   2.633 -0.2088  0.0414  0.1021
  823MES     CS  823   1.232   6.061   1.864  0.1373 -0.0057  0.3027
  824MES     CS  824   3.404   2.747   3.454  0.0409  0.0301 -0.2092
  825MES     CS  825   2.834   3.160   5.014 -0.0097  0.2006 -0.2169
  826MES     CS  826   4.858   6.218   5.213  0.0370  0.2391 -0.0361
  827MES     CS  827   0.350   0.908   2.589  0.0897  0.1450 -0.1851
  828MES     CS  828   5.258   3.559   5.236  0.2550 -0.0691 -0.2942
  829MES     CS  829   1.943   2.483   0.581  0.1862  0.0027  0.1165
  830MES     CS  830   5.065   2.080   2.982 -0.0295 -0.2982 -0.0179
  831MES     CS  831   5.692   1.962   1.125 -0.0626  0.1211  0.1584
  832MES     CS  832   1.044   3.727   4.343  0.0518 -0.2718 -0.1072
  833MES     CS  833   5.315   3.664   1.371 -0.0081 -0.1612 -0.0860
  834MES     CS  834   6.048   5.306   3.390 -0.1221  0.0466  0.0133
  835MES     CS  835   0.616   2.670   4.981  0.1249 -0.0557  0.4567
  836MES     CS  836   1.973   1.156   2.271  0.1479  0.4759 -0.0068
  837MES     CS  837   6.467   2.011   0.200 -0.0117  0.2947 -0.1483
  838MES     CS  838   1.765   1.173   6.529  0.0643  0.2238 -0.1466
  839MES     CS  839   3.381   6.596   5.939  0.1312 -0.2528  0.1137
  840MES     CS  840   6.615   2.518   4.178 -0.3852 -0.1385 -0.0105
  841MES     CS  841   5.877   4.625   3.065  0.0020  0.1931  0.0705
  842MES     CS  842   2.245   1.980   1.107 -0.2544  0.1326 -0.2886
  843MES     CS  843   4.813   1.387   5.665 -0.0056  0.1702  0.1408
  844MES     CS  844   1.745   2.876   4.318 -0.2143  0.1856  0.3897
  845MES     CS  845   0.412   3.161   1.148  0.0671 -0.1777 -0.0163
  846MES     CS  846   2.270   1.787   3.557  0.0648 -0.3041 -0.2097
  847MES     CS  847   3.967   0.325   3.397  0.2027  0.1220  0.0739
  848MES     CS  848   3.240   3.590   6.524  0.1832 -0.0481  0.0812
  849MES     CS  849   1.779   2.161   4.719  0.2733  0.0655 -0.1155
  850MES     CS  850   3.129   4.185   5.433  0.1664 -0.1300  0.1661
  851MES     CS  851   4.920   2.768   5.815 -0.0711 -0.3144 -0.1861
  852MES     CS  852   4.992   4.515   0.260 -0.1122  0.1748 -0.0675
  853MES     CS  853   6.340   3.740   0.195  0.1719  0.0698  0.1200
  854MES     CS  854   2.089   6.646   3.641  0.2362 -0.0201  0.1908
  855MES     CS  855   5.942   6.245   3.537  0.0153 -0.0860  0.2085
  856MES     CS  856   5.991   1.063   1.100 -0.2588 -0.1842 -0.0225
  857MES     CS  857   6.542   1.989   2.384  0.0098  0.2804  0.2234
  858MES     CS  858   0.297   1.023   1.961  0.0901 -0.0459 -0.0521
  859MES     CS  859   3.000   1.819   4.919 -0.0785  0.1854 -0.0422
  860MES     CS  860   2.744   4.645   4.281  0.1963 -0.0566  0.1789
  861MES     CS  861   3.733   6.368   4.275  0.1130  0.1553  0.1060
  862MES     CS  862   1.493   4.771   5.978  0.2386  0.0872 -0.0629
  863MES     CS  863   4.053   4.942   6.545 -0.2935 -0.1983  0.1317
  864MES     CS  864   2.034   2.167   1.556 -0.0225  0.1082  0.0798
  865MES     CS  865   0.530   3.579   0.871  0.1544  0.0643 -0.0111
  866MES     CS  866   1.278   1.138   0.881 -0.1566  0.1586  0.1063
  867MES     CS  867   3.757   3.327   3.431  0.0623 -0.1576  0.2743
  868MES     CS  868   6.294   1.596   4.026  0.1777 -0.1073  0.3058
  869MES     CS  869   3.562   5.960   4.035  0.0847  0.2413  0.1432
  870MES     CS  870   3.689   0.261   5.082  0.0165 -0.1444  0.1839
  871MES     CS  871   5.816   6.242   6.391 -0.3441 -0.0901  0.2478
  872MES     CS  872   6.123   0.070   2.339  0.0551 -0.2425  0.0486
  873MES     CS  873   5.332   1.838   5.001  0.0220 -0.1122  0.1016
  874MES     CS  874   3.748   3.733   5.063  0.0590 -0.1032 -0.0633
  875MES     CS  875   4.217   4.523   1.957 -0.2704  0.0238 -0.0638
  876MES     CS  876   2.725   1.528   6.491  0.1898  0.0048 -0.0755
  877MES     CS  877   2.521   0.340   6.271 -0.0244  0.2410  0.1093
  878MES     CS  878   1.988   3.784   5.589  0.0478 -0.1442  0.0797
  879MES     CS  879   3.559   2.024   0.513 -0.1031 -0.0428  0.1242
  880MES     CS  880   5.429   2.034   0.317 -0.2758 -0.2140 -0.2523
  881MES     CS  881   4.010   1.016   5.525 -0.0441  0.0240 -0.0083
  882MES     CS  882   2.296   4.564   6.363  0.0060 -0.1851  0.2866
  883MES     CS  883   1.145   0.812   4.571 -0.1402  0.1958  0.1570
  884MES     CS  884   4.495   0.895   5.554  0.0905  0.3503  0.0262
  885MES     CS  885   3.261   0.718   0.879  0.3824  0.0487 -0.0634
  886MES     CS  886   6.612   4.875   3.529 -0.0751  0.0804  0.3182
  887MES     CS  887   2.311   5.323   2.662 -0.2810  0.0941  0.3020
  888MES     CS  888   5.378   4.232   4.563 -0.1330 -0.0645 -0.4379
  889MES     CS  889   4.785   4.171   6.584 -0.0110 -0.1686 -0.0655
  890MES     CS  890   1.900   0.746   5.296  0.0981 -0.0029  0.1078
  891MES     CS  891   6.507   5.507   3.683 -0.1302  0.1750  0.4923
  892MES     CS  892   4.898   1.591   5.213 -0.0482 -0.1944 -0.1149
  893MES     CS  893   2.391   0.900   3.542 -0.1949  0.0359 -0.2102
  894MES     CS  894   3.940   4.239   2.248 -0.1666  0.0516 -0.2591
  895MES     CS  895   1.814   4.042   3.582  0.0234  0.1165  0.0988
  896MES     CS  896   4.914   4.885   6.561  0.0646  0.4278 -0.0291
  897MES     CS  897   1.611   0.482   1.594  0.4129 -0.0041  0.0125
  898MES     CS  898   1.525   0.994   0.433 -0.1686 -0.0620 -0.1934
  899MES     CS  899   0.439   5.677   0.719 -0.0822 -0.0705 -0.1320
  900MES     CS  900   4.209   0.363   5.523 -0.4013 -0.1637  0.1890
  901MES     CS  901   3.821   2.000   4.711  0.0342 -0.2419  0.1957
  902MES     CS  902   4.221   3.873   0.993  0.4742  0.4458  0.1469
  903MES     CS  903   0.365   4.293   2.723 -0.1676 -0.0310 -0.1719
  904MES     CS  904   4.362   2.146   2.006  0.0356 -0.1597 -0.1422
  905MES     CS  905   5.188   6.382   1.689 -0.0879 -0.1996  0.0003
  906MES     CS  906   0.483   2.025   3.353 -0.0630  0.3786 -0.2105
  907MES     CS  907   5.810   0.103   3.428  0.0181 -0.0784  0.0527
  908MES     CS  908   4.010   1.799   5.692  0.0352 -0.2531 -0.3024
  909MES     CS  909   2.388   4.788   2.373 -0.1031  0.0159  0.2441
  910MES     CS  910   2.701   6.321   4.445 -0.2865 -0.1127 -0.2918
  911MES     CS  911   0.185   6.531   3.600  0.0151  0.1978  0.0796
  912MES     CS  912   4.089   0.390   2.903  0.0608  0.1312  0.0668
  913MES     CS  913   6.181   3.627   2.271  0.1483 -0.1401  0.2475
  914MES     CS  914   0.790   2.344   2.840 -0.0882 -0.0563 -0.2291
  915MES     CS  915   2.128   1.724   2.715  0.0592  0.0594 -0.1144
  916MES     CS  916   6.360   5.655   1.854 -0.2068 -0.0512 -0.1348
  917MES     CS  917   0.839   4.240   1.869  0.2187  0.0769 -0.5053
  918MES     CS  918   3.944   5.957   3.632  0.0621 -0.1176 -0.0843
  919MES     CS  919   4.644   3.233   3.004 -0.0006 -0.0092  0.3084
  920MES     CS  920   0.607   6.440   0.308  0.2338  0.2986 -0.1978
  921MES     CS  921   4.004   3.828   3.453 -0.1345 -0.1076 -0.1177
  922MES     CS  922   4.591   1.191   1.772 -0.0101 -0.2746 -0.0090
  923MES     CS  923   2.803   0.488   0.698  0.0776 -0.2355  0.3615
  924MES     CS  924   0.999   0.271   4.076  0.6018  0.0559  0.1204
  925MES     CS  925   4.598   2.833   3.398 -0.0295 -0.1602 -0.1873
  926MES     CS  926   0.778   2.414   1.583 -0.0139 -0.3255  0.0427
  927MES     CS  927   3.580   4.048   1.264 -0.0584  0.2417  0.1625
  928MES     CS  928   3.665   4.066   3.247 -0.0648 -0.1030 -0.0947
  929MES     CS  929   2.669   4.522   3.805 -0.0122 -0.0002 -0.1572
  930MES     CS  930   4.918   1.457   3.681 -0.1566 -0.1937 -0.0071
  931MES     CS  931   3.189   3.789   3.365 -0.0500  0.0699 -0.2713
  932MES     CS  932   0.105   2.940   5.908 -0.0670 -0.1625  0.2048
  933MES     CS  933   5.251   0.392   4.486  0.0544 -0.1932 -0.3064
  934MES     CS  934   5.270   0.673   1.909 -0.2201 -0.2762 -0.1228
  935MES     CS  935   2.840   0.097   1.045  0.1195 -0.1245  0.2191
  936MES     CS  936   6.398   1.330   4.967 -0.1796  0.0063 -0.0933
  937MES     CS  937   2.623   0.936   0.841 -0.0238 -0.1286  0.0809
  938MES     CS  938   4.606   3.679   5.866  0.1505  0.0749  0.4066
  939MES     CS  939   1.938   6.026   4.449 -0.1841  0.0057  0.0911
  940MES     CS  940   1.094   0.604   2.675  0.1269  0.2121  0.1473
  941MES     CS  941   5.235   2.622   4.324 -0.3090  0.0612  0.0298
  942MES     CS  942   3.357   4.216   6.610  0.2668  0.1398 -0.1153
  943MES     CS  943   5.225   5.397   6.095 -0.1344  0.1685 -0.0260
  944MES     CS  944   0.677   0.721   4.710  0.2208 -0.1336  0.0930
  945MES     CS  945   5.895   1.538   3.392  0.1247  0.2239 -0.0407
  946MES     CS  946   0.132   4.204   0.085 -0.1086  0.3733  0.2710
  947MES     CS  947   1.742   0.779   2.005 -0.0552 -0.1916  0.1266
  948MES     CS  948   3.998   3.633   2.468 -0.1125  0.0639 -0.1025
  949MES     CS  949   2.812   0.015   3.186 -0.1863  0.1293  0.0559
  950MES     CS  950   0.115   0.574   0.046 -0.1776  0.0728 -0.2128
  951MES     CS  951   3.767   3.041   6.141 -0.2204 -0.1799  0.0705
  952MES     CS  952   5.715   0.338   2.210 -0.0807  0.1746  0.2084
  953MES     CS  953   3.851   0.431   1.650 -0.3303 -0.1290  0.1429
  954MES     CS  954   2.168   0.343   4.109  0.2547 -0.0224  0.0883
  955MES     CS  955   3.360   0.721   5.149 -0.2206 -0.0764 -0.1897
  956MES     CS  956   5.149   2.623   1.256  0.1227 -0.1272  0.2033
  957MES     CS  957   5.428   1.034   0.065  0.0503  0.2247  0.0355
  958MES     CS  958   4.873   4.717   4.837  0.1689 -0.0092 -0.0632
  959MES     CS  959   1.061   6.100   2.931  0.1230  0.2558 -0.0086
  960MES     CS  960   4.895   3.266   5.616 -0.1044 -0.1595 -0.1939
  961MES     CS  961   5.881   6.394   0.972  0.1530  0.0009  0.0784
  962MES     CS  962   4.785   2.704   1.801  0.0215 -0.1418 -0.2806
  963MES     CS  963   3.016   1.751   2.584  0.0233 -0.0012 -0.2243
  964MES     CS  964   5.128   0.567   0.062 -0.0240 -0.1210  0.0026
  965MES     CS  965   1.593   6.594   4.086 -0.1991 -0.0665  0.1557
  966MES     CS  966   2.428   2.970   1.247 -0.0926  0.1441 -0.0914
  967MES     CS  967   4.155   6.445   6.131 -0.1762  0.2052  0.1156
  968MES     CS  968   0.049   3.897   2.999  0.0214  0.0251 -0.0792
  969MES     CS  969   4.692   3.786   1.696 -0.2938  0.2437 -0.1048
  970MES     CS  970   6.029   5.820   6.127  0.0303 -0.1025  0.0154
  971MES     CS  971   0.771   3.515   2.158  0.2673 -0.0333  0.1099
  972MES     CS  972   6.542   1.482   1.601  0.0443  0.2924  0.0143
  973MES     CS  973   2.222   1.014   2.973 -0.2395  0.2017  0.0461
  974MES     CS  974   0.054   6.487   0.226 -0.1754  0.1596 -0.1532
  975MES     CS  975   4.984   4.412   2.684  0.0072 -0.1030 -0.0953
  976MES     CS  976   1.230   5.914   0.285  0.2110  0.0056  0.0078
  977MES     CS  977   0.632   6.269   3.525  0.1734 -0.0175 -0.0183
  978MES     CS  978   2.961   0.769   2.221  0.1538 -0.1958  0.0671
  979MES     CS  979   0.772   4.364   0.419 -0.1561  0.1228  0.3676
  980MES     CS  980   6.486   1.718   5.824 -0.1256 -0.1579 -0.1733
  981MES     CS  981   4.861   6.608   4.831 -0.0134 -0.1155  0.0741
  982MES     CS  982   2.938   3.005   6.285 -0.0735 -0.2501  0.2363
  983MES     CS  983   1.779   0.311   0.967 -0.2478  0.4304  0.1467
  984MES     CS  984   6.410   1.710   2.763  0.1842  0.1271  0.1603
  985MES     CS  985   1.867   3.148   4.768  0.0623  0.1993 -0.0526
  986MES     CS  986   0.623   3.223   3.271 -0.1225  0.2114 -0.1897
  987MES     CS  987   4.218   1.637   1.676 -0.4546 -0.0184  0.0100
  988MES     CS  988   2.964   1.385   0.762  0.0907 -0.2427 -0.2369
  989MES     CS  989   3.481   0.660   0.368  0.1500  0.1626  0.1293
  990MES     CS  990   2.695   4.421   5.436 -0.3129 -0.0286  0.3096
  991MES     CS  991   1.548   1.414   3.213  0.2028  0.2087 -0.0795
  992MES     CS  992   5.839   6.227   4.384  0.0271  0.1730  0.1480
  993MES     CS  993   1.036   2.188   2.036  0.0680 -0.1782  0.2787
  994MES     CS  994   3.512   5.839   6.452  0.0174  0.2472  0.1352
  995MES     CS  995   1.809   4.351   6.546  0.1794  0.0148 -0.1122
  996MES     CS  996   0.138   4.310   4.503  0.2129  0.2309  0.0353
  997MES     CS  997   3.990   0.492   0.575  0.0826  0.1115 -0.2617
  998MES     CS  998   6.104   5.907   4.123  0.3122  0.0137  0.1913
  999MES     CS  999   3.436   2.319   4.897 -0.4667  0.2730 -0.4155
 1000MES     CS 1000   2.369   4.421   0.867  0.0609 -0.2401 -0.0894
 1001MES     CS 1001   2.673   4.909   5.165 -0.3084  0.0483  0.0021
 1002MES     CS 1002   6.469   6.322   6.469 -0.0324  0.1546 -0.1352
 1003MES     CS 1003   5.366   3.696   4.710 -0.0464 -0.0690  0.0717
 1004MES     CS 1004   3.263   6.149   0.209  0.3123 -0.2947 -0.1326
 1005MES     CS 1005   1.314   3.303   4.036 -0.3413 -0.2080  0.1894
 1006MES     CS 1006   2.102   2.920   0.791 -0.2339  0.1727  0.1464
 1007MES     CS 1007   5.537   1.441   2.455  0.1582  0.2388 -0.0739
 1008MES     CS 1008   1.202   6.426   2.164 -0.0162 -0.0547 -0.2324
 1009MES     CS 1009   1.041   1.323   4.656  0.3249  0.1607 -0.0742
 1010MES     CS 1010   4.861   1.556   3.176 -0.1773  0.1270  0.0917
 1011MES     CS 1011   4.424   0.220   3.533 -0.0799  0.1482 -0.0719
 1012MES     CS 1012   0.661   5.208   2.763 -0.2544  0.1206 -0.1036
 1013MES     CS 1013   2.270   3.656   3.425 -0.1984 -0.0401 -0.1840
 1014MES     CS 1014   4.234   6.149   4.130 -0.2329 -0.0127  0.1364
 1015MES     CS 1015   5.336   1.500   6.041 -0.3622  0.0832 -0.1452
 1016MES     CS 1016   1.889   0.611   0.544 -0.0528 -0.0068  0.0635
 1017MES     CS 1017   3.201   2.716   5.040  0.0396 -0.0865  0.2721
 1018MES     CS 1018   3.812   5.656   5.046 -0.0326  0.1927 -0.3241
 1019MES     CS 1019   4.654   4.455   3.408  0.0196 -0.1231  0.3879
 1020MES     CS 1020   3.003   2.430   0.492  0.2949 -0.0657  0.0222
 1021MES     CS 1021   1.384   1.584   4.838 -0.0535  0.0161 -0.4171
 1022MES     CS 1022   0.586   1.359   0.175 -0.0238  0.1728  0.0309
 1023MES     CS 1023   2.838   1.223   4.902  0.0035 -0.1147  0.1100
 1024MES     CS 1024   1.487   2.064   5.276 -0.0097 -0.4557  0.0594
 1025MES     CS 1025   4.154   6.119   5.735 -0.1350 -0.0589  0.2988
 1026MES     CS 1026   5.507   2.318   5.217 -0.0950 -0.3053 -0.0288
 1027MES     CS 1027   5.016   2.943   3.014  0.1842  0.2396 -0.2141
 1028MES     CS 1028   4.634   0.358   5.613 -0.1266  0.1447  0.1859
 1029MES     CS 1029   0.469   2.109   2.177 -0.0248  0.0344  0.0071
 1030MES     CS 1030   6.428   0.119   2.715  0.1644  0.1788 -0.1450
 1031MES     CS 1031   4.818   0.718   3.752  0.0419  0.1697 -0.1141
 1032MES     CS 1032   2.223   1.942   5.887 -0.1043  0.3036  0.2643
 1033MES     CS 1033   5.745   1.096   3.268  0.0421 -0.0846  0.3301
 1034MES     CS 1034   0.698   2.858   2.672  0.0728  0.0633  0.4148
 1035MES     CS 1035   0.805   6.095   0.650 -0.0487  0.0382 -0.0924
 1036MES     CS 1036   1.491   3.497   4.450 -0.2113 -0.2994  0.0218
 1037MES     CS 1037   5.768   6.310   5.636 -0.0205  0.3617 -0.1347
 1038MES     CS 1038   5.107   4.443   6.338 -0.1697 -0.3936 -0.1067
 1039MES     CS 1039   4.212   3.158   3.375  0.0961  0.0858 -0.0721
 1040MES     CS 1040   2.919   4.975   4.743 -0.0186  0.0911 -0.0247
 1041MES     CS 1041   6.004   2.632   3.790  0.0559  0.1142 -0.1042
 1042MES     CS 1042   6.161   0.736   5.397  0.1889  0.0849 -0.0313
 1043MES     CS 1043   1.600   2.376   3.331 -0.0951  0.0489  0.1810
 1044MES     CS 1044   1.769   5.962   0.429  0.0391  0.1026  0.1372
 1045MES     CS 1045   5.514   3.163   6.007 -0.2530  0.2862  0.1554
 1046MES     CS 1046   5.363   3.047   5.501 -0.0057 -0.4693  0.1318
 1047MES     CS 1047   6.003   5.521   1.477 -0.2812  0.0215 -0.1204
 1048MES     CS 1048   5.715   6.031   0.645  0.3018 -0.0006  0.1216
 1049MES     CS 1049   0.112   5.336   1.978 -0.4196  0.3063  0.0107
 1050MES     CS 1050   0.372   6.313   5.495  0.0248  0.0021 -0.0192
 1051MES     CS 1051   0.826   2.721   3.900 -0.0228  0.2192 -0.1628
 1052MES     CS 1052   1.421   0.240   2.892 -0.1945  0.0522 -0.2272
 1053MES     CS 1053   2.980   5.744   5.865 -0.1657  0.0469  0.0243
 1054MES     CS 1054   6.409   2.170   1.939 -0.0491 -0.0316  0.3236
 1055MES     CS 1055   4.225   2.497   4.950 -0.0880 -0.1805  0.0704
 1056MES     CS 1056   4.748   3.932   3.565 -0.2089 -0.0221  0.2075
 1057MES     CS 1057   5.509   1.185   4.985 -0.2354  0.1574  0.3222
 1058MES     CS 1058   5.902   0.890   3.802  0.0310  0.0291 -0.1182
 1059MES     CS 1059   3.322   2.523   3.015  0.0038  0.3645  0.2973
 1060MES     CS 1060   3.475   0.759   2.280 -0.1983  0.0452  0.1002
 1061MES     CS 1061   5.544   1.286   4.268  0.1711 -0.0023 -0.0270
 1062MES     CS 1062   1.902   0.284   2.737 -0.1026 -0.1566  0.2516
 1063MES     CS 1063   3.369   2.963   1.943  0.0345 -0.0915 -0.1583
 1064MES     CS 1064   1.525   5.714   4.391 -0.1765 -0.2252 -0.1669
 1065MES     CS 1065   1.921   1.063   6.069  0.1158  0.1065 -0.1792
 1066MES     CS 1066   2.514   1.680   0.337  0.0462  0.0730 -0.0448
 1067MES     CS 1067   0.504   3.089   2.254  0.4919 -0.1019  0.1558
 1068MES     CS 1068   4.932   4.230   4.448  0.0174 -0.1592  0.0327
 1069MES     CS 1069   3.872   5.497   6.557 -0.0060 -0.2901 -0.1925
 1070MES     CS 1070   4.696   1.711   4.283 -0.0745  0.0017  0.0261
 1071MES     CS 1071   2.974   3.374   2.974 -0.0359 -0.1844  0.0397
 1072MES     CS 1072   2.922   2.324   4.229 -0.1618  0.1504  0.0835
 1073MES     CS 1073   5.911   4.738   4.991 -0.0763 -0.0662 -0.0228
 1074MES     CS 1074   2.300   1.206   1.824 -0.0668 -0.1376  0.1675
 1075MES     CS 1075   0.675   4.795   0.650 -0.0080  0.0908  0.1686
 1076MES     CS 1076   3.512   4.506   2.183  0.0001 -0.1390  0.0623
 1077MES     CS 1077   1.089   2.993   0.084  0.2292 -0.3532  0.0048
 1078MES     CS 1078   3.486   4.858   5.897  0.0137  0.0265  0.0114
 1079MES     CS 1079   3.937   2.905   2.073  0.2331  0.1235 -0.0431
 1080MES     CS 1080   3.484   4.316   0.883  0.0742 -0.2072 -0.0305
 1081MES     CS 1081   0.906   2.133   0.635 -0.0725  0.2957 -0.0554
 1082MES     CS 1082   3.701   1.653   4.348  0.3473  0.0425 -0.2336
 1083MES     CS 1083   4.671   0.025   6.039 -0.3696 -0.0189 -0.1706
 1084MES     CS 1084   6.328   5.111   0.570 -0.1417  0.0479  0.0617
 1085MES     CS 1085   4.336   1.325   1.034 -0.0145 -0.0205 -0.2146
 1086MES     CS 1086   3.319   4.431   1.353  0.4309  0.1112 -0.1880
 1087MES     CS 1087   1.073   2.890   5.140 -0.1059  0.1378  0.1083
 1088MES     CS 1088   5.905   5.871   1.175  0.0767 -0.0940 -0.1452
 1089MES     CS 1089   3.943   6.603   2.366 -0.0959 -0.0138  0.3873
 1090MES     CS 1090   5.560   0.463   5.286  0.1491  0.0214 -0.2617
 1091MES     CS 1091   5.493   5.813   3.163 -0.1524  0.2659  0.2296
 1092MES     CS 1092   1.124   4.784   0.224  0.0240 -0.0894 -0.1805
 1093MES     CS 1093   1.416   5.791   6.451 -0.1981  0.0780  0.1474
 1094MES     CS 1094   6.446   4.933   5.586 -0.0149 -0.0624  0.1127
 1095MES     CS 1095   1.212   4.633   1.640  0.1581 -0.0125  0.1738
 1096MES     CS 1096   4.822   4.900   1.620  0.0133  0.0044  0.0089
 1097MES     CS 1097   1.804   2.515   3.800 -0.0884  0.0617  0.1930
 1098MES     CS 1098   2.233   0.980   5.657 -0.0898  0.2916  0.2412
 1099MES     CS 1099   1.998   3.319   3.780  0.1133  0.0744  0.2390
 1100MES     CS 1100   1.621   5.551   3.868 -0.3095 -0.2356 -0.0248
 1101MES     CS 1101   1.515   2.010   3.652  0.0048  0.0127 -0.1336
 1102MES     CS 1102   6.553   6.329   4.553 -0.0974 -0.2539 -0.0974
 1103MES     CS 1103   2.976   1.237   2.800 -0.1985 -0.0330  0.0249
 1104MES     CS 1104   0.893   1.007   1.806 -0.3053 -0.3001 -0.1474
 1105MES     CS 1105   0.826   6.312   6.080  0.2002 -0.1618  0.4045
 1106MES     CS 1106   5.387   5.416   2.349 -0.2373 -0.2771  0.0799
 1107MES     CS 1107   4.618   3.414   4.136  0.1440 -0.1080 -0.1028
 1108MES     CS 1108   1.699   2.482   5.590 -0.0580  0.0565  0.0702
 1109MES     CS 1109   2.287   1.068   6.521 -0.2781 -0.0718 -0.1287
 1110MES     CS 1110   1.766   3.571   3.294 -0.1406 -0.1395 -0.0737
 1111MES     CS 1111   2.114   2.453   4.836 -0.1187 -0.1713 -0.5523
 1112MES     CS 1112   6.323   6.457   0.506 -0.1985 -0.2898 -0.1760
 1113MES     CS 1113   3.574   5.470   4.484 -0.2933 -0.2580  0.2604
 1114MES     CS 1114   4.568   5.529   5.873 -0.0948  0.2027  0.0148
 1115MES     CS 1115   3.822   5.301   1.607  0.0670  0.0236 -0.2686
 1116MES     CS 1116   5.962   5.412   2.383 -0.0959  0.0119 -0.0710
 1117MES     CS 1117   0.347   2.842   0.087 -0.1034  0.2153 -0.3123
 1118MES     CS 1118   0.612   3.658   4.043 -0.2646 -0.3125  0.1228
 1119MES     CS 1119   1.607   1.975   1.927 -0.1288 -0.1438 -0.2158
 1120MES     CS 1120   4.713   3.673   0.633  0.0148  0.2211 -0.1187
 1121MES     CS 1121   0.337   0.106   6.620 -0.1121  0.2087 -0.0157
 1122MES     CS 1122   2.335   4.325   1.652 -0.0776 -0.0305  0.0502
 1123MES     CS 1123   2.549   6.104   4.038  0.0988 -0.0724 -0.2657
 1124MES     CS 1124   6.203   4.446   1.169 -0.3170 -0.0934  0.1110
 1125MES     CS 1125   6.030   6.034   2.132  0.1363 -0.1457  0.0290
 1126MES     CS 1126   4.476   5.780   4.479  0.0706 -0.1372 -0.1252
 1127MES     CS 1127   5.525   1.940   2.555  0.1520 -0.0048  0.3031
 1128MES     CS 1128   2.238   5.264   0.863 -0.2100  0.0498  0.0545
 1129MES     CS 1129   2.199   3.807   3.896  0.3393  0.1737 -0.0759
 1130MES     CS 1130   2.050   5.649   4.102  0.0616 -0.2838  0.1039
 1131MES     CS 1131   1.304   3.827   3.151  0.1245 -0.2625 -0.0384
 1132MES     CS 1132   1.977   5.445   5.255  0.2085 -0.0070 -0.1294
 1133MES     CS 1133   6.342   0.149   1.868 -0.2677  0.2789 -0.0426
 1134MES     CS 1134   6.166   4.713   2.045  0.0946 -0.1776 -0.1541
 1135MES     CS 1135   0.192   1.625   4.836 -0.1729  0.2668  0.0661
 1136MES     CS 1136   0.504   5.308   1.719 -0.1230 -0.2805 -0.1661
 1137MES     CS 1137   2.176   1.176   4.244 -0.0309 -0.3977  0.4414
 1138MES     CS 1138   5.032   0.691   0.561  0.1546  0.0953 -0.0903
 1139MES     CS 1139   0.878   4.137   4.684  0.0513  0.1014  0.1261
 1140MES     CS 1140   1.363   0.207   1.962 -0.2607  0.0584  0.0179
 1141MES     CS 1141   1.505   4.779   6.596  0.0182 -0.1519  0.0047
 1142MES     CS 1142   5.361   4.531   3.663  0.1189  0.1932  0.2596
 1143MES     CS 1143   3.894   5.629   2.498 -0.0019 -0.0346  0.1328
 1144MES     CS 1144   3.322   4.584   2.633 -0.0169  0.0097  0.0481
 1145MES     CS 1145   0.102   6.083   3.341 -0.4163  0.0540  0.1194
 1146MES     CS 1146   4.569   4.778   3.928  0.0528  0.1743 -0.0757
 1147MES     CS 1147   0.653   4.952   5.752 -0.3969 -0.1548  0.2359
 1148MES     CS 1148   5.276   5.067   4.783 -0.1227  0.4651  0.1175
 1149MES     CS 1149   1.220   5.529   5.802 -0.0342  0.4091 -0.0368
 1150MES     CS 1150   3.649   1.396   2.970 -0.6418  0.0425 -0.0380
 1151MES     CS 1151   6.250   0.773   0.203 -0.0985 -0.2150  0.3793
 1152MES     CS 1152   1.326   4.029   5.278  0.2928 -0.0542  0.3559
 1153MES     CS 1153   2.969   0.997   5.345  0.0425  0.3075  0.0009
 1154MES     CS 1154   3.858   2.550   3.865  0.0146 -0.1336 -0.0178
 1155MES     CS 1155   5.826   2.361   4.233  0.1113 -0.1656 -0.2440
 1156MES     CS 1156   4.967   4.836   3.607 -0.0382 -0.2933 -0.3650
 1157MES     CS 1157   4.458   1.086   6.524 -0.0849 -0.1773 -0.0664
 1158MES     CS 1158   2.836   2.975   3.239  0.1257  0.3350 -0.1037
 1159MES     CS 1159   0.577   6.006   1.067 -0.2484 -0.2663 -0.4356
 1160MES     CS 1160   3.156   1.492   3.153  0.2316  0.0162 -0.0553
 1161MES     CS 1161   3.385   5.487   2.492  0.3649 -0.1297 -0.0984
 1162MES     CS 1162   3.588   4.190   2.669 -0.0727  0.1398 -0.1057
 1163MES     CS 1163   2.066   6.295   1.306 -0.1164 -0.0152 -0.1254
 1164MES     CS 1164   2.935   5.845   6.592  0.2244 -0.0215  0.0798
 1165MES     CS 1165   2.091   5.577   4.710 -0.0012 -0.0991 -0.0228
 1166MES     CS 1166   3.867   3.623   1.205  0.2332  0.3102 -0.1288
 1167MES     CS 1167   1.461   6.328   0.120  0.1634  0.1340 -0.1800
 1168MES     CS 1168   0.177   5.817   1.642 -0.2234 -0.0610 -0.0255
 1169MES     CS 1169   1.968   0.931   1.551 -0.1275  0.3301 -0.1273
 1170MES     CS 1170   4.426   6.167   2.328  0.0041  0.0136  0.1830
 1171MES     CS 1171   1.524   0.626   4.885 -0.0031 -0.0246 -0.2271
 1172MES     CS 1172   5.082   5.722   1.777 -0.0468  0.2656 -0.1388
 1173MES     CS 1173   5.690   2.827   5.129 -0.0390  0.0185  0.1534
 1174MES     CS 1174   5.670   6.254   1.471 -0.1220  0.3399  0.1395
 1175MES     CS 1175   1.195   4.363   3.409  0.0155 -0.0680 -0.2793
 1176MES     CS 1176   0.738   5.285   4.196 -0.1852  0.0969 -0.0708
 1177MES     CS 1177   5.530   1.396   1.552  0.1416 -0.1562  0.0673
 1178MES     CS 1178   2.334   3.318   4.768 -0.1170  0.3457 -0.1796
 1179MES     CS 1179   6.047   1.013   2.201  0.1317 -0.2316  0.2955
 1180MES     CS 1180   0.143   2.634   6.350  0.0669 -0.0756  0.0270
 1181MES     CS 1181   2.677   2.346   2.415  0.0513  0.2020  0.1990
 1182MES     CS 1182   3.164   0.314   0.410  0.0848  0.1999 -0.2015
 1183MES     CS 1183   2.308   4.814   1.759 -0.2383 -0.2541 -0.0413
 1184MES     CS 1184   2.071   1.741   1.982 -0.2777  0.0012  0.0079
 1185MES     CS 1185   4.513   4.501   0.311 -0.0263 -0.4034 -0.2577
 1186MES     CS 1186   0.097   2.848   2.363  0.4581  0.2336  0.1665
 1187MES     CS 1187   6.023   6.618   2.948 -0.0780  0.0772 -0.0341
 1188MES     CS 1188   0.860   2.453   3.365 -0.1499  0.1356  0.0593
 1189MES     CS 1189   5.557   4.269   3.091 -0.0001 -0.2487 -0.1453
 1190MES     CS 1190   4.405   5.631   2.323 -0.4538  0.0951 -0.2237
 1191MES     CS 1191   4.697   0.530   3.167 -0.0170 -0.3296  0.0659
 1192MES     CS 1192   2.313   4.988   6.564 -0.1621 -0.0872  0.0791
 1193MES     CS 1193   4.004   2.570   0.497  0.4724 -0.2660 -0.0092
 1194MES     CS 1194   2.846   1.798   5.376 -0.3336  0.3375 -0.1075
 1195MES     CS 1195   5.119   5.787   3.655 -0.0008  0.1166  0.0025
 1196MES     CS 1196   2.705   0.147   4.041 -0.1479  0.0081  0.2979
 1197MES     CS 1197   3.538   6.466   3.786  0.0668  0.6064 -0.1560
 1198MES     CS 1198   2.727   5.056   0.184  0.3943  0.3066  0.0967
 1199MES     CS 1199   3.765   1.473   1.857 -0.2059  0.1158  0.1975
 1200MES     CS 1200   0.290   1.970   5.857  0.2054  0.1060  0.3125
 1201MES     CS 1201   0.653   0.216   0.507 -0.1448 -0.0172 -0.1927
 1202MES     CS 1202   0.109   4.081   4.027  0.3028  0.0293  0.1457
 1203MES     CS 1203   0.745   2.262   6.096  0.1752  0.3195 -0.2695
 1204MES     CS 1204   5.640   1.358   6.433 -0.2918 -0.2825  0.1486
 1205MES     CS 1205   0.593   5.795   6.094  0.1313  0.2341 -0.0006
 1206MES     CS 1206   1.307   6.334   1.098  0.0452  0.4496  0.0937
 1207MES     CS 1207   2.025   4.975   3.387  0.0521  0.0777  0.0197
 1208MES     CS 1208   2.384   4.241   4.203  0.2290  0.0619  0.2163
 1209MES     CS 1209   2.358   2.200   0.233  0.0794 -0.0056  0.0636
 1210MES     CS 1210   2.942   5.160   1.196  0.0614  0.1797  0.0159
 1211MES     CS 1211   4.784   0.835   4.769 -0.3306  0.0642 -0.1116
 1212MES     CS 1212   1.790   2.672   2.915 -0.0221  0.0903  0.1407
 1213MES     CS 1213   2.557   2.584   6.287 -0.1439  0.0870  0.0488
 1214MES     CS 1214   4.267   6.613   4.718  0.2816  0.0579 -0.1857
 1215MES     CS 1215   5.155   4.059   4.997  0.0320  0.1896  0.1784
 1216MES     CS 1216   4.975   3.705   2.838  0.1460 -0.1874  0.0547
 1217MES     CS 1217   5.708   5.107   4.351  0.2298  0.4740 -0.1651
 1218MES     CS 1218   1.660   2.452   1.870 -0.3528  0.0554 -0.3601
 1219MES     CS 1219   5.102   2.668   5.269 -0.0092 -0.0791 -0.1988
 1220MES     CS 1220   1.266   1.600   1.782  0.0723 -0.1274  0.0411
 1221MES     CS 1221   5.027   3.151   6.108  0.1039  0.0123 -0.3421
 1222MES     CS 1222   6.024   0.971   6.367  0.0685 -0.2013 -0.0458
 1223MES     CS 1223   0.237   5.865   5.653  0.1347 -0.2568 -0.1547
 1224MES     CS 1224   4.477   2.153   6.282  0.3857 -0.0413  0.3703
 1225MES     CS 1225   4.198   1.956   3.402  0.2067  0.3222  0.1321
 1226MES     CS 1226   3.426   2.340   1.277 -0.0884  0.1462  0.0055
 1227MES     CS 1227   0.731   0.409   6.646 -0.5143  0.0371 -0.2308
 1228MES     CS 1228   5.519   4.033   5.489 -0.0068  0.1238  0.0765
 1229MES     CS 1229   5.443   2.437   3.844 -0.1574  0.1335  0.0399
 1230MES     CS 1230   3.801   4.589   2.949  0.1086  0.2650  0.1290
 1231MES     CS 1231   1.789   1.482   0.356 -0.0097 -0.0959  0.0445
 1232MES     CS 1232   2.443   0.837   4.018 -0.3365  0.2248  0.1554
 1233MES     CS 1233   0.609   1.371   1.571 -0.0920  0.0755  0.0676
 1234MES     CS 1234   1.609   2.786   1.431  0.0588  0.2884 -0.1913
 1235MES     CS 1235   5.317   3.956   6.584  0.1075 -0.3702  0.0575
 1236MES     CS 1236   1.716   3.225   0.672 -0.1945  0.0048  0.0241
 1237MES     CS 1237   1.971   5.346   3.035 -0.1148 -0.0214 -0.0726
 1238MES     CS 1238   2.816   3.863   0.029 -0.0371 -0.1462  0.1003
 1239MES     CS 1239   1.911   0.995   3.858  0.1861  0.1329 -0.0881
 1240MES     CS 1240   6.356   2.496   6.595  0.0036  0.0004 -0.3861
 1241MES     CS 1241   0.705   1.296   5.447 -0.2035  0.0472 -0.0412
 1242MES     CS 1242   3.752   6.154   6.151  0.0475  0.2835  0.0719
 1243MES     CS 1243   3.204   6.364   3.375 -0.2254 -0.3112 -0.1440
 1244MES     CS 1244   3.523   5.448   1.180 -0.1782 -0.0544 -0.1793
 1245MES     CS 1245   5.241   0.203   1.993  0.1279 -0.1266 -0.2214
 1246MES     CS 1246   5.426   0.122   1.462  0.0923 -0.0163 -0.0324
 1247MES     CS 1247   4.727   0.735   2.675  0.1232 -0.0382 -0.3463
 1248MES     CS 1248   4.426   1.845   0.614  0.1253  0.2196 -0.2675
 1249MES     CS 1249   1.107   3.633   4.813  0.4223  0.1426  0.1683
 1250MES     CS 1250   0.224   0.221   5.736  0.4005  0.1464 -0.1297
 1251MES     CS 1251   0.207   2.012   2.849  0.0991  0.4246 -0.0837
 1252MES     CS 1252   4.424   3.862   6.361  0.0215 -0.1562  0.0325
 1253MES     CS 1253   2.672   5.879   1.120  0.1100 -0.0590 -0.2238
 1254MES     CS 1254   0.451   3.966   0.528 -0.0024  0.3230 -0.0699
 1255MES     CS 1255   6.645   2.093   3.295 -0.1664  0.1477 -0.1589
 1256MES     CS 1256   0.211   1.056   3.906  0.3051  0.3416  0.0920
 1257MES     CS 1257   1.249   6.460   2.657  0.1003 -0.0955  0.0617
 1258MES     CS 1258   6.263   2.628   5.287 -0.1180 -0.2414  0.0766
 1259MES     CS 1259   3.160   6.351   4.910  0.2156  0.2108  0.0548
 1260MES     CS 1260   6.402   0.474   4.536 -0.4173 -0.1225  0.2435
 1261MES     CS 1261   4.370   1.134   6.033  0.0926 -0.0809 -0.0739
 1262MES     CS 1262   3.861   0.941   1.980  0.0329  0.1709 -0.1792
 1263MES     CS 1263   0.717   3.980   2.306 -0.2363  0.1252  0.2350
 1264MES     CS 1264   6.224   4.219   1.727  0.1676  0.0569  0.0323
 1265MES     CS 1265   4.830   1.345   2.257  0.2261 -0.0090 -0.0144
 1266MES     CS 1266   4.616   3.256   1.806  0.1379  0.0845 -0.3151
 1267MES     CS 1267   5.426   1.672   4.540 -0.2710 -0.0801  0.1590
 1268MES     CS 1268   6.161   1.632   0.385 -0.0830 -0.0495  0.0634
 1269MES     CS 1269   4.730   1.774   1.580  0.0330 -0.1810  0.0545
 1270MES     CS 1270   2.824   4.905   5.654 -0.0415 -0.1752  0.0815
 1271MES     CS 1271   2.946   4.275   0.928 -0.0986  0.1729 -0.1816
 1272MES     CS 1272   0.826   1.949   5.731  0.2618 -0.1614  0.0605
 1273MES     CS 1273   6.111   4.827   3.545 -0.1608  0.0999  0.0694
 1274MES     CS 1274   3.308   1.139   1.501  0.3097  0.0533  0.0502
 1275MES     CS 1275   3.637   6.427   4.787  0.1386 -0.0725  0.0620
 1276MES     CS 1276   3.356   1.957   5.283  0.1648  0.1720 -0.4733
 1277MES     CS 1277   3.374   4.548   6.249  0.1880 -0.0358 -0.0629
 1278MES     CS 1278   5.091   5.629   4.149  0.1882 -0.1483 -0.0338
 1279MES     CS 1279   5.937   0.108   1.385 -0.0459  0.0522 -0.0093
 1280MES     CS 1280   3.873   5.847   4.384 -0.0308 -0.0495  0.1020
 1281MES     CS 1281   4.313   2.786   0.857 -0.1887 -0.0187  0.3018
 1282MES     CS 1282   5.642   4.137   4.986  0.2807  0.1435 -0.0483
 1283MES     CS 1283   2.886   3.655   5.259 -0.1058  0.0650 -0.0096
 1284MES     CS 1284   6.620   0.649   2.809  0.0807  0.2028  0.2594
 1285MES     CS 1285   4.167   3.943   5.327  0.3019  0.1342  0.0543
 1286MES     CS 1286   6.187   4.145   5.619  0.2636 -0.2313  0.3066
 1287MES     CS 1287   0.035   2.007   3.895  0.1055 -0.1024 -0.1600
 1288MES     CS 1288   2.595   2.245   5.829  0.0497  0.3378 -0.0253
 1289MES     CS 1289   6.376   0.007   0.957  0.2624 -0.2333 -0.2052
 1290MES     CS 1290   4.934   2.293   1.630  0.0717 -0.1814  0.0317
 1291MES     CS 1291   5.029   2.392   3.673 -0.4518  0.3131 -0.0470
 1292MES     CS 1292   0.465   0.007   1.473 -0.0300 -0.0386  0.1325
 1293MES     CS 1293   2.764   2.707   4.635 -0.3542 -0.2308 -0.0813
 1294MES     CS 1294   4.286   6.144   1.471 -0.1721  0.0002 -0.0639
 1295MES     CS 1295   3.878   3.263   5.171  0.2576 -0.1922 -0.0834
 1296MES     CS 1296   1.022   6.382   3.766  0.3008 -0.1567  0.1141
 1297MES     CS 1297   0.039   3.553   1.139  0.0198 -0.0090  0.2424
 1298MES     CS 1298   4.485   6.009   1.893  0.0575  0.2129  0.1301
 1299MES     CS 1299   3.867   1.610   3.741  0.0375  0.1714 -0.0876
 1300MES     CS 1300   3.536   0.067   3.384  0.2476 -0.1447  0.4209
 1301MES     CS 1301   4.524   4.705   2.537  0.0087 -0.1741  0.0584
 1302MES     CS 1302   3.592   6.407   2.039 -0.2323 -0.1141 -0.0048
 1303MES     CS 1303   2.839   2.685   2.696 -0.2633  0.1941 -0.0524
 1304MES     CS 1304   2.316   5.767   0.471  0.2666  0.0317  0.4103
 1305MES     CS 1305   5.304   2.061   1.878  0.2079  0.2248 -0.3323
 1306MES     CS 1306   1.263   4.546   0.668 -0.0452 -0.0390 -0.0805
 1307MES     CS 1307   2.549   0.722   1.723  0.2398  0.1204  0.0218
 1308MES     CS 1308   6.601   3.995   2.018  0.3472 -0.0464  0.0432
 1309MES     CS 1309   4.132   3.963   4.800  0.5355  0.0099 -0.1509
 1310MES     CS 1310   3.836   3.898   5.706 -0.0556  0.0731 -0.1364
 1311MES     CS 1311   3.267   5.447   0.103  0.3876 -0.0990  0.0542
 1312MES     CS 1312   6.407   5.315   0.138  0.0068  0.0127  0.0132
 1313MES     CS 1313   5.274   1.127   5.443  0.1198 -0.4528  0.2056
 1314MES     CS 1314   0.945   0.203   2.397  0.4163 -0.2365 -0.0487
 1315MES     CS 1315   0.717   4.769   1.490 -0.1774  0.1911  0.0217
 1316MES     CS 1316   1.277   1.867   2.500 -0.1875  0.3924 -0.0494
 1317MES     CS 1317   2.240   3.770   4.973 -0.1275 -0.0713 -0.0672
 1318MES     CS 1318   5.656   0.138   4.919  0.0265 -0.1789 -0.0062
 1319MES     CS 1319   4.332   4.659   0.813  0.1368  0.2933 -0.1219
 1320MES     CS 1320   5.644   5.146   5.285  0.1008 -0.1354  0.2987
 1321MES     CS 1321   6.395   0.291   0.351  0.0114 -0.0635  0.2360
 1322MES     CS 1322   6.058   3.088   1.361  0.0377  0.1057  0.0723
 1323MES     CS 1323   0.438   3.916   3.586 -0.0006 -0.1069 -0.2233
 1324MES     CS 1324   1.271   5.949   3.617 -0.2267 -0.1283 -0.1236
 1325MES     CS 1325   4.499   5.738   1.320 -0.0265  0.0520  0.0662
 1326MES     CS 1326   1.710   5.375   1.860 -0.0871  0.3149  0.2885
 1327MES     CS 1327   4.392   6.265   0.710  0.0279 -0.0033 -0.1579
 1328MES     CS 1328   6.516   1.378   2.087  0.1488  0.0152  0.2734
 1329MES     CS 1329   4.154   2.976   4.895 -0.1475 -0.2395  0.0387
 1330MES     CS 1330   1.659   6.533   6.012  0.1352 -0.2022  0.0466
 1331MES     CS 1331   3.810   2.819   6.575  0.0426 -0.0570  0.3288
 1332MES     CS 1332   6.611   2.851   1.079 -0.2045 -0.1380  0.0983
 1333MES     CS 1333   2.763   3.976   3.625 -0.2634  0.3733 -0.4406
 1334MES     CS 1334   2.488   4.318   5.882  0.2779  0.0390 -0.0849
 1335MES     CS 1335   0.256   2.593   1.931  0.0721  0.0912 -0.1392
 1336MES     CS 1336   2.454   2.335   4.498  0.3692  0.0941 -0.1171
 1337MES     CS 1337   4.486   0.605   6.050  0.0521  0.1384 -0.2114
 1338MES     CS 1338   4.493   1.670   2.159 -0.2866 -0.3254  0.2007
 1339MES     CS 1339   3.181   0.960   4.164  0.0318 -0.5359 -0.2189
 1340MES     CS 1340   2.076   4.781   5.796 -0.1471 -0.0620 -0.1347
 1341MES     CS 1341   5.598   3.257   1.041  0.0900 -0.0958 -0.0017
 1342MES     CS 1342   5.241   4.615   1.669  0.0360 -0.1244  0.2329
 1343MES     CS 1343   3.824   3.208   1.759  0.0257  0.1779 -0.1674
 1344MES     CS 1344   0.077   1.942   1.586  0.0930 -0.2701 -0.0489
 1345MES     CS 1345   0.770   5.624   2.532 -0.1306  0.3077  0.0800
 1346MES     CS 1346   5.827   3.364   2.538 -0.3112  0.0931 -0.0228
 1347MES     CS 1347   3.620   1.134   5.324  0.0785  0.0600  0.0308
 1348MES     CS 1348   4.085   2.539   1.729  0.0010  0.1568  0.1617
 1349MES     CS 1349   3.602   0.871   2.811 -0.1417  0.1746 -0.1151
 1350MES     CS 1350   6.417   4.889   2.508  0.1118 -0.2303  0.1635
 1351MES     CS 1351   3.408   6.502   5.300  0.0659  0.0455 -0.1063
 1352MES     CS 1352   6.245   3.078   3.370 -0.0664 -0.2357 -0.2548
 1353MES     CS 1353   0.216   6.242   1.416 -0.0927  0.1585 -0.1004
 1354MES     CS 1354   5.422   5.945   5.501  0.3140 -0.0518  0.1106
 1355MES     CS 1355   0.051   0.423   1.249  0.3554  0.1524 -0.1430
 1356MES     CS 1356   2.521   1.343   3.666 -0.0120  0.1503  0.1905
 1357MES     CS 1357   1.852   6.049   6.315 -0.3777 -0.4094  0.0304
 1358MES     CS 1358   0.478   5.561   1.279 -0.1160 -0.1687 -0.0580
 1359MES     CS 1359   2.581   3.206   5.908  0.3567  0.0310  0.1347
 1360MES     CS 1360   3.709   1.270   5.858 -0.1910  0.0201  0.0401
 1361MES     CS 1361   2.248   3.104   6.304  0.1989  0.2464  0.1524
 1362MES     CS 1362   1.240   0.365   6.574 -0.0069 -0.1782 -0.2059
 1363MES     CS 1363   5.859   5.023   0.822 -0.3050 -0.2552  0.1671
 1364MES     CS 1364   0.307   5.409   6.019 -0.0200 -0.0202  0.0281
 1365MES     CS 1365   1.276   6.336   0.582  0.1778 -0.0757  0.1988
 1366MES     CS 1366   5.859   1.460   3.900 -0.1969  0.0123 -0.0055
 1367MES     CS 1367   0.369   4.282   2.114  0.2066 -0.2445  0.0641
 1368MES     CS 1368   4.755   4.844   5.807  0.0994  0.1478  0.0583
 1369MES     CS 1369   2.169   3.423   2.394 -0.1100 -0.0375 -0.0845
 1370MES     CS 1370   4.562   1.166   3.835  0.3332  0.0169 -0.0562
 1371MES     CS 1371   0.054   0.217   3.983  0.0490 -0.0120  0.0473
 1372MES     CS 1372   3.616   2.432   2.573  0.1313  0.0652 -0.1619
 1373MES     CS 1373   6.535   5.714   6.108  0.0830 -0.2236 -0.1113
 1374MES     CS 1374   5.649   5.625   6.335 -0.1442 -0.0289  0.1353
 1375MES     CS 1375   1.542   0.191   0.328  0.2103 -0.1671  0.1130
 1376MES     CS 1376   2.448   2.720   3.536 -0.3591 -0.0551 -0.1441
 1377MES     CS 1377   2.026   6.258   5.710  0.3233  0.1126 -0.3374
 1378MES     CS 1378   4.159   0.447   4.837 -0.1431 -0.0551  0.0465
 1379MES     CS 1379   4.897   5.982   0.111  0.1672 -0.1926 -0.0664
 1380MES     CS 1380   0.955   3.317   2.753 -0.1578  0.2191  0.1149
 1381MES     CS 1381   0.336   4.289   3.215 -0.0974  0.1979  0.0576
 1382MES     CS 1382   0.960   2.530   0.264 -0.0526  0.1114 -0.0121
 1383MES     CS 1383   2.025   0.522   3.599 -0.1798 -0.0818 -0.2206
 1384MES     CS 1384   1.960   0.752   2.544  0.0847 -0.0944 -0.0617
 1385MES     CS 1385   1.630   2.958   3.823 -0.2652 -0.0050  0.0515
 1386MES     CS 1386   5.181   1.897   3.897 -0.1933  0.3804  0.0774
 1387MES     CS 1387   1.700   0.431   6.288 -0.1115  0.0764 -0.3433
 1388MES     CS 1388   0.825   4.312   2.956 -0.2292  0.0328 -0.0635
 1389MES     CS 1389   5.450   0.147   2.595  0.0173 -0.0738  0.0849
 1390MES     CS 1390   0.760   6.581   6.475 -0.1984 -0.1757 -0.1622
 1391MES     CS 1391   3.910   5.765   1.293 -0.0475  0.0155  0.2231
 1392MES     CS 1392   2.311   5.067   4.901 -0.0535 -0.1250  0.1376
 1393MES     CS 1393   1.378   5.192   6.324 -0.5639  0.1471 -0.3576
 1394MES     CS 1394   1.402   4.469   2.127  0.0825  0.1531  0.1152
 1395MES     CS 1395   4.783   1.105   5.169  0.0719 -0.2107  0.0761
 1396MES     CS 1396   5.834   5.497   1.954  0.2480  0.0086  0.1372
 1397MES     CS 1397   5.896   1.645   2.809  0.3228 -0.3944  0.0569
 1398MES     CS 1398   5.847   1.936   0.608  0.2377  0.2281 -0.2012
 1399MES     CS 1399   1.349   5.210   4.137  0.1020 -0.1068  0.1468
 1400MES     CS 1400   2.535   1.406   5.241  0.1562  0.0516  0.0376
 1401MES     CS 1401   2.409   3.972   4.573  0.0401  0.0246 -0.3489
 1402MES     CS 1402   6.112   5.581   4.900 -0.1665 -0.2503  0.1324
 1403MES     CS 1403   4.558   4.110   2.988  0.3084  0.1344  0.2716
 1404MES     CS 1404   0.721   3.054   0.390  0.0580 -0.0875 -0.0840
 1405MES     CS 1405   0.361   2.415   3.841  0.2088  0.1139 -0.0830
 1406MES     CS 1406   0.069   1.538   3.691  0.3332  0.1828  0.0050
 1407MES     CS 1407   6.563   4.431   5.893  0.1435 -0.0840 -0.0831
 1408MES     CS 1408   6.616   5.700   4.203 -0.0034 -0.0528 -0.2891
 1409MES     CS 1409   2.297   5.630   1.524  0.0802 -0.5345  0.0284
 1410MES     CS 1410   2.598   4.097   2.667  0.1586 -0.2071  0.1819
 1411MES     CS 1411   1.390   1.788   6.275  0.2383  0.0981 -0.1657
 1412MES     CS 1412   0.470   0.811   3.162  0.1559  0.1754 -0.0712
 1413MES     CS 1413   5.410   0.011   3.694 -0.1667  0.2417  0.0448
 1414MES     CS 1414   1.905   1.041   3.313  0.0412 -0.0587 -0.0795
 1415MES     CS 1415   4.445   5.226   6.251  0.1186  0.2014  0.1681
 1416MES     CS 1416   1.564   1.685   1.426  0.0510  0.2014  0.0801
 1417MES     CS 1417   0.434   3.063   6.298 -0.0205  0.0635  0.0918
 1418MES     CS 1418   5.958   6.522   1.851 -0.0304  0.1468  0.0986
 1419MES     CS 1419   5.834   1.463   1.928  0.2140 -0.0726  0.0590
 1420MES     CS 1420   5.556   4.197   6.000  0.1306  0.1544 -0.1677
 1421MES     CS 1421   5.420   5.039   3.901 -0.1908  0.2409 -0.2218
 1422MES     CS 1422   5.835   4.700   0.393 -0.1166  0.0426 -0.3540
 1423MES     CS 1423   0.854   1.037   5.040 -0.0078  0.0812  0.1642
 1424MES     CS 1424   5.330   6.082   4.500 -0.0874  0.1806 -0.0476
 1425MES     CS 1425   2.157   2.557   5.703  0.2781  0.0060  0.2130
 1426MES     CS 1426   6.413   2.861   0.304 -0.0121 -0.1628  0.0268
 1427MES     CS 1427   3.267   3.866   0.789  0.1158 -0.1240  0.0340
 1428MES     CS 1428   3.244   4.859   1.793 -0.2896  0.0621 -0.0977
 1429MES     CS 1429   1.899   4.303   4.593 -0.1261  0.0193 -0.3605
 1430MES     CS 1430   4.470   0.770   0.381 -0.0657 -0.0517  0.2357
 1431MES     CS 1431   4.040   0.840   4.031 -0.1982  0.1985  0.0759
 1432MES     CS 1432   1.245   5.422   4.660  0.0303 -0.0292  0.0560
 1433MES     CS 1433   5.367   2.515   0.415 -0.2264  0.0673 -0.2102
 1434MES     CS 1434   1.432   4.253   6.106  0.0291 -0.1400 -0.1091
 1435MES     CS 1435   3.851   6.528   5.764  0.0137 -0.1486  0.0786
 1436MES     CS 1436   0.222   2.869   3.495  0.1192  0.1877  0.0731
 1437MES     CS 1437   4.889   2.915   4.009  0.2036 -0.0602  0.0574
 1438MES     CS 1438   3.216   3.000   2.637 -0.0015 -0.0590 -0.0470
 1439MES     CS 1439   5.545   6.591   4.357 -0.0726 -0.0499 -0.1063
 1440MES     CS 1440   1.710   4.840   1.991 -0.3858  0.0806  0.2456
 1441MES     CS 1441   4.280   4.987   1.487 -0.0356  0.0131  0.0369
 1442MES     CS 1442   0.953   5.598   0.899  0.1018  0.3637 -0.1300
 1443MES     CS 1443   3.181   5.537   3.956 -0.2370  0.2524  0.0598
 1444MES     CS 1444   5.573   5.874   4.101 -0.0636  0.1243  0.1027
 1445MES     CS 1445   5.866   3.915   6.553  0.0090  0.2421 -0.3777
 1446MES     CS 1446   5.940   2.866   5.650 -0.4462 -0.3009  0.0875
 1447MES     CS 1447   5.430   4.071   1.956  0.1687  0.2136 -0.1342
 1448MES     CS 1448   0.938   1.102   2.656  0.2596  0.2207  0.2668
 1449MES     CS 1449   2.102   1.693   0.021 -0.1143  0.1115 -0.1969
 1450MES     CS 1450   4.533   2.617   6.070 -0.2439  0.2640  0.0143
 1451MES     CS 1451   1.035   4.409   5.048 -0.2468 -0.0754  0.1537
 1452MES     CS 1452   4.795   1.297   2.792 -0.1682  0.1797 -0.1800
 1453MES     CS 1453   5.131   0.933   5.882 -0.0513  0.1181  0.3444
 1454MES     CS 1454   1.180   0.282   4.512  0.1104 -0.0466 -0.0039
 1455MES     CS 1455   1.632   1.153   4.242 -0.1323 -0.3974  0.0726
 1456MES     CS 1456   0.339   3.288   4.722  0.2415 -0.0701 -0.3189
 1457MES     CS 1457   3.483   0.506   3.111  0.1680 -0.0655  0.0565
 1458MES     CS 1458   2.977   3.512   0.331  0.0448  0.3113 -0.3981
 1459MES     CS 1459   5.967   5.522   0.560  0.1996  0.1926  0.0411
 1460MES     CS 1460   1.491   2.558   4.543 -0.1406  0.0203 -0.0500
 1461MES     CS 1461   4.156   5.171   5.227  0.3217  0.3182 -0.1590
 1462MES     CS 1462   1.655   3.759   4.001  0.0146  0.0109 -0.2995
 1463MES     CS 1463   4.523   2.163   0.129 -0.0246 -0.1788 -0.0358
 1464MES     CS 1464   2.637   2.059   6.277  0.0490 -0.3863  0.0670
 1465MES     CS 1465   3.238   2.253   3.428 -0.1627  0.1584  0.2587
 1466MES     CS 1466   2.647   0.192   5.409  0.1658 -0.1039 -0.1303
 1467MES     CS 1467   1.135   5.160   1.894 -0.1247 -0.1812 -0.1812
 1468MES     CS 1468   4.375   2.924   1.555 -0.0845 -0.1060 -0.2017
 1469MES     CS 1469   5.100   4.506   2.186  0.0783  0.1234 -0.4897
 1470MES     CS 1470   5.389   0.322   3.162 -0.3217 -0.1845 -0.0973
 1471MES     CS 1471   4.624   5.148   2.916 -0.0262  0.1268  0.2791
 1472MES     CS 1472   5.042   4.163   1.525  0.2426  0.1014 -0.0409
 1473MES     CS 1473   1.924   4.339   4.064  0.0663 -0.0795  0.2441
 1474MES     CS 1474   4.250   1.918   5.252  0.1255 -0.0322  0.1247
 1475MES     CS 1475   5.005   3.139   5.145  0.0450 -0.3087  0.0706
 1476MES     CS 1476   3.433   5.031   2.297 -0.1240  0.1940  0.0742
 1477MES     CS 1477   3.671   0.696   4.771  0.0876 -0.0184  0.0965
 1478MES     CS 1478   3.534   2.457   0.791  0.1011 -0.0789 -0.0377
 1479MES     CS 1479   6.179   6.359   1.420 -0.2697 -0.0028 -0.0731
 1480MES     CS 1480   5.297   3.160   0.516 -0.0203 -0.2055 -0.2144
 1481MES     CS 1481   3.520   5.684   2.998 -0.4794  0.0856  0.2209
 1482MES     CS 1482   2.944   1.435   4.046 -0.2001 -0.0572 -0.1807
 1483MES     CS 1483   5.330   5.133   1.450  0.0801 -0.0126 -0.0436
 1484MES     CS 1484   2.054   2.568   6.185 -0.1372  0.0225  0.1342
 1485MES     CS 1485   3.063   4.532   4.971  0.1653  0.1101 -0.1917
 1486MES     CS 1486   3.938   2.964   5.605  0.1823  0.0872 -0.1727
 1487MES     CS 1487   0.768   2.623   2.197 -0.1772 -0.4136 -0.1564
 1488MES     CS 1488   3.157   4.101   1.980  0.1902 -0.1314  0.1061
 1489MES     CS 1489   3.627   1.202   4.004  0.0651 -0.2078  0.1212
 1490MES     CS 1490   4.418   0.876   0.878  0.1879 -0.1302  0.2554
 1491MES     CS 1491   2.018   4.474   3.290 -0.1069 -0.0470 -0.1227
 1492MES     CS 1492   4.046   6.606   3.817  0.0418  0.1315 -0.0341
 1493MES     CS 1493   1.738   0.684   5.823  0.2437 -0.0535 -0.2904
 1494MES     CS 1494   0.898   0.435   5.089 -0.1307  0.1485  0.0151
 1495MES     CS 1495   5.839   4.619   1.704  0.1242  0.0431 -0.1005
 1496MES     CS 1496   1.143   3.872   0.296 -0.1312 -0.1244  0.1812
 1497MES     CS 1497   4.388   0.005   6.549 -0.4340 -0.0824  0.0260
 1498MES     CS 1498   1.811   1.455   3.623  0.0889 -0.1855 -0.4971
 1499MES     CS 1499   5.688   2.957   2.995 -0.3925  0.0866  0.2147
 1500MES     CS 1500   6.475   3.992   1.265  0.0050 -0.0873  0.1510
 1501MES     CS 1501   2.112   2.387   3.287  0.0446  0.1545 -0.2296
 1502MES     CS 1502   2.155   6.513   4.335 -0.3934  0.0530 -0.4629
 1503MES     CS 1503   2.050   3.726   1.588 -0.2612 -0.1692 -0.1177
 1504MES     CS 1504   5.919   5.661   3.034 -0.2942  0.1150 -0.1021
 1505MES     CS 1505   4.133   3.083   0.338  0.1214  0.2678  0.0803
 1506MES     CS 1506   5.997   2.048   2.570 -0.0176 -0.1525 -0.2954
 1507MES     CS 1507   5.470   6.325   2.716 -0.1024 -0.1824 -0.0437
 1508MES     CS 1508   1.600   4.993   0.399  0.1601  0.2464 -0.0277
 1509MES     CS 1509   6.412   3.914   5.261 -0.1019 -0.3367  0.0007
 1510MES     CS 1510   1.187   2.106   3.231 -0.1760 -0.3940 -0.0061
 1511MES     CS 1511   2.292   4.395   0.329 -0.0187 -0.0947 -0.2353
 1512MES     CS 1512   1.916   5.886   1.766  0.1657  0.1200 -0.2334
 1513MES     CS 1513   6.407   2.737   1.925  0.3547 -0.2205  0.3300
 1514MES     CS 1514   2.684   1.725   5.947 -0.2023  0.2707 -0.1785
 1515MES     CS 1515   2.716   0.526   3.608 -0.0751  0.1469  0.3149
 1516MES     CS 1516   0.769   0.511   5.789  0.0572 -0.2551  0.0228
 1517MES     CS 1517   6.179   2.220   3.088 -0.0240  0.1354 -0.1214
 1518MES     CS 1518   6.353   1.708   4.641  0.1732  0.0187 -0.1263
 1519MES     CS 1519   5.865   4.994   5.659 -0.1393  0.4069 -0.1456
 1520MES     CS 1520   4.143   3.545   5.650 -0.1565  0.0527  0.3334
 1521MES     CS 1521   0.715   0.106   4.495  0.3348  0.0030  0.0804
 1522MES     CS 1522   2.569   3.316   1.962 -0.1808 -0.0763  0.0290
 1523MES     CS 1523   6.212   2.001   1.364  0.1167 -0.1201 -0.0445
 1524MES     CS 1524   3.026   0.132   3.641 -0.1184  0.0982  0.0061
 1525MES     CS 1525   4.309   0.806   2.982  0.1521  0.0656  0.2625
 1526MES     CS 1526   5.052   3.227   6.623 -0.0961 -0.0364 -0.3132
 1527MES     CS 1527   3.009   6.524   6.614 -0.1139 -0.2368 -0.0813
 1528MES     CS 1528   1.985   2.807   5.210  0.0200 -0.4138  0.0788
 1529MES     CS 1529   5.390   4.610   4.892 -0.0712  0.1593 -0.0335
 1530MES     CS 1530   1.268   0.023   4.983  0.0811 -0.0112  0.0644
 1531MES     CS 1531   3.506   3.261   1.000  0.6858  0.1629 -0.1043
 1532MES     CS 1532   0.207   5.091   1.441  0.0215  0.0914 -0.1637
 1533MES     CS 1533   5.347   1.394   3.370  0.2779 -0.5024 -0.1022
 1534MES     CS 1534   5.145   2.548   2.736 -0.2545  0.0093  0.0379
 1535MES     CS 1535   6.232   4.659   0.756 -0.2233 -0.0485 -0.2749
 1536MES     CS 1536   1.661   6.253   3.627 -0.1733 -0.0020  0.0101
 1537MES     CS 1537   3.568   4.063   4.243  0.1727 -0.1908  0.0340
 1538MES     CS 1538   3.960   0.719   5.966 -0.1341 -0.3673 -0.0482
 1539MES     CS 1539   3.057   6.462   1.503 -0.1590  0.0157 -0.2620
 1540MES     CS 1540   5.593   4.057   0.869 -0.1365  0.2983 -0.1333
 1541MES     CS 1541   3.480   1.584   0.742  0.2092  0.0304 -0.1311
 1542MES     CS 1542   2.170   4.017   2.512  0.0868 -0.1052  0.0818
 1543MES     CS 1543   5.857   1.059   0.414  0.0366  0.1808 -0.0976
 1544MES     CS 1544   1.640   5.099   3.708 -0.0988 -0.0791  0.1864
 1545MES     CS 1545   3.513   1.807   2.720  0.2201 -0.1226  0.0560
 1546MES     CS 1546   0.712   5.907   4.630 -0.0160 -0.1881  0.1301
 1547MES     CS 1547   0.613   0.953   5.853  0.2659 -0.0887 -0.3113
 1548MES     CS 1548   3.009   0.773   1.342  0.1097 -0.2035  0.1404
 1549MES     CS 1549   6.291   4.715   0.230 -0.1152 -0.3077 -0.3924
 1550MES     CS 1550   4.109   2.474   5.553 -0.3552 -0.1179 -0.3927
 1551MES     CS 1551   4.623   4.193   0.816 -0.0386  0.0669 -0.0922
 1552MES     CS 1552   1.876   3.356   6.097 -0.2427 -0.1131  0.1702
 1553MES     CS 1553   3.415   2.461   5.433  0.3245  0.0042  0.0383
 1554MES     CS 1554   0.581   1.368   2.846 -0.1198 -0.1503  0.0259
 1555MES     CS 1555   2.426   3.155   2.752 -0.2317 -0.0539  0.1669
 1556MES     CS 1556   5.063   5.884   6.259 -0.0673  0.1905 -0.1460
 1557MES     CS 1557   1.116   0.784   1.408 -0.2267 -0.0004 -0.0745
 1558MES     CS 1558   1.061   3.953   6.262 -0.0680  0.0339 -0.1957
 1559MES     CS 1559   3.063   6.251   2.730  0.1167  0.1233 -0.0385
 1560MES     CS 1560   0.122   0.069   4.426 -0.1544 -0.1872  0.1000
 1561MES     CS 1561   0.706   3.291   3.756 -0.1528  0.0239  0.0426
 1562MES     CS 1562   4.694   2.892   1.217 -0.0009  0.1388 -0.1244
 1563MES     CS 1563   4.491   2.339   3.471  0.0990  0.2155  0.1390
 1564MES     CS 1564   5.344   1.974   3.462 -0.1798  0.0236  0.2348
 1565MES     CS 1565   2.164   6.551   3.149 -0.1993 -0.0500 -0.0263
 1566MES     CS 1566   5.483   2.206   4.632 -0.4118  0.1303 -0.0500
 1567MES     CS 1567   2.820   0.615   0.213  0.1342  0.1244 -0.0369
 1568MES     CS 1568   3.935   0.040   1.227  0.0491  0.0406 -0.0287
 1569MES     CS 1569   0.611   3.996   5.965 -0.1915 -0.3472  0.3583
 1570MES     CS 1570   5.155   5.277   5.536  0.1398 -0.0416 -0.1609
 1571MES     CS 1571   4.201   4.314   6.619 -0.1600  0.3263  0.0443
 1572MES     CS 1572   6.262   6.413   4.120 -0.1569  0.1358 -0.2737
 1573MES     CS 1573   2.006   5.487   2.241  0.0132  0.0957 -0.0349
 1574MES     CS 1574   5.592   5.709   1.555  0.2309 -0.1834  0.1274
 1575MES     CS 1575   3.813   2.172   5.321  0.5457  0.3846  0.0701
 1576MES     CS 1576   2.424   2.503   1.319 -0.0789 -0.0717 -0.1697
 1577MES     CS 1577   2.338   3.963   1.181  0.2773  0.0174 -0.2668
 1578MES     CS 1578   1.806   3.859   1.031  0.1276  0.1109  0.1777
 1579MES     CS 1579   0.940   1.098   0.473  0.3820 -0.1887 -0.1835
 1580MES     CS 1580   5.219   1.716   2.206 -0.1987  0.0638 -0.1385
 1581MES     CS 1581   0.352   2.468   2.543 -0.2020  0.3719  0.3589
 1582MES     CS 1582   0.480   4.104   5.266  0.1886  0.1157  0.0181
 1583MES     CS 1583   3.413   2.657   5.883 -0.1416 -0.0088 -0.0199
 1584MES     CS 1584   3.879   5.177   6.088  0.0094  0.1403 -0.0931
 1585MES     CS 1585   0.253   4.451   0.562  0.0915  0.0670 -0.0551
 1586MES     CS 1586   3.342   1.182   1.020  0.1313  0.0426 -0.1619
 1587MES     CS 1587   0.522   0.084   3.947  0.0090 -0.3095  0.0257
 1588MES     CS 1588   3.790   0.863   0.851  0.0416 -0.1998 -0.0277
 1589MES     CS 1589   2.535   5.538   0.105 -0.4319 -0.1640 -0.1601
 1590MES     CS 1590   4.878   0.423   4.140 -0.3811  0.2005  0.0728
 1591MES     CS 1591   4.465   5.063   4.847 -0.1448 -0.1713  0.2300
 1592MES     CS 1592   4.400   6.598   5.678 -0.0454 -0.0619  0.0835
 1593MES     CS 1593   0.779   6.317   2.558 -0.2546  0.0993  0.0097
 1594MES     CS 1594   0.822   5.567   0.415 -0.2084  0.1431  0.0001
 1595MES     CS 1595   1.569   6.049   1.399  0.2267  0.2573 -0.1132
 1596MES     CS 1596   5.521   6.452   2.053  0.0971 -0.0587 -0.0151
 1597MES     CS 1597   2.154   1.639   1.441 -0.0396 -0.5772  0.1710
 1598MES     CS 1598   1.901   3.541   6.566 -0.0765  0.3280 -0.0258
 1599MES     CS 1599   6.407   3.256   6.597  0.4123  0.0549  0.1797
 1600MES     CS 1600   4.951   0.131   3.347 -0.2102 -0.1352  0.1559
 1601MES     CS 1601   1.384   0.900   6.256 -0.3234 -0.1492 -0.0918
 1602MES     CS 1602   5.971   1.338   4.541  0.0644 -0.1078 -0.0581
 1603MES     CS 1603   2.449   5.008   6.093  0.2161 -0.3238  0.0142
 1604MES     CS 1604   3.255   1.448   4.504  0.3482  0.2815  0.1798
 1605MES     CS 1605   5.076   2.463   6.271  0.2792 -0.2036  0.2229
 1606MES     CS 1606   1.874   1.954   3.298  0.1007  0.0226  0.1599
 1607MES     CS 1607   2.120   5.835   2.776  0.1726 -0.0938 -0.1274
 1608MES     CS 1608   0.237   0.163   3.012  0.1669  0.0553 -0.1693
 1609MES     CS 1609   2.518   2.198   3.411  0.2004  0.1300  0.0756
 1610MES     CS 1610   3.908   4.381   5.693 -0.1358  0.0696  0.2391
 1611MES     CS 1611   4.934   5.882   4.749  0.1862  0.1048 -0.1075
 1612MES     CS 1612   2.989   0.372   6.383  0.3162  0.1167 -0.3481
 1613MES     CS 1613   1.740   6.183   2.676 -0.1050 -0.0548 -0.0471
 1614MES     CS 1614   3.192   2.888   0.802 -0.0013 -0.0617 -0.1131
 1615MES     CS 1615   3.175   1.271   5.703  0.2201  0.1105  0.2359
 1616MES     CS 1616   5.766   0.382   4.400 -0.0939  0.1484 -0.0890
 1617MES     CS 1617   1.988   5.110   1.241  0.3929  0.2307  0.1360
 1618MES     CS 1618   5.595   5.388   1.121  0.2142 -0.3390 -0.1978
 1619MES     CS 1619   6.309   1.766   6.451 -0.0778  0.4309  0.0806
 1620MES     CS 1620   5.976   3.314   6.421  0.1532 -0.3508  0.0814
 1621MES     CS 1621   3.936   0.823   0.130 -0.2058 -0.0836  0.0350
 1622MES     CS 1622   2.450   4.044   6.326 -0.1715 -0.3268  0.0121
 1623MES     CS 1623   3.042   3.250   5.627  0.0646  0.1191 -0.0540
 1624MES     CS 1624   1.763   6.443   0.910  0.1843 -0.0368 -0.0300
 1625MES     CS 1625   2.807   2.961   1.674  0.2077 -0.1697  0.1690
 1626MES     CS 1626   2.507   6.050   5.727 -0.1554  0.0494 -0.1231
 1627MES     CS 1627   4.322   2.832   2.909 -0.2337  0.0442 -0.1551
 1628MES     CS 1628   4.559   0.563   5.109  0.1435 -0.1272 -0.1246
 1629MES     CS 1629   6.254   3.513   3.511  0.0405 -0.0135 -0.2223
 1630MES     CS 1630   5.153   0.374   5.864  0.0404 -0.1959  0.0646
 1631MES     CS 1631   0.298   2.886   5.436  0.1707 -0.0154  0.1293
 1632MES     CS 1632   2.855   0.338   1.634  0.1672  0.1444  0.1158
 1633MES     CS 1633   2.668   4.373   0.025  0.0518  0.2356  0.1176
 1634MES     CS 1634   4.601   2.970   6.492 -0.0412  0.2512 -0.2289
 1635MES     CS 1635   3.710   3.386   6.611  0.0165 -0.1313 -0.1742
 1636MES     CS 1636   1.327   1.827   5.699 -0.1302 -0.3123  0.0243
 1637MES     CS 1637   0.462   5.625   2.149  0.3091  0.1583  0.1243
 1638MES     CS 1638   0.358   1.913   5.250  0.0658 -0.1251 -0.2331
 1639MES     CS 1639   2.565   5.444   4.793 -0.1673  0.1362  0.0274
 1640MES     CS 1640   3.512   1.117   0.003 -0.3684  0.1480 -0.2585
 1641MES     CS 1641   3.587   1.279   4.828 -0.1716  0.0062 -0.2159
 1642MES     CS 1642   2.863   3.523   6.259 -0.1615 -0.3137  0.0648
 1643MES     CS 1643   5.735   4.111   1.553 -0.0025  0.1452  0.1196
 1644MES     CS 1644   6.548   6.465   2.217 -0.0013  0.1830  0.0793
 1645MES     CS 1645   1.634   1.503   2.292  0.2369  0.1946  0.1064
 1646MES     CS 1646   1.888   1.313   2.724  0.2374 -0.1725 -0.0676
 1647MES     CS 1647   4.418   5.760   5.000  0.2507 -0.1668  0.1328
 1648MES     CS 1648   3.960   2.629   1.129 -0.0692 -0.0170 -0.0806
 1649MES     CS 1649   3.790   2.487   4.691 -0.2751  0.2304  0.0043
 1650MES     CS 1650   4.531   5.492   0.213 -0.1234 -0.2079 -0.1290
 1651MES     CS 1651   4.303   3.611   4.487  0.0157 -0.4196  0.3002
 1652MES     CS 1652   6.182   4.293   4.296  0.2902  0.4055  0.4322
 1653MES     CS 1653   6.312   3.599   5.637  0.3085  0.1502  0.4807
 1654MES     CS 1654   3.548   0.780   3.651  0.0579 -0.1955 -0.0318
 1655MES     CS 1655   3.185   5.579   3.426  0.1527 -0.0119  0.1147
 1656MES     CS 1656   5.918   3.845   5.301  0.2021  0.0394 -0.2523
 1657MES     CS 1657   5.721   4.085   4.222 -0.0772  0.1108 -0.1390
 1658MES     CS 1658   5.859   0.377   0.089 -0.0564  0.0393 -0.3811
 1659MES     CS 1659   3.022   3.962   2.498 -0.2794 -0.0984 -0.0874
 1660MES     CS 1660   5.042   2.172   5.362 -0.1168 -0.1318 -0.0739
 1661MES     CS 1661   4.756   5.143   2.414 -0.1097 -0.3490  0.0122
 1662MES     CS 1662   5.022   6.542   4.347  0.2648 -0.0355 -0.0147
 1663MES     CS 1663   3.029   3.264   1.094  0.1332  0.1091  0.0943
 1664MES     CS 1664   4.865   6.066   4.239 -0.1461  0.1692 -0.0966
 1665MES     CS 1665   4.174   5.637   4.041  0.2585  0.0780  0.1740
 1666MES     CS 1666   3.784   4.156   6.277  0.3069 -0.0010 -0.0491
 1667MES     CS 1667   1.160   2.357   6.430  0.3003  0.0460  0.0860
 1668MES     CS 1668   5.064   1.350   4.158  0.0096  0.0223  0.3038
 1669MES     CS 1669   3.509   3.725   6.038 -0.2173  0.2520 -0.0426
 1670MES     CS 1670   1.116   5.626   4.127 -0.1804  0.2123 -0.1562
 1671MES     CS 1671   3.513   1.778   3.322 -0.1764  0.1081  0.2047
 1672MES     CS 1672   3.051   2.063   1.666  0.0341  0.1605  0.1687
 1673MES     CS 1673   2.539   6.377   1.274 -0.2199  0.0588  0.3720
 1674MES     CS 1674   6.065   5.758   3.589  0.4040  0.1283  0.0247
 1675MES     CS 1675   0.728   1.056   1.238 -0.1324 -0.0745 -0.2034
 1676MES     CS 1676   1.519   4.132   4.297  0.0165 -0.1497 -0.2817
 1677MES     CS 1677   6.321   1.069   1.668 -0.1860  0.0027 -0.3044
 1678MES     CS 1678   4.254   5.786   0.838 -0.2488 -0.2063  0.0592
 1679MES     CS 1679   2.554   5.655   2.034 -0.0345  0.2849  0.0703
 1680MES     CS 1680   4.352   4.335   5.526 -0.2378  0.1612  0.0325
 1681MES     CS 1681   6.287   5.449   2.748  0.0179  0.0098 -0.2105
 1682MES     CS 1682   3.635   0.275   2.147 -0.0762 -0.1775 -0.1066
 1683MES     CS 1683   4.109   5.709   6.093  0.3700  0.0380  0.1112
 1684MES     CS 1684   1.881   4.854   6.296 -0.1626  0.1222 -0.1987
 1685MES     CS 1685   6.360   5.101   3.912 -0.0887 -0.1686  0.4077
 1686MES     CS 1686   0.930   4.201   5.465  0.1457  0.2585 -0.0271
 1687MES     CS 1687   0.688   4.521   2.471 -0.0528  0.0737 -0.1851
 1688MES     CS 1688   4.891   3.329   2.516  0.0627 -0.0542 -0.0094
 1689MES     CS 1689   6.060   3.174   1.849  0.0008  0.0350  0.3033
 1690MES     CS 1690   1.441   4.638   4.622 -0.0976  0.1460 -0.0359
 1691MES     CS 1691   4.734   0.020   0.795  0.2542 -0.3838 -0.1833
 1692MES     CS 1692   0.491   4.678   4.444 -0.3142 -0.0033 -0.0632
 1693MES     CS 1693   6.558   1.062   1.050  0.2605  0.3333  0.1257
 1694MES     CS 1694   4.761   4.344   5.942  0.2958 -0.3492  0.0265
 1695MES     CS 1695   6.262   2.891   4.863 -0.1900 -0.0399  0.3877
 1696MES     CS 1696   3.959   1.047   4.504  0.3303 -0.0803 -0.3166
 1697MES     CS 1697   1.568   6.481   5.492 -0.1173  0.0216 -0.0799
 1698MES     CS 1698   3.746   2.785   3.022  0.1655  0.0297 -0.3259
 1699MES     CS 1699   1.327   4.702   4.120  0.0167 -0.0701 -0.1287
 1700MES     CS 1700   3.934   6.524   5.262  0.2077  0.1495 -0.3854
 1701MES     CS 1701   1.155   1.336   1.354  0.3369 -0.0269 -0.0525
 1702MES     CS 1702   4.104   0.010   0.693 -0.0293  0.1038  0.2366
 1703MES     CS 1703   3.344   4.171   3.854 -0.1048  0.0257  0.0494
 1704MES     CS 1704   5.802   1.901   1.626  0.2925 -0.1129  0.0746
 1705MES     CS 1705   5.729   1.938   2.096 -0.1029  0.2770 -0.0371
 1706MES     CS 1706   0.754   5.305   6.254 -0.0069 -0.1725 -0.5127
 1707MES     CS 1707   2.875   6.422   5.604  0.1625  0.2258  0.0415
 1708MES     CS 1708   1.710   0.660   0.069  0.1620 -0.3305  0.0298
 1709MES     CS 1709   4.777   1.166   0.618 -0.2877  0.1570 -0.1298
 1710MES     CS 1710   2.052   2.099   2.287  0.2209  0.3713  0.1474
 1711MES     CS 1711   6.377   3.582   4.039 -0.1450 -0.0523 -0.0662
 1712MES     CS 1712   1.476   5.132   1.479  0.2212 -0.3494 -0.1487
 1713MES     CS 1713   0.983   4.698   1.088 -0.1153  0.1653  0.1356
 1714MES     CS 1714   1.777   4.767   2.922  0.0875  0.0964 -0.0356
 1715MES     CS 1715   2.037   2.982   2.018  0.1931 -0.0502  0.2726
 1716MES     CS 1716   1.964   2.188   2.843  0.1613  0.0224 -0.1197
 1717MES     CS 1717   2.101   6.039   3.255 -0.2272  0.0958  0.1770
 1718MES     CS 1718   4.581   0.867   1.325 -0.2819  0.0183 -0.0280
 1719MES     CS 1719   2.792   2.476   3.152 -0.0197 -0.3430  0.1173
 1720MES     CS 1720   2.918   4.205   4.086 -0.0079  0.0272  0.3382
 1721MES     CS 1721   6.091   2.058   5.245  0.1110  0.1258 -0.0903
 1722MES     CS 1722   4.594   4.127   5.140 -0.0638  0.3567  0.1242
 1723MES     CS 1723   6.300   1.264   3.633  0.0748  0.0323 -0.1084
 1724MES     CS 1724   6.146   3.131   6.004 -0.0854 -0.0999  0.0362
 1725MES     CS 1725   5.648   4.567   0.938 -0.0047 -0.2233  0.0395
 1726MES     CS 1726   1.396   0.640   4.150  0.0907 -0.1742  0.1640
 1727MES     CS 1727   4.088   2.194   0.887 -0.0224 -0.1259 -0.1494
 1728MES     CS 1728   2.899   1.873   2.103  0.1324  0.2839 -0.3285
 1729MES     CS 1729   0.652   0.029   5.657  0.0307 -0.0297 -0.1579
 1730MES     CS 1730   5.503   0.880   6.289  0.0544  0.3132  0.5289
 1731MES     CS 1731   2.894   4.240   1.576 -0.0748 -0.0938  0.0290
 1732MES     CS 1732   0.390   4.739   1.891  0.2978 -0.0321  0.0706
 1733MES     CS 1733   1.730   1.519   0.973 -0.4695 -0.1866  0.0385
 1734MES     CS 1734   3.396   0.246   4.612  0.1937 -0.0790 -0.0987
 1735MES     CS 1735   5.625   1.501   0.278  0.0164 -0.0750  0.0463
 1736MES     CS 1736   0.860   2.618   0.780  0.0370  0.3342  0.1334
 1737MES     CS 1737   1.547   5.965   5.703  0.3624 -0.1413  0.3270
 1738MES     CS 1738   1.564   3.511   5.697 -0.3801  0.1356  0.1221
 1739MES     CS 1739   4.057   1.414   3.226  0.0069 -0.2574 -0.1425
 1740MES     CS 1740   0.592   5.772   2.961 -0.2519  0.2697  0.1214
 1741MES     CS 1741   0.067   0.513   1.750 -0.4075  0.1850  0.0500
 1742MES     CS 1742   4.189   4.660   3.596  0.2467  0.2966 -0.3161
 1743MES     CS 1743   6.404   4.683   1.613  0.0787  0.0658  0.3367
 1744MES     CS 1744   5.230   6.300   6.430  0.1059  0.3088  0.1308
 1745MES     CS 1745   5.071   4.085   3.146  0.0112 -0.2831 -0.1855
 1746MES     CS 1746   0.438   5.518   0.136  0.1199 -0.1428  0.0416
 1747MES     CS 1747   0.870   2.911   1.362 -0.2017  0.2684 -0.2392
 1748MES     CS 1748   5.870   2.791   2.398  0.5176 -0.1035 -0.2370
 1749MES     CS 1749   1.429   5.248   2.319  0.0918  0.3347  0.0954
 1750MES     CS 1750   3.519   2.496   1.825  0.0971 -0.0064  0.0765
 1751MES     CS 1751   5.284   1.062   3.690  0.4225 -0.0779 -0.0081
 1752MES     CS 1752   5.353   4.031   2.678 -0.1594 -0.2254 -0.2220
 1753MES     CS 1753   5.361   1.120   0.525 -0.5604  0.0230  0.4574
 1754MES     CS 1754   5.727   4.406   2.246  0.2557 -0.3710 -0.1251
 1755MES     CS 1755   4.223   5.893   2.683  0.0239 -0.0276 -0.0993
 1756MES     CS 1756   0.910   1.063   6.544  0.2456 -0.0248  0.1538
 1757MES     CS 1757   1.461   3.495   0.265  0.1837  0.0487 -0.1149
 1758MES     CS 1758   3.710   5.184   2.783 -0.1732 -0.0120 -0.2665
 1759MES     CS 1759   6.285   1.823   3.565 -0.1402  0.0127 -0.0733
 1760MES     CS 1760   1.134   0.624   2.048  0.0210 -0.0487  0.2285
 1761MES     CS 1761   3.414   2.157   2.155  0.1028  0.3072 -0.3037
 1762MES     CS 1762   2.693   2.864   2.159 -0.2013 -0.1218  0.1937
 1763MES     CS 1763   2.682   3.825   3.144 -0.1436 -0.0868  0.0072
 1764MES     CS 1764   3.530   2.036   3.767  0.3490  0.3697 -0.0935
 1765MES     CS 1765   5.426   4.338   0.287 -0.0211 -0.0030  0.6588
 1766MES     CS 1766   5.169   0.529   4.974  0.0755  0.1445 -0.0340
 1767MES     CS 1767   6.279   6.251   5.967 -0.3069  0.1023  0.0175
 1768MES     CS 1768   6.364   0.003   3.657 -0.1257  0.0841  0.1839
 1769MES     CS 1769   1.456   3.614   6.312  0.0349 -0.1241  0.1004
 1770MES     CS 1770   2.049   0.363   2.218 -0.1436  0.0539  0.5101
 1771MES     CS 1771   2.956   5.117   6.084  0.2519  0.1334 -0.2692
 1772MES     CS 1772   1.762   2.019   0.933 -0.1982 -0.1169  0.0283
 1773MES     CS 1773   3.447   5.008   4.695  0.1726  0.0693  0.4042
 1774MES     CS 1774   6.054   1.599   2.355  0.3194  0.3677 -0.0536
 1775MES     CS 1775   0.495   3.482   2.614  0.2091  0.0330  0.2819
 1776MES     CS 1776   5.648   5.135   6.146  0.1071 -0.0286  0.0510
 1777MES     CS 1777   2.576   5.405   5.812  0.4376  0.2833 -0.1803
 1778MES     CS 1778   5.749   0.334   0.992 -0.0382  0.1234 -0.0211
 1779MES     CS 1779   4.917   3.695   6.615 -0.1583 -0.2711  0.0767
 1780MES     CS 1780   1.403   1.044   1.703 -0.2377 -0.0679  0.0154
 1781MES     CS 1781   0.492   1.246   0.768 -0.0783 -0.1023 -0.0190
 1782MES     CS 1782   0.815   5.400   5.466 -0.0989  0.0158 -0.0817
 1783MES     CS 1783   6.018   1.468   1.453  0.3229 -0.0144  0.1400
 1784MES     CS 1784   0.150   0.388   3.448 -0.0195  0.3030 -0.3713
 1785MES     CS 1785   6.303   1.206   0.603  0.0509  0.1274  0.1154
 1786MES     CS 1786   0.699   0.957   3.563  0.0078  0.1087 -0.2491
 1787MES     CS 1787   1.072   0.611   3.718 -0.1944  0.0447  0.2460
 1788MES     CS 1788   6.390   4.240   0.411 -0.2264  0.1078  0.1325
 1789MES     CS 1789   1.329   5.591   1.559  0.0720 -0.1579  0.0200
 1790MES     CS 1790   1.763   1.356   1.843 -0.0566  0.0883  0.1409
 1791MES     CS 1791   4.371   0.086   5.182 -0.0460  0.1590 -0.2455
 1792MES     CS 1792   0.807   5.472   3.742  0.0432 -0.1150  0.0387
 1793MES     CS 1793   3.809   5.741   5.710 -0.2456 -0.1086 -0.2722
 1794MES     CS 1794   2.733   1.587   1.729 -0.0633  0.2927 -0.0265
 1795MES     CS 1795   6.456   2.660   3.236 -0.0782  0.1520 -0.1857
 1796MES     CS 1796   3.868   3.407   4.677 -0.4934  0.1954 -0.1885
 1797MES     CS 1797   0.150   2.391   0.161 -0.1868 -0.2544 -0.0004
 1798MES     CS 1798   2.805   6.580   1.928  0.1135  0.2677  0.0370
 1799MES     CS 1799   4.867   5.876   2.281 -0.1075  0.1580  0.2421
 1800MES     CS 1800   3.458   0.119   1.727 -0.1247 -0.2715  0.1427
 1801MES     CS 1801   4.760   0.900   4.236 -0.0543 -0.1573 -0.0857
 1802MES     CS 1802   4.253   3.183   2.518  0.0011  0.2336 -0.1987
 1803MES     CS 1803   2.023   2.697   1.593 -0.2142  0.0554  0.2065
 1804MES     CS 1804   3.644   1.994   0.988 -0.0854 -0.3129  0.2153
 1805MES     CS 1805   5.010   4.047   2.336 -0.3069  0.1345 -0.0616
 1806MES     CS 1806   2.639   0.669   5.474  0.0424  0.1524  0.1798
 1807MES     CS 1807   0.398   2.571   3.071 -0.2148 -0.0560 -0.1526
 1808MES     CS 1808   6.171   0.611   2.575 -0.1627 -0.0263  0.1018
 1809MES     CS 1809   1.559   3.092   1.837 -0.0469 -0.3653  0.1118
 1810MES     CS 1810   2.315   6.319   6.199  0.0545 -0.2176  0.2875
 1811MES     CS 1811   1.426   4.193   3.793 -0.1093 -0.2106  0.2491
 1812MES     CS 1812   3.709   4.230   5.271  0.0786 -0.0770 -0.0189
 1813MES     CS 1813   0.486   0.260   6.188  0.2201 -0.1631 -0.2080
 1814MES     CS 1814   3.121   1.822   0.596  0.4197 -0.0869  0.0135
 1815MES     CS 1815   5.480   4.581   2.707 -0.3403  0.1336 -0.1245
 1816MES     CS 1816   2.834   3.571   4.761 -0.2161 -0.1619 -0.3660
 1817MES     CS 1817   2.702   0.034   0.393  0.3758 -0.1923  0.2167
 1818MES     CS 1818   5.065   0.886   2.328 -0.2630 -0.0619 -0.1442
 1819MES     CS 1819   0.572   1.890   3.980 -0.0453 -0.0310  0.1635
 1820MES     CS 1820   6.221   6.001   0.777 -0.3604 -0.2369  0.1731
 1821MES     CS 1821   0.611   2.440   6.519  0.2152 -0.0460 -0.0457
 1822MES     CS 1822   5.355   6.437   3.193 -0.0709 -0.0722  0.5205
 1823MES     CS 1823   0.909   3.257   4.575 -0.2569  0.0474  0.1214
 1824MES     CS 1824   2.761   2.707   0.933 -0.1929 -0.0556  0.0245
 1825MES     CS 1825   4.420   3.265   0.740  0.2060  0.0695 -0.2058
 1826MES     CS 1826   6.231   3.677   6.184 -0.0409 -0.1046 -0.0669
 1827MES     CS 1827   1.799   4.308   0.363  0.2925  0.1162  0.0185
 1828MES     CS 1828   3.399   3.352   5.174  0.4090 -0.0619 -0.1772
 1829MES     CS 1829   0.883   3.656   3.383 -0.0439 -0.0121 -0.0536
 1830MES     CS 1830   4.101   5.435   2.946  0.1246  0.0899  0.1323
 1831MES     CS 1831   5.717   2.017   3.088  0.0292  0.0446  0.3006
 1832MES     CS 1832   5.130   3.515   1.964  0.0247 -0.0524 -0.0757
 1833MES     CS 1833   4.271   5.154   5.716 -0.0133 -0.0058  0.3059
 1834MES     CS 1834   5.741   2.885   4.171 -0.1036  0.0474  0.0167
 1835MES     CS 1835   6.163   6.141   4.866  0.0809 -0.2962 -0.1872
 1836MES     CS 1836   4.962   5.132   4.142 -0.1323 -0.0634  0.2619
 1837MES     CS 1837   0.345   2.728   1.413  0.0684  0.3074  0.2473
 1838MES     CS 1838   3.619   3.734   3.809  0.1074  0.0572 -0.2234
 1839MES     CS 1839   6.283   2.915   2.854  0.0525 -0.1346 -0.1063
 1840MES     CS 1840   4.603   5.646   2.796 -0.0284  0.1087  0.1009
 1841MES     CS 1841   1.440   1.079   3.579  0.1266  0.1878  0.0520
 1842MES     CS 1842   3.139   0.477   4.041  0.1787  0.0183  0.0057
 1843MES     CS 1843   2.587   4.080   5.092  0.1964 -0.1797 -0.2103
 1844MES     CS 1844   1.161   6.514   1.653 -0.0815 -0.1056  0.3374
 1845MES     CS 1845   3.872   3.590   4.165  0.0686  0.0548 -0.0856
 1846MES     CS 1846   0.613   1.726   4.597  0.2801 -0.1227  0.1944
 1847MES     CS 1847   4.132   4.147   0.503  0.2545  0.0021  0.3138
 1848MES     CS 1848   0.937   0.454   3.137  0.0045  0.2684 -0.0596
 1849MES     CS 1849   5.376   2.868   4.765  0.2758  0.1033  0.0682
 1850MES     CS 1850   2.689   6.121   2.069 -0.1004 -0.0090  0.1223
 1851MES     CS 1851   6.215   5.430   0.989 -0.0799  0.0482 -0.3530
 1852MES     CS 1852   3.327   3.379   1.488 -0.0757  0.1416  0.1589
 1853MES     CS 1853   2.124   5.269   5.712 -0.1343 -0.0654 -0.1534
 1854MES     CS 1854   1.841   5.650   3.412  0.1385  0.1252 -0.0364
 1855MES     CS 1855   0.049   1.474   0.121  0.3684 -0.3363 -0.1572
 1856MES     CS 1856   4.536   1.967   2.996 -0.2556 -0.1066 -0.1247
 1857MES     CS 1857   0.642   6.567   5.080 -0.1517 -0.0234 -0.3873
 1858MES     CS 1858   4.777   6.645   1.638 -0.1827 -0.2529  0.0523
 1859MES     CS 1859   1.259   1.919   0.998 -0.3327 -0.1378  0.0280
 1860MES     CS 1860   0.833   5.069   3.173  0.0613  0.2281  0.0996
 1861MES     CS 1861   1.422   2.102   4.343  0.0520  0.1265  0.0257
 1862MES     CS 1862   2.564   0.317   2.763 -0.0932 -0.0715  0.0027
 1863MES     CS 1863   3.797   2.165   4.216 -0.2940 -0.2258  0.1037
 1864MES     CS 1864   0.118   6.297   4.042  0.2575 -0.0212 -0.0529
 1865MES     CS 1865   4.458   2.371   1.273 -0.2007 -0.0187  0.2579
 1866MES     CS 1866   0.071   2.930   4.970  0.1961  0.0024  0.1534
 1867MES     CS 1867   0.127   5.101   2.985 -0.1024 -0.1381 -0.3609
 1868MES     CS 1868   5.085   3.426   3.335  0.0044  0.1486 -0.2443
 1869MES     CS 1869   4.965   0.024   3.866  0.2999 -0.0045  0.0678
 1870MES     CS 1870   4.723   5.020   1.065 -0.0105 -0.2206 -0.3758
 1871MES     CS 1871   2.290   6.196   1.795 -0.1912  0.0640 -0.2108
 1872MES     CS 1872   4.088   1.543   4.662 -0.0920  0.1388 -0.2587
 1873MES     CS 1873   3.616   4.654   4.114  0.1083  0.1233 -0.2684
 1874MES     CS 1874   6.182   4.790   4.347  0.0706 -0.1586 -0.0037
 1875MES     CS 1875   2.789   5.405   2.544  0.1134 -0.0995 -0.0626
 1876MES     CS 1876   3.108   1.802   6.292 -0.0795  0.3891 -0.0687
 1877MES     CS 1877   2.175   6.588   5.278 -0.1467  0.0948  0.2790
 1878MES     CS 1878   0.570   0.609   1.510 -0.5341 -0.0641 -0.1844
 1879MES     CS 1879   1.379   1.555   0.623 -0.1193 -0.0453 -0.0274
 1880MES     CS 1880   4.297   3.561   3.723 -0.1504 -0.1576  0.2140
 1881MES     CS 1881   2.303   3.625   2.915  0.2986 -0.3812 -0.0245
 1882MES     CS 1882   1.048   0.048   0.244 -0.0265 -0.1099 -0.1886
 1883MES     CS 1883   2.750   4.783   0.982 -0.1045  0.1292 -0.3187
 1884MES     CS 1884   3.300   1.619   1.644  0.0402 -0.1222 -0.1528
 1885MES     CS 1885   5.924   5.864   5.295  0.1195 -0.1339  0.1393
 1886MES     CS 1886   6.621   2.390   4.680  0.4178 -0.0593 -0.2662
 1887MES     CS 1887   2.794   1.837   3.814  0.1429  0.0483  0.1502
 1888MES     CS 1888   1.201   0.207   1.228  0.1033 -0.0876 -0.0119
 1889MES     CS 1889   1.740   4.607   5.395 -0.2233  0.4097 -0.2613
 1890MES     CS 1890   2.361   1.975   5.419 -0.1571  0.0005 -0.3453
 1891MES     CS 1891   4.597   2.376   2.628 -0.3432 -0.4972 -0.1336
 1892MES     CS 1892   3.547   4.648   5.027  0.1412 -0.0624 -0.0208
 1893MES     CS 1893   0.360   6.164   2.000  0.2032  0.2368  0.0211
 1894MES     CS 1894   4.042   0.252   5.985  0.1151 -0.1978  0.0516
 1895MES     CS 1895   3.092   5.549   0.914  0.0052  0.2186  0.1427
 1896MES     CS 1896   3.088   5.476   2.902  0.0255  0.2091 -0.1237
 1897MES     CS 1897   3.107   2.029   2.968  0.0670 -0.1459  0.1551
 1898MES     CS 1898   3.370   1.140   2.007 -0.0397 -0.1625 -0.0440
 1899MES     CS 1899   1.952   2.478   1.111  0.0145  0.1241  0.0642
 1900MES     CS 1900   6.186   5.256   5.973  0.1476  0.0683 -0.0876
 1901MES     CS 1901   4.546   2.911   4.557 -0.0192 -0.2444  0.1194
 1902MES     CS 1902   1.581   3.914   0.044  0.2251  0.0849 -0.1890
 1903MES     CS 1903   5.816   3.618   0.655 -0.1359  0.4038  0.0404
 1904MES     CS 1904   4.447   5.248   4.297  0.1109  0.2082 -0.0422
 1905MES     CS 1905   0.240   2.384   5.238  0.0100  0.0935  0.0690
 1906MES     CS 1906   3.716   4.606   6.634 -0.0016  0.2743 -0.1847
 1907MES     CS 1907   0.103   3.570   3.391  0.0908 -0.0478 -0.1982
 1908MES     CS 1908   5.918   0.505   6.070  0.0115  0.0053 -0.0754
 1909MES     CS 1909   6.578   3.413   5.083  0.1039  0.0828 -0.0434
 1910MES     CS 1910   6.629   4.573   3.003 -0.2267 -0.0987 -0.0348
 1911MES     CS 1911   4.629   6.475   0.292 -0.3995 -0.1718  0.1263
 1912MES     CS 1912   5.994   2.344   5.669  0.1179 -0.0489 -0.1244
 1913MES     CS 1913   4.927   0.828   1.017  0.1878 -0.0661  0.1353
 1914MES     CS 1914   4.954   4.216   5.512  0.1101  0.0612  0.3678
 1915MES     CS 1915   0.474   4.515   0.035  0.1953 -0.1090  0.0112
 1916MES     CS 1916   1.855   3.260   1.140 -0.1023  0.0709 -0.0808
 1917MES     CS 1917   4.010   2.551   6.139  0.3987  0.0228 -0.2017
 1918MES     CS 1918   5.381   3.990   3.572  0.0572 -0.2149 -0.0730
 1919MES     CS 1919   2.153   0.540   3.078 -0.1262  0.2130  0.0627
 1920MES     CS 1920   6.199   5.185   1.791 -0.1348 -0.0242  0.2538
 1921MES     CS 1921   6.496   3.215   1.522  0.2434  0.1745  0.0744
 1922MES     CS 1922   5.366   1.775   6.494 -0.0705  0.1593  0.0087
 1923MES     CS 1923   3.520   4.490   3.537  0.1313  0.0504  0.0594
 1924MES     CS 1924   0.841   4.270   3.700  0.1503  0.0099 -0.1619
 1925MES     CS 1925   0.900   2.126   4.667 -0.0910  0.1606  0.2103
 1926MES     CS 1926   4.274   2.121   4.513  0.0353  0.0827  0.2076
 1927MES     CS 1927   1.723   3.053   6.482 -0.3895  0.0542 -0.1207
 1928MES     CS 1928   1.090   1.448   5.963  0.0997 -0.1729  0.0080
 1929MES     CS 1929   5.045   4.602   3.154 -0.0224 -0.4881 -0.2392
 1930MES     CS 1930   0.998   6.404   4.678 -0.2164 -0.2030 -0.4121
 1931MES     CS 1931   2.568   0.034   5.874  0.2200  0.0250 -0.3694
 1932MES     CS 1932   0.259   1.915   0.469  0.0376  0.3306  0.1484
 1933MES     CS 1933   0.426   3.790   1.907  0.0225 -0.3296 -0.1549
 1934MES     CS 1934   3.431   2.347   0.172 -0.1017 -0.1949  0.1466
 1935MES     CS 1935   3.267   5.290   1.565 -0.3178  0.0875  0.1378
 1936MES     CS 1936   3.975   2.211   0.005 -0.1527 -0.2046 -0.1659
 1937MES     CS 1937   1.075   6.527   3.264  0.0823  0.2847 -0.3255
 1938MES     CS 1938   5.395   5.808   0.112 -0.1393  0.0419  0.0206
 1939MES     CS 1939   1.970   3.778   0.411  0.0667  0.2066  0.0526
 1940MES     CS 1940   3.879   6.286   0.929 -0.0068 -0.3215 -0.0629
 1941MES     CS 1941   2.776   5.106   1.773  0.1576  0.0050 -0.3042
 1942MES     CS 1942   2.574   2.664   4.137  0.0805 -0.1286 -0.0590
 1943MES     CS 1943   0.392   1.833   6.634  0.2174  0.1995 -0.1347
 1944MES     CS 1944   5.302   3.564   6.188  0.0598 -0.0127  0.0328
 1945MES     CS 1945   1.683   6.286   1.954  0.2871 -0.1616  0.2470
 1946MES     CS 1946   5.846   1.700   5.561 -0.0282  0.0551  0.3350
 1947MES     CS 1947   0.608   0.711   0.616  0.1487  0.4562  0.3217
 1948MES     CS 1948   0.869   6.145   0.078 -0.0341  0.0488  0.2720
 1949MES     CS 1949   0.547   4.499   4.963 -0.2904 -0.0018  0.0061
 1950MES     CS 1950   5.410   0.332   6.310  0.1311 -0.2912 -0.1269
 1951MES     CS 1951   2.330   2.653   2.507 -0.3408 -0.1585 -0.1356
 1952MES     CS 1952   5.394   2.113   6.080  0.0321  0.1202 -0.2789
 1953MES     CS 1953   3.965   0.392   4.380 -0.1258  0.0625  0.0373
 1954MES     CS 1954   1.411   1.057   5.093 -0.1257  0.0034  0.3288
 1955MES     CS 1955   6.586   3.407   6.009  0.0990 -0.1108  0.2016
 1956MES     CS 1956   1.155   1.372   2.171 -0.0089 -0.1095  0.3501
 1957MES     CS 1957   3.704   6.100   5.420 -0.0006 -0.0498 -0.0475
 1958MES     CS 1958   6.563   4.045   3.462 -0.2111 -0.0053  0.2297
 1959MES     CS 1959   2.613   6.025   2.557  0.2597 -0.0439 -0.0318
 1960MES     CS 1960   3.601   4.258   1.740  0.0610 -0.1748 -0.1731
 1961MES     CS 1961   3.298   2.574   3.911  0.0952  0.0138 -0.0762
 1962MES     CS 1962   6.476   4.545   4.776  0.0134 -0.0194 -0.2792
 1963MES     CS 1963   1.541   6.180   4.706  0.4189 -0.2454  0.0417
 1964MES     CS 1964   3.125   6.283   2.241 -0.1700  0.2594 -0.0577
 1965MES     CS 1965   3.005   4.141   6.266  0.1917 -0.2386 -0.1292
 1966MES     CS 1966   0.457   1.169   6.363  0.0366  0.1694 -0.0967
 1967MES     CS 1967   4.395   4.351   4.617  0.0160 -0.0841 -0.2517
 1968MES     CS 1968   6.450   6.450   3.148  0.2188 -0.2278  0.0386
 1969MES     CS 1969   3.591   2.998   4.797  0.3475  0.1539 -0.2970
 1970MES     CS 1970   4.942   0.197   6.436  0.0511 -0.2945  0.0054
 1971MES     CS 1971   5.050   3.215   1.435  0.0995  0.0008 -0.1866
 1972MES     CS 1972   1.524   0.694   1.129  0.0308 -0.0162 -0.2917
 1973MES     CS 1973   2.085   3.369   5.252  0.1892  0.0892 -0.1154
 1974MES     CS 1974   1.152   1.146   4.181 -0.0520 -0.1057  0.0188
 1975MES     CS 1975   5.419   2.833   0.896 -0.2056  0.1966  0.0563
 1976MES     CS 1976   3.925   2.338   2.173 -0.2142 -0.3732 -0.0844
 1977MES     CS 1977   1.855   1.885   5.608 -0.0859 -0.0589 -0.0293
 1978MES     CS 1978   0.707   6.518   2.027  0.2661 -0.0620  0.1940
 1979MES     CS 1979   2.294   1.352   0.599  0.1816  0.1752 -0.1720
 1980MES     CS 1980   2.450   2.381   5.189  0.2602 -0.1014  0.1239
 1981MES     CS 1981   2.145   6.153   4.945 -0.0489 -0.0206  0.1891
 1982MES     CS 1982   4.690   4.444   1.852  0.6146 -0.2664 -0.4357
 1983MES     CS 1983   3.224   0.040   2.890 -0.0164  0.0292  0.0563
 1984MES     CS 1984   6.558   5.540   0.638  0.2022  0.3972  0.2691
 1985MES     CS 1985   6.490   4.413   2.599  0.0107  0.3457 -0.1682
 1986MES     CS 1986   3.926   5.297   0.400 -0.1647 -0.0230 -0.2256
 1987MES     CS 1987   6.011   0.977   4.966  0.1684  0.0111  0.1027
 1988MES     CS 1988   2.241   0.413   5.243  0.3010  0.2566  0.1087
 1989MES     CS 1989   0.325   5.016   4.124 -0.1711  0.3163  0.1945
 1990MES     CS 1990   6.604   3.528   2.510  0.1511 -0.0380  0.0457
 1991MES     CS 1991   0.191   6.322   5.003  0.1239  0.0571  0.3935
 1992MES     CS 1992   3.686   2.978   2.552  0.1754  0.2236 -0.3151
 1993MES     CS 1993   6.248   3.086   2.408 -0.1310 -0.1935  0.2664
 1994MES     CS 1994   1.155   6.418   5.763  0.2094  0.3060 -0.2492
 1995MES     CS 1995   4.879   5.326   4.653  0.1698  0.0272 -0.0087
 1996MES     CS 1996   1.996   3.997   3.017  0.0399 -0.2742  0.1291
 1997MES     CS 1997   3.381   6.129   5.776  0.0746  0.1643 -0.2677
 1998MES     CS 1998   2.197   1.439   4.775 -0.0006 -0.1131 -0.0317
 1999MES     CS 1999   4.038   6.519   1.796  0.2783  0.2215 -0.2505
 2000MES     CS 2000   0.185   3.964   4.889  0.2086 -0.2252  0.0207
 2001MES     CS 2001   3.075   2.235   5.747 -0.0018 -0.2300 -0.0225
 2002MES     CS 2002   4.516   4.999   0.192  0.1880 -0.0724  0.0089
 2003MES     CS 2003   0.515   0.698   5.266 -0.0412 -0.0203  0.0850
 2004MES     CS 2004   5.169   0.985   1.497 -0.1863  0.1270  0.2661
 2005MES     CS 2005   1.051   4.098   0.804 -0.0576 -0.1982 -0.1046
 2006MES     CS 2006   2.457   4.313   2.253 -0.1500  0.1295  0.2410
 2007MES     CS 2007   3.501   5.947   3.392 -0.3941 -0.3581  0.1842
 2008MES     CS 2008   0.588   5.092   2.176 -0.1998 -0.2139  0.0324
 2009MES     CS 2009   4.799   2.539   0.833  0.1151 -0.2570 -0.0601
 2010MES     CS 2010   3.311   1.586   2.162 -0.1659 -0.1043 -0.1371
 2011MES     CS 2011   5.270   0.956   4.644  0.0375 -0.1015 -0.0621
 2012MES     CS 2012   0.116   1.209   5.947  0.2767 -0.0642  0.0140
 2013MES     CS 2013   3.354   3.097   6.568  0.4868 -0.1081 -0.1120
 2014MES     CS 2014   6.135   4.296   6.084  0.1498  0.1345 -0.0691
 2015MES     CS 2015   3.540   0.397   6.070  0.3532  0.0050  0.1062
 2016MES     CS 2016   4.908   0.760   6.312 -0.3145 -0.3217 -0.1960
 2017MES     CS 2017   5.402   6.489   5.246  0.2161 -0.0679 -0.3228
 2018MES     CS 2018   3.036   5.916   3.068 -0.1065 -0.1678  0.2229
 2019MES     CS 2019   3.784   2.701   5.218 -0.1705  0.0594  0.2047
 2020MES     CS 2020   4.209   1.816   0.097  0.2821  0.1845 -0.1828
 2021MES     CS 2021   0.675   0.295   0.982  0.2224 -0.0936 -0.1767
 2022MES     CS 2022   3.552   6.345   3.039 -0.0499 -0.0203 -0.2685
 2023MES     CS 2023   2.680   0.844   2.672  0.2597  0.1539  0.2401
 2024MES     CS 2024   1.369   2.796   6.265 -0.2059 -0.1147  0.0380
 2025MES     CS 2025   1.592   1.559   5.280  0.1203  0.0727 -0.0232
 2026MES     CS 2026   6.207   1.397   6.166 -0.2193  0.0688  0.2395
 2027MES     CS 2027   0.977   2.789   5.980 -0.0565 -0.0147  0.2671
 2028MES     CS 2028   6.606   1.026   6.441 -0.1747  0.2645 -0.0951
 2029MES     CS 2029   5.476   3.815   0.396 -0.0547 -0.1116 -0.2985
 2030MES     CS 2030   0.124   1.638   6.228 -0.0300  0.0265 -0.2377
 2031MES     CS 2031   2.364   0.612   0.551 -0.1071 -0.1799  0.0988
 2032MES     CS 2032   3.300   5.081   5.543  0.0036 -0.2885 -0.0882
 2033MES     CS 2033   0.864   5.095   4.689 -0.0320 -0.0419 -0.1381
 2034MES     CS 2034   0.478   3.698   3.088  0.1376 -0.1021  0.0450
 2035MES     CS 2035   0.496   3.555   1.398 -0.0428  0.0743 -0.0089
 2036MES     CS 2036   5.540   0.704   1.347 -0.0721  0.1048 -0.0241
 2037MES     CS 2037   5.959   2.327   1.862  0.1366 -0.1805 -0.0352
 2038MES     CS 2038   2.721   5.010   3.835  0.0587 -0.1944 -0.2509
 2039MES     CS 2039   1.162   6.055   4.427 -0.0608 -0.0037 -0.1514
 2040MES     CS 2040   0.295   6.295   0.666 -0.2366 -0.2269 -0.1507
 2041MES     CS 2041   5.080   3.599   3.883  0.1413  0.0828 -0.1979
 2042MES     CS 2042   3.757   0.392   3.916 -0.0472 -0.0567  0.0769
 2043MES     CS 2043   4.706   2.413   4.573 -0.5363  0.0189 -0.0201
 2044MES     CS 2044   0.826   5.689   1.703  0.0554  0.4140 -0.0669
 2045MES     CS 2045   3.171   0.126   2.256  0.1299 -0.1079  0.1426
 2046MES     CS 2046   3.007   5.823   2.387  0.2039  0.2823  0.0256
 2047MES     CS 2047   5.359   2.494   3.204  0.2649 -0.1600 -0.2283
 2048MES     CS 2048   4.900   2.121   4.232 -0.5292 -0.0706 -0.4132
 2049MES     CS 2049   6.592   5.459   5.620  0.3097 -0.1237  0.0646
 2050MES     CS 2050   3.365   5.382   5.959  0.2675 -0.1450  0.1546
 2051MES     CS 2051   5.079   6.351   5.631  0.0405 -0.2878  0.0252
 2052MES     CS 2052   1.829   3.894   6.091 -0.2061  0.2196  0.0123
 2053MES     CS 2053   4.741   2.856   2.576 -0.3131 -0.0684  0.1463
 2054MES     CS 2054   2.508   3.180   3.886 -0.1775 -0.3159  0.0148
 2055MES     CS 2055   2.562   4.876   3.376  0.1612 -0.1628 -0.0578
 2056MES     CS 2056   0.946   3.823   1.609 -0.0901 -0.1192 -0.2136
 2057MES     CS 2057   1.718   6.573   2.380 -0.2144 -0.1277 -0.2209
 2058MES     CS 2058   1.581   2.839   0.241 -0.2788 -0.1618 -0.0144
 2059MES     CS 2059   3.395   6.013   0.974  0.0354  0.1804  0.2482
 2060MES     CS 2060   0.222   0.815   4.506 -0.0254 -0.1136 -0.2484
 2061MES     CS 2061   6.324   1.516   1.052 -0.0919 -0.1514  0.2179
 2062MES     CS 2062   4.929   0.101   5.388 -0.1476 -0.1344  0.0731
 2063MES     CS 2063   2.408   1.287   2.539  0.2907 -0.2242 -0.3479
 2064MES     CS 2064   4.764   3.221   3.669 -0.1204 -0.1132 -0.1501
 2065MES     CS 2065   0.952   5.281   1.403 -0.0552  0.2387 -0.1229
 2066MES     CS 2066   4.214   3.953   1.901 -0.0536  0.0078  0.2588
 2067MES     CS 2067   6.396   1.195   5.561 -0.0071 -0.1942  0.5657
 2068MES     CS 2068   2.139   1.242   1.134 -0.2694  0.3644 -0.0372
 2069MES     CS 2069   4.245   2.625   6.569 -0.0341  0.1649 -0.0493
 2070MES     CS 2070   3.021   5.049   3.253  0.1049  0.0188  0.0857
 2071MES     CS 2071   1.543   3.068   5.265 -0.2150  0.0785 -0.0815
 2072MES     CS 2072   1.062   2.003   1.537 -0.3264  0.2381 -0.0846
 2073MES     CS 2073   1.354   4.030   1.840 -0.0611 -0.2372 -0.1464
 2074MES     CS 2074   0.888   4.429   6.016 -0.0188 -0.0734  0.0226
 2075MES     CS 2075   4.050   4.087   4.324  0.0733  0.1080 -0.1811
 2076MES     CS 2076   1.409   1.624   4.130 -0.2314  0.1494  0.0404
 2077MES     CS 2077   1.198   3.345   3.183 -0.0735 -0.0611 -0.0236
 2078MES     CS 2078   4.742   6.311   6.345 -0.4596 -0.1147 -0.2030
 2079MES     CS 2079   4.455   6.549   2.003  0.0522  0.5022  0.1207
 2080MES     CS 2080   1.013   4.933   6.140 -0.2202  0.0177 -0.0129
 2081MES     CS 2081   3.459   5.968   2.475 -0.0758 -0.0434  0.1816
 2082MES     CS 2082   0.352   5.091   6.541 -0.0328  0.1472 -0.0940
 2083MES     CS 2083   4.916   1.126   0.056 -0.1341 -0.3376 -0.1867
 2084MES     CS 2084   3.608   1.825   0.020  0.2529 -0.3216  0.0602
 2085MES     CS 2085   6.517   5.508   3.184 -0.0645 -0.0571 -0.2451
 2086MES     CS 2086   1.075   5.118   0.608  0.2641 -0.1179 -0.0243
 2087MES     CS 2087   1.607   5.617   2.701  0.1675 -0.1905 -0.2319
 2088MES     CS 2088   2.763   0.553   4.340  0.2271 -0.4181 -0.0413
 2089MES     CS 2089   4.679   5.419   5.422 -0.5074  0.3644  0.0053
 2090MES     CS 2090   0.142   4.221   1.671  0.1613  0.0325  0.0882
 2091MES     CS 2091   4.090   6.062   4.823  0.0523 -0.3253  0.3338
 2092MES     CS 2092   3.132   1.451   0.240  0.1396  0.0541  0.1781
 2093MES     CS 2093   2.379   0.935   5.021  0.0584  0.0941  0.1392
 2094MES     CS 2094   5.527   3.200   2.051 -0.0082  0.1187 -0.2490
 2095MES     CS 2095   4.420   6.137   3.118  0.0780 -0.1071 -0.2586
 2096MES     CS 2096   6.415   3.080   5.540  0.0257  0.0718 -0.0256
 2097MES     CS 2097   4.461   5.984   3.746 -0.2763  0.0446 -0.3988
 2098MES     CS 2098   0.051   1.534   5.321 -0.2935  0.2143  0.1233
 2099MES     CS 2099   1.062   4.958   3.582 -0.0404 -0.0818  0.0130
 2100MES     CS 2100   2.817   6.106   6.167 -0.4027  0.2761 -0.0774
 2101MES     CS 2101   1.768   2.195   6.003 -0.2234 -0.0910 -0.1467
 2102MES     CS 2102   4.665   1.884   5.493  0.1691  0.0253  0.0371
 2103MES     CS 2103   4.707   5.746   0.621 -0.1081 -0.1512 -0.0874
 2104MES     CS 2104   1.782   5.198   6.621  0.1380  0.2287  0.2380
 2105MES     CS 2105   4.132   4.318   3.236 -0.0526 -0.1576  0.2604
 2106MES     CS 2106   0.956   1.706   4.190 -0.0791 -0.1168 -0.0854
 2107MES     CS 2107   3.518   4.896   1.296 -0.3357  0.0815 -0.0221
 2108MES     CS 2108   3.143   5.548   4.695  0.0749  0.1921 -0.0905
 2109MES     CS 2109   0.208   1.940   1.054 -0.1556  0.2598 -0.0113
 2110MES     CS 2110   0.024   3.308   2.085 -0.0579  0.1410 -0.1711
 2111MES     CS 2111   5.236   1.575   2.868  0.0603  0.0776  0.1449
 2112MES     CS 2112   3.300   2.613   4.536 -0.0526  0.0044 -0.0048
 2113MES     CS 2113   1.676   5.102   5.545 -0.2626 -0.0160 -0.0564
 2114MES     CS 2114   0.015   5.401   4.842  0.1062  0.1194  0.4035
 2115MES     CS 2115   3.005   2.260   1.014 -0.0367  0.1467 -0.1527
 2116MES     CS 2116   1.888   5.547   0.656  0.1332 -0.0089  0.2824
 2117MES     CS 2117   4.095   4.521   5.153  0.2133 -0.1660  0.0595
 2118MES     CS 2118   0.287   3.416   0.032  0.0520  0.0844  0.0223
 2119MES     CS 2119   1.980   0.091   4.797 -0.0110 -0.0329  0.0027
 2120MES     CS 2120   5.446   0.319   4.025 -0.0985  0.0394  0.2699
 2121MES     CS 2121   4.306   5.926   0.344  0.1725  0.0588 -0.0794
 2122MES     CS 2122   5.017   4.026   6.190  0.0179 -0.4290 -0.2280
 2123MES     CS 2123   2.633   3.662   4.128  0.1132  0.0461 -0.1040
 2124MES     CS 2124   0.411   6.161   6.509 -0.2037 -0.0666  0.2475
 2125MES     CS 2125   2.392   5.133   4.194  0.0068 -0.1118  0.0267
 2126MES     CS 2126   2.249   4.807   3.783  0.2255 -0.2937  0.0012
 2127MES     CS 2127   5.459   5.079   2.876  0.0646 -0.2274 -0.2398
 2128MES     CS 2128   3.292   1.719   5.762  0.1678  0.0478 -0.1764
 2129MES     CS 2129   1.826   4.049   5.195  0.6848  0.2794  0.0738
 2130MES     CS 2130   3.929   1.821   2.139 -0.0505 -0.0533 -0.1368
 2131MES     CS 2131   0.067   5.392   2.481  0.1748  0.1102  0.0482
 2132MES     CS 2132   2.735   1.063   4.343  0.1204 -0.0305 -0.4533
 2133MES     CS 2133   3.538   2.781   0.369 -0.3413 -0.1935  0.0644
 2134MES     CS 2134   1.232   0.712   5.392  0.1678  0.0291 -0.1708
 2135MES     CS 2135   2.061   6.200   3.937 -0.0993  0.2165 -0.2213
 2136MES     CS 2136   4.371   1.403   5.424  0.0176  0.0986 -0.0266
 2137MES     CS 2137   6.303   4.962   1.143 -0.1673  0.0911 -0.0164
 2138MES     CS 2138   5.794   1.101   2.746 -0.2035 -0.1724  0.1441
 2139MES     CS 2139   3.714   3.744   1.816 -0.2007 -0.2035 -0.0150
 2140MES     CS 2140   2.850   5.219   4.264  0.1982 -0.0134 -0.0557
 2141MES     CS 2141   2.477   5.148   1.394  0.0713 -0.0110  0.0766
 2142MES     CS 2142   6.187   4.272   6.611  0.2383 -0.0646  0.4303
 2143MES     CS 2143   3.978   3.562   6.126 -0.0592 -0.1736  0.3468
 2144MES     CS 2144   2.689   1.194   5.790  0.0013  0.1495  0.1209
 2145MES     CS 2145   0.144   5.956   0.368 -0.0362 -0.1413  0.0990
 2146MES     CS 2146   1.014   3.874   3.841  0.2019  0.0678  0.1187
 2147MES     CS 2147   2.101   2.115   6.413  0.0160 -0.0554 -0.1180
 2148MES     CS 2148   5.871   0.044   3.922  0.2601 -0.0173 -0.0312
 2149MES     CS 2149   1.955   3.712   4.567 -0.0586  0.0025  0.2108
 2150MES     CS 2150   5.168   5.162   2.018 -0.2442 -0.0890  0.0628
 2151MES     CS 2151   1.509   5.784   2.145 -0.3707 -0.0995 -0.2929
 2152MES     CS 2152   3.974   1.628   0.599 -0.0083 -0.4072 -0.1046
 2153MES     CS 2153   5.762   3.844   2.640 -0.0115 -0.0123  0.1798
 2154MES     CS 2154   4.136   2.099   2.547  0.2981 -0.1319 -0.0270
 2155MES     CS 2155   4.482   0.009   4.194 -0.0832 -0.0012  0.4466
 2156MES     CS 2156   3.416   3.275   4.061  0.2414 -0.4615  0.0840
 2157MES     CS 2157   3.835   4.452   4.528 -0.2028 -0.0443 -0.1299
 2158MES     CS 2158   0.223   4.736   2.488 -0.1684  0.0959 -0.4601
 2159MES     CS 2159   1.790   4.722   1.496  0.0749  0.0056 -0.2528
 2160MES     CS 2160   5.253   1.759   5.580  0.0293 -0.0779  0.1945
 2161MES     CS 2161   4.664   2.673   4.975 -0.2229 -0.1754 -0.2146
 2162MES     CS 2162   4.842   1.915   3.531  0.1389  0.1173  0.3954
 2163MES     CS 2163   5.001   5.270   0.296 -0.0354 -0.3268 -0.1873
 2164MES     CS 2164   5.461   5.360   0.621  0.0173 -0.1633 -0.3822
 2165MES     CS 2165   3.707   5.841   1.763 -0.0746  0.0292 -0.2846
 2166MES     CS 2166   5.774   5.810   4.597 -0.0911  0.0752 -0.0950
 2167MES     CS 2167   4.381   2.154   5.796 -0.0315  0.0965 -0.1482
 2168MES     CS 2168   4.694   5.395   1.985 -0.1287 -0.0299  0.0344
 2169MES     CS 2169   2.270   4.482   2.815 -0.1658 -0.0102 -0.0525
 2170MES     CS 2170   5.537   3.395   6.628 -0.0758  0.1570  0.4030
 2171MES     CS 2171   5.084   2.996   2.147 -0.3584 -0.0723  0.2321
 2172MES     CS 2172   1.851   4.160   1.936  0.0591  0.0142 -0.1114
 2173MES     CS 2173   2.708   4.562   1.925  0.0989  0.1576  0.0014
 2174MES     CS 2174   0.833   1.721   2.015 -0.2064 -0.0552  0.1955
 2175MES     CS 2175   2.798   5.816   5.366  0.3643 -0.1969  0.0101
 2176MES     CS 2176   0.239   3.425   5.561 -0.1793 -0.0786 -0.0442
 2177MES     CS 2177   0.806   1.496   6.394  0.1162  0.0939 -0.1867
 2178MES     CS 2178   2.838   1.320   2.275  0.1718 -0.2308 -0.1303
 2179MES     CS 2179   4.337   5.701   3.329  0.0430  0.0397 -0.0090
 2180MES     CS 2180   2.078   0.110   6.122 -0.1428 -0.0891 -0.1479
 2181MES     CS 2181   6.538   0.872   2.219  0.1589 -0.0571 -0.1390
 2182MES     CS 2182   6.416   0.438   5.848  0.0081 -0.0133 -0.0976
 2183MES     CS 2183   0.591   3.490   6.003  0.0002 -0.0850  0.2877
 2184MES     CS 2184   6.250   1.387   3.127 -0.2393 -0.4276 -0.3353
 2185MES     CS 2185   5.725   4.984   2.089 -0.2961  0.0333 -0.2259
 2186MES     CS 2186   2.542   1.739   2.430  0.3052  0.1391 -0.1212
 2187MES     CS 2187   2.015   4.756   4.390 -0.2142  0.1264  0.1853
 2188MES     CS 2188   2.137   0.498   1.517  0.1270  0.0040  0.1504
 2189MES     CS 2189   5.735   4.645   5.986  0.0403 -0.1584 -0.1239
 2190MES     CS 2190   3.109   6.506   0.654 -0.2219  0.1626  0.5562
 2191MES     CS 2191   1.278   6.331   6.286  0.1295  0.0951 -0.2553
 2192MES     CS 2192   1.211   3.604   1.963 -0.0067 -0.1504 -0.1965
 2193MES     CS 2193   3.361   6.536   1.109  0.0888  0.0311 -0.1976
 2194MES     CS 2194   1.280   2.739   3.042 -0.1336  0.0878  0.1365
 2195MES     CS 2195   4.702   3.379   4.801  0.6115 -0.0130  0.2400
 2196MES     CS 2196   4.928   1.696   0.434  0.1307 -0.4072 -0.1265
 2197MES     CS 2197   1.920   3.021   2.515  0.1490  0.2127 -0.0728
   6.64686   6.64686   6.64686
