Propanol box
 2197
    1POL    COH    1   1.780   1.232   4.827  0.0096  0.0107 -0.0468
    2POL    COH    2   5.923   0.281   4.280 -0.2910  0.1137  0.0017
    3POL    COH    3   3.890   1.829   1.034 -0.5027  0.2895 -0.1474
    4POL    COH    4   5.423   4.609   2.439 -0.0319 -0.0271 -0.2108
    5POL    COH    5   3.100   2.614   3.616  0.0067  0.2532 -0.0673
    6POL    COH    6   4.327   4.433   4.348  0.2831  0.0793  0.0625
    7POL    COH    7   0.819   6.234   1.213  0.0974 -0.1310  0.0529
    8POL    COH    8   1.083   1.162   1.339 -0.2009  0.2257 -0.1776
    9POL    COH    9   3.373   4.708   4.062  0.0685 -0.1070  0.0906
   10POL    COH   10   6.088   1.796   1.878  0.0531 -0.0811  0.0887
   11POL    COH   11   1.282   4.597   0.419 -0.4643 -0.0681  0.1328
   12POL    COH   12   2.256   1.988   5.300  0.1181 -0.1642 -0.2841
   13POL    COH   13   5.172   0.688   0.554  0.1028 -0.0341 -0.1764
   14POL    COH   14   3.620   3.825   2.927  0.1336  0.1029  0.1833
   15POL    COH   15   6.081   3.407   4.254  0.0801  0.1180 -0.0342
   16POL    COH   16   0.702   1.533   2.102  0.1005  0.1962 -0.0910
   17POL    COH   17   3.792   1.069   3.499  0.0550 -0.0607  0.1677
   18POL    COH   18   2.207   0.116   1.982 -0.1693 -0.2854  0.0237
   19POL    COH   19   6.382   0.761   4.797 -0.0808 -0.3148  0.0337
   20POL    COH   20   2.887   2.724   3.185 -0.2230  0.2886 -0.0931
   21POL    COH   21   5.744   5.495   2.542 -0.2061 -0.1482 -0.1791
   22POL    COH   22   0.403   5.748   3.674 -0.0940 -0.0150  0.0845
   23POL    COH   23   2.479   5.624   0.605  0.2801 -0.1820  0.2448
   24POL    COH   24   4.441   4.369   2.952  0.0254 -0.1304 -0.0497
   25POL    COH   25   0.512   3.101   0.098 -0.0038 -0.1360  0.0653
   26POL    COH   26   1.231   1.462   5.865 -0.2389 -0.0524 -0.3042
   27POL    COH   27   1.980   5.122   2.927 -0.2044  0.1371  0.3874
   28POL    COH   28   2.352   3.900   0.800 -0.2205 -0.0653  0.1885
   29POL    COH   29   4.255   0.275   6.312  0.0718 -0.1196 -0.2011
   30POL    COH   30   5.251   6.084   6.361 -0.1804  0.0312  0.1284
   31POL    COH   31   4.751   3.311   2.059  0.0316 -0.2668 -0.3517
   32POL    COH   32   2.016   0.563   0.955 -0.1049 -0.1010 -0.0678
   33POL    COH   33   1.235   0.950   5.321  0.0227  0.1957  0.1145
   34POL    COH   34   1.795   1.125   4.304  0.1189  0.1227 -0.1718
   35POL    COH   35   1.893   2.006   1.054 -0.1331 -0.0734 -0.0231
   36POL    COH   36   1.560   3.612   2.505 -0.0390 -0.2387  0.0971
   37POL    COH   37   1.498   2.606   1.748  0.0225 -0.1905  0.0277
   38POL    COH   38   1.962   5.291   2.436  0.0590  0.2199  0.2188
   39POL    COH   39   5.434   2.450   1.373 -0.3819  0.0161  0.0814
   40POL    COH   40   6.151   0.195   1.253  0.0517 -0.0976 -0.0378
   41POL    COH   41   3.266   3.078   0.282 -0.0649 -0.1748 -0.0821
   42POL    COH   42   1.578   0.185   0.148  0.2225  0.1598  0.0216
   43POL    COH   43   6.404   4.411   6.376  0.0700 -0.0522 -0.2766
   44POL    COH   44   4.056   0.639   5.332 -0.0705 -0.0759  0.0491
   45POL    COH   45   3.102   4.595   5.200  0.0178  0.0997 -0.0821
   46POL    COH   46   2.393   2.330   5.737 -0.0946  0.1238  0.1873
   47POL    COH   47   2.241   2.487   1.112  0.2695 -0.2227  0.1679
   48POL    COH   48   1.069   5.693   1.582  0.2201  0.3339 -0.3129
   49POL    COH   49   2.486   3.097   2.423  0.3897  0.1252  0.1615
   50POL    COH   50   1.163   3.835   6.039  0.2035  0.2398 -0.2838
   51POL    COH   51   4.069   4.091   0.546 -0.0664  0.2153  0.0112
   52POL    COH   52   4.407   2.790   2.011 -0.0100  0.0898 -0.0796
   53POL    COH   53   0.088   0.751   2.558  0.1161  0.1588  0.4318
   54POL    COH   54   5.405   2.677   4.378  0.1507 -0.2594  0.2762
   55POL    COH   55   3.073   1.362   4.263  0.0224  0.0534  0.2560
   56POL    COH   56   6.217   5.777   4.791 -0.0025  0.0762 -0.0930
   57POL    COH   57   4.301   4.939   0.250 -0.1624 -0.1822  0.1740
   58POL    COH   58   3.542   2.938   5.215  0.0260  0.0523 -0.2499
   59POL    COH   59   1.596   1.237   5.599 -0.0691 -0.0851 -0.0552
   60POL    COH   60   0.463   2.120   6.229 -0.1796  0.3607 -0.1063
   61POL    COH   61   3.989   5.846   1.358  0.3862  0.0840  0.0973
   62POL    COH   62   4.192   6.158   2.023 -0.1116  0.1189 -0.0752
   63POL    COH   63   4.897   0.104   4.890 -0.0233  0.2430  0.0382
   64POL    COH   64   5.883   2.101   1.080 -0.1640  0.4561 -0.1487
   65POL    COH   65   0.859   3.344   0.494 -0.0302  0.0025  0.1124
   66POL    COH   66   3.079   0.212   4.014  0.1705  0.2598 -0.1652
   67POL    COH   67   3.374   2.437   2.250 -0.1428 -0.1991  0.2272
   68POL    COH   68   4.960   2.548   3.275  0.0178  0.0244  0.2511
   69POL    COH   69   2.551   6.332   2.258  0.0091 -0.0290 -0.1182
   70POL    COH   70   4.870   3.443   3.417 -0.0769  0.1183  0.3082
   71POL    COH   71   3.616   4.130   4.901 -0.2626 -0.2566 -0.1794
   72POL    COH   72   0.900   0.394   4.516 -0.0277  0.1018 -0.1351
   73POL    COH   73   4.591   3.180   0.186  0.2481 -0.2470  0.0411
   74POL    COH   74   2.295   2.071   0.777 -0.1617 -0.0535 -0.0390
   75POL    COH   75   5.370   1.378   6.223  0.1331 -0.2905  0.2748
   76POL    COH   76   5.561   4.491   4.369 -0.2213 -0.0525  0.3209
   77POL    COH   77   2.513   0.749   1.067 -0.1095  0.1144  0.2278
   78POL    COH   78   4.033   4.840   6.188 -0.5138  0.1712 -0.0904
   79POL    COH   79   0.178   0.380   1.321  0.1867  0.1410  0.2317
   80POL    COH   80   4.091   1.223   2.040  0.3798 -0.2843  0.0684
   81POL    COH   81   1.108   5.603   0.451 -0.1216  0.1868  0.1791
   82POL    COH   82   0.493   3.404   3.092  0.2650  0.2192  0.1236
   83POL    COH   83   3.519   4.118   1.353  0.0355  0.2424  0.3094
   84POL    COH   84   2.124   2.778   0.588  0.1331  0.1935 -0.0168
   85POL    COH   85   4.664   6.106   5.521 -0.1223 -0.1039 -0.1306
   86POL    COH   86   6.245   5.706   5.563  0.1506 -0.0055 -0.1427
   87POL    COH   87   3.599   1.569   2.062 -0.0652  0.0232  0.0120
   88POL    COH   88   4.602   0.105   4.418  0.1970  0.0313 -0.0303
   89POL    COH   89   0.096   3.211   5.299  0.2584 -0.3527 -0.1052
   90POL    COH   90   0.387   4.895   4.235  0.0802 -0.2025  0.0976
   91POL    COH   91   0.567   0.337   5.418 -0.1986 -0.0260  0.0455
   92POL    COH   92   1.764   3.296   3.478 -0.2950 -0.2304 -0.2560
   93POL    COH   93   3.592   1.794   5.054 -0.0188 -0.2146  0.0575
   94POL    COH   94   2.789   4.253   5.829 -0.1238  0.0779  0.2122
   95POL    COH   95   2.744   2.231   2.895 -0.0645 -0.2135  0.0296
   96POL    COH   96   3.485   2.186   4.413 -0.1373  0.3296  0.1435
   97POL    COH   97   4.890   2.431   1.258  0.0800  0.6079  0.1427
   98POL    COH   98   1.891   4.310   1.503 -0.0149  0.0247  0.0224
   99POL    COH   99   3.097   1.423   1.118 -0.0538 -0.1308  0.1830
  100POL    COH  100   5.992   3.941   3.485 -0.0550  0.1574  0.1732
  101POL    COH  101   3.439   2.006   1.728 -0.2330 -0.0215  0.0735
  102POL    COH  102   3.574   4.883   4.450 -0.0553  0.2071 -0.2754
  103POL    COH  103   3.835   2.822   2.723  0.1026 -0.0540 -0.0017
  104POL    COH  104   0.511   3.403   1.783 -0.0905 -0.4339  0.1068
  105POL    COH  105   1.574   4.707   2.310 -0.0001 -0.4101 -0.1483
  106POL    COH  106   4.343   1.290   5.327 -0.1744  0.4677  0.1357
  107POL    COH  107   5.969   0.270   3.022 -0.0012 -0.0440  0.3622
  108POL    COH  108   1.442   3.601   5.649 -0.3393  0.0130 -0.3500
  109POL    COH  109   0.062   2.724   1.434 -0.2565  0.0268  0.0956
  110POL    COH  110   6.129   1.919   5.446 -0.4312  0.0230 -0.0491
  111POL    COH  111   0.297   3.982   6.296  0.0504  0.0942 -0.0625
  112POL    COH  112   0.803   3.431   4.787 -0.1219 -0.1940 -0.0658
  113POL    COH  113   4.502   0.790   5.220  0.0051 -0.1518  0.1138
  114POL    COH  114   2.393   5.910   4.193  0.4024 -0.3584 -0.4462
  115POL    COH  115   3.863   2.192   4.038  0.0618 -0.3040  0.1901
  116POL    COH  116   2.705   5.789   1.650  0.1073  0.2490  0.1371
  117POL    COH  117   4.283   5.975   4.318  0.2080 -0.0029  0.3096
  118POL    COH  118   6.042   5.372   0.065  0.1544 -0.0561 -0.1776
  119POL    COH  119   6.033   5.284   4.647  0.1156  0.2037  0.0371
  120POL    COH  120   3.202   1.783   4.614 -0.0832  0.1923  0.2150
  121POL    COH  121   1.519   4.834   1.813  0.1202 -0.3295  0.1605
  122POL    COH  122   5.235   6.283   0.687  0.2345 -0.2332 -0.0879
  123POL    COH  123   5.986   0.099   0.533  0.3192  0.0834 -0.2224
  124POL    COH  124   5.859   2.570   5.308 -0.2227 -0.1776  0.1028
  125POL    COH  125   3.103   2.402   6.270 -0.3182 -0.0527  0.0485
  126POL    COH  126   0.444   4.380   2.052  0.1055  0.0461  0.2167
  127POL    COH  127   1.737   6.109   4.036  0.0019  0.0484 -0.2105
  128POL    COH  128   3.783   2.834   1.993  0.0831 -0.2782  0.6070
  129POL    COH  129   3.644   3.262   2.274 -0.2854  0.3523 -0.0456
  130POL    COH  130   1.273   1.140   0.707 -0.1346 -0.2445  0.0063
  131POL    COH  131   5.528   0.051   5.542 -0.0989  0.1142  0.0018
  132POL    COH  132   2.339   5.204   4.946 -0.3695  0.3909  0.0919
  133POL    COH  133   6.095   5.166   2.428  0.1138  0.1329 -0.0404
  134POL    COH  134   5.938   4.090   2.413 -0.0347  0.0123  0.1042
  135POL    COH  135   5.850   0.001   0.048 -0.0077 -0.4020  0.0752
  136POL    COH  136   3.182   3.591   2.949 -0.0563  0.0628 -0.1235
  137POL    COH  137   5.834   3.936   5.723  0.1395  0.0302  0.3198
  138POL    COH  138   6.159   6.037   2.182  0.0553 -0.1403  0.1744
  139POL    COH  139   3.303   3.094   3.337 -0.0526  0.3434 -0.1529
  140POL    COH  140   2.970   5.542   4.457  0.0829 -0.2926 -0.5159
  141POL    COH  141   1.784   2.767   5.112 -0.0813  0.0916  0.3074
  142POL    COH  142   3.444   3.428   4.685  0.0073  0.3578 -0.2017
  143POL    COH  143   2.236   4.021   1.271 -0.1761 -0.0279  0.0343
  144POL    COH  144   5.214   3.658   2.006  0.1684  0.1739 -0.0279
  145POL    COH  145   5.085   4.424   3.634  0.1634 -0.0266  0.0029
  146POL    COH  146   1.321   6.109   0.296  0.1431  0.0575 -0.1570
  147POL    COH  147   5.795   1.578   1.524  0.1431 -0.0762  0.3220
  148POL    COH  148   5.013   0.487   4.522 -0.1830  0.0728  0.1159
  149POL    COH  149   4.006   4.185   1.494 -0.0758  0.1165 -0.2001
  150POL    COH  150   2.248   0.385   4.638  0.2076  0.3497 -0.0011
  151POL    COH  151   4.697   0.254   1.212 -0.1699 -0.0736 -0.0238
  152POL    COH  152   2.085   4.289   4.755  0.0338  0.2831 -0.0089
  153POL    COH  153   2.126   4.175   3.665  0.0421  0.3217 -0.4794
  154POL    COH  154   1.547   5.939   5.821 -0.0308 -0.2289 -0.0131
  155POL    COH  155   0.678   2.103   1.683 -0.0985 -0.4469 -0.2091
  156POL    COH  156   0.108   1.996   5.143 -0.3252  0.0900 -0.0423
  157POL    COH  157   3.350   4.201   5.389 -0.0156  0.1761 -0.4588
  158POL    COH  158   3.991   6.270   1.568  0.2491 -0.1174  0.0655
  159POL    COH  159   3.596   4.687   5.423 -0.1338  0.3111 -0.0137
  160POL    COH  160   0.781   4.308   5.627 -0.1024  0.2094 -0.2908
  161POL    COH  161   4.645   4.085   4.855 -0.0609 -0.2487 -0.0590
  162POL    COH  162   1.138   0.223   2.800  0.0865  0.0384 -0.1338
  163POL    COH  163   4.055   3.560   0.201  0.3337 -0.0922 -0.0788
  164POL    COH  164   4.474   3.922   1.293 -0.0799 -0.1158  0.2205
  165POL    COH  165   6.355   2.100   0.343 -0.3486  0.1485  0.1622
  166POL    COH  166   4.165   1.626   4.082 -0.2356 -0.1305  0.1348
  167POL    COH  167   5.521   5.659   3.800 -0.0367 -0.1147 -0.2272
  168POL    COH  168   3.380   4.171   1.899 -0.1831 -0.0635  0.1658
  169POL    COH  169   0.316   5.849   2.672 -0.1554  0.0693  0.1830
  170POL    COH  170   5.174   5.001   0.552  0.0982  0.2357  0.2027
  171POL    COH  171   1.137   5.341   6.388  0.0042  0.0953  0.0265
  172POL    COH  172   0.915   1.223   4.928 -0.2077  0.0172 -0.2377
  173POL    COH  173   0.037   5.721   6.316 -0.0837 -0.2075  0.1478
  174POL    COH  174   4.018   6.337   4.602 -0.1866  0.0255  0.2016
  175POL    COH  175   5.443   0.951   0.224 -0.1436  0.1632  0.5732
  176POL    COH  176   4.961   6.231   3.118 -0.1778  0.1814  0.1277
  177POL    COH  177   0.593   5.896   4.091 -0.0992 -0.1348  0.0066
  178POL    COH  178   5.273   2.201   5.405  0.1812 -0.1311  0.0951
  179POL    COH  179   4.299   2.084   4.320  0.4713 -0.0614  0.1286
  180POL    COH  180   2.486   4.872   2.836  0.0115  0.0127  0.3947
  181POL    COH  181   2.180   1.596   0.887 -0.2090  0.5320  0.0844
  182POL    COH  182   4.584   3.064   1.570 -0.4222 -0.2064 -0.0083
  183POL    COH  183   0.939   0.282   3.798  0.0277  0.3261  0.3378
  184POL    COH  184   0.300   1.106   1.803  0.0494 -0.1109  0.2605
  185POL    COH  185   4.672   4.225   4.019  0.1486 -0.3762  0.1201
  186POL    COH  186   1.625   0.813   5.082  0.1490 -0.0867 -0.0084
  187POL    COH  187   5.175   2.301   0.269  0.2475  0.1924  0.1825
  188POL    COH  188   3.524   1.178   5.758  0.1326  0.0828 -0.1448
  189POL    COH  189   1.143   5.322   0.813 -0.0268 -0.3519  0.0153
  190POL    COH  190   6.354   0.312   4.087  0.0576  0.1856  0.2692
  191POL    COH  191   3.217   5.081   3.681 -0.1567 -0.0223  0.0563
  192POL    COH  192   2.109   4.714   2.565 -0.3281  0.0895  0.0301
  193POL    COH  193   4.861   5.944   0.685  0.0366  0.2335  0.0008
  194POL    COH  194   1.803   6.316   0.471  0.0528 -0.2358  0.3336
  195POL    COH  195   4.466   1.226   4.840  0.2117 -0.2741  0.0870
  196POL    COH  196   1.050   4.834   1.587 -0.0383 -0.0040  0.1569
  197POL    COH  197   4.431   1.339   0.135  0.4055 -0.1500  0.0895
  198POL    COH  198   1.871   1.385   0.482 -0.3050  0.2329  0.3046
  199POL    COH  199   5.060   0.541   2.700 -0.2275 -0.2751  0.0105
  200POL    COH  200   3.917   5.223   4.608 -0.0764  0.1105 -0.2461
  201POL    COH  201   1.401   1.950   3.836 -0.0757  0.0050  0.0480
  202POL    COH  202   1.010   1.694   4.072  0.1826  0.1126  0.0689
  203POL    COH  203   5.255   0.069   2.641  0.0317  0.1393  0.1257
  204POL    COH  204   5.819   0.075   5.948 -0.2558  0.4994 -0.2084
  205POL    COH  205   2.406   5.602   5.894  0.2162 -0.0486 -0.0476
  206POL    COH  206   1.548   1.516   2.491  0.3340 -0.0312  0.0272
  207POL    COH  207   4.933   2.680   6.324  0.1151  0.1255 -0.2738
  208POL    COH  208   2.122   0.339   1.391 -0.1532 -0.0572 -0.0951
  209POL    COH  209   3.655   0.518   1.826  0.1867 -0.0193  0.0260
  210POL    COH  210   6.386   6.399   5.454  0.0451  0.1265  0.1828
  211POL    COH  211   5.899   4.406   5.660 -0.0514 -0.1202  0.3219
  212POL    COH  212   4.602   5.654   5.599  0.1231 -0.2728  0.0269
  213POL    COH  213   5.847   1.608   3.429  0.4263  0.2871  0.2440
  214POL    COH  214   5.726   4.138   3.095  0.1141 -0.0414 -0.1618
  215POL    COH  215   2.642   1.203   4.504  0.2223  0.0876  0.0486
  216POL    COH  216   1.986   5.316   5.846  0.2306  0.0288  0.0519
  217POL    COH  217   1.365   2.434   4.442 -0.0157  0.0413 -0.1671
  218POL    COH  218   5.201   4.994   4.317  0.0985 -0.0604  0.0000
  219POL    COH  219   1.272   3.333   3.481  0.1981 -0.2050 -0.1338
  220POL    COH  220   4.300   3.342   5.397  0.2530 -0.3436  0.2292
  221POL    COH  221   1.680   4.233   4.054 -0.0222 -0.0325  0.0111
  222POL    COH  222   3.366   2.480   4.028 -0.0792  0.1489 -0.0901
  223POL    COH  223   3.040   1.965   0.979 -0.0584 -0.0368  0.0533
  224POL    COH  224   5.488   1.949   0.162 -0.3656  0.1666  0.2708
  225POL    COH  225   2.720   0.099   4.351 -0.0999  0.1339 -0.1841
  226POL    COH  226   4.816   5.659   1.143 -0.2996 -0.0049  0.0077
  227POL    COH  227   4.197   3.139   2.954  0.0559  0.0509 -0.1421
  228POL    COH  228   5.769   6.381   0.943 -0.1579  0.2972 -0.2278
  229POL    COH  229   5.856   1.528   1.054  0.1732 -0.1337  0.2762
  230POL    COH  230   5.995   6.113   5.614 -0.0882  0.2322 -0.1567
  231POL    COH  231   1.207   4.452   3.457 -0.3610  0.1355 -0.2059
  232POL    COH  232   1.743   3.893   6.060  0.4142  0.2539  0.1317
  233POL    COH  233   5.694   5.996   1.883  0.2553  0.0193  0.1928
  234POL    COH  234   4.664   6.301   1.957  0.0129 -0.0395 -0.2212
  235POL    COH  235   0.364   4.834   0.089  0.0029 -0.1050 -0.3626
  236POL    COH  236   2.973   2.740   2.305  0.2891  0.1361  0.1733
  237POL    COH  237   2.603   6.145   0.187 -0.0082  0.1263 -0.0701
  238POL    COH  238   2.770   5.372   2.576 -0.0284 -0.0898  0.0541
  239POL    COH  239   5.749   1.033   1.349 -0.0497  0.2682 -0.0632
  240POL    COH  240   1.433   4.579   1.310  0.1607  0.1519 -0.2777
  241POL    COH  241   1.892   2.182   3.035  0.0728 -0.1290  0.0527
  242POL    COH  242   1.808   2.351   4.196  0.2612  0.0811 -0.1376
  243POL    COH  243   2.777   6.262   5.081 -0.0564 -0.0351 -0.0964
  244POL    COH  244   4.450   0.474   4.876  0.0070  0.0087  0.1336
  245POL    COH  245   4.002   5.833   2.349  0.0802 -0.0286 -0.1145
  246POL    COH  246   1.607   2.823   4.280 -0.1109 -0.1588 -0.0687
  247POL    COH  247   3.150   1.100   2.621 -0.0780 -0.1973 -0.0111
  248POL    COH  248   4.458   0.968   2.925  0.0914  0.2172 -0.2420
  249POL    COH  249   1.843   2.402   0.757 -0.1307 -0.0875  0.0050
  250POL    COH  250   3.368   1.997   0.043  0.0295  0.1769 -0.1934
  251POL    COH  251   6.354   2.647   3.518 -0.7247  0.2183  0.0758
  252POL    COH  252   3.303   0.294   2.131 -0.0118  0.2396 -0.1260
  253POL    COH  253   5.567   4.618   0.546  0.0317 -0.0026 -0.0264
  254POL    COH  254   1.152   0.602   2.513 -0.2139 -0.0681  0.0873
  255POL    COH  255   1.699   2.658   6.139  0.1998  0.1780  0.0701
  256POL    COH  256   2.043   5.237   0.509 -0.1258  0.1871  0.3999
  257POL    COH  257   0.854   0.072   2.287 -0.3349  0.4616 -0.1207
  258POL    COH  258   5.131   1.664   4.381 -0.0219 -0.0228 -0.1753
  259POL    COH  259   3.628   0.245   3.445  0.2175 -0.0259  0.0652
  260POL    COH  260   5.674   2.844   2.793  0.1049  0.1211 -0.0185
  261POL    COH  261   6.157   2.996   1.896 -0.2763  0.1069  0.0218
  262POL    COH  262   0.601   5.143   4.652 -0.1042  0.2286  0.0894
  263POL    COH  263   5.533   0.896   4.551  0.1226 -0.2328 -0.2751
  264POL    COH  264   4.064   0.921   4.906  0.1390 -0.2605 -0.1670
  265POL    COH  265   6.266   4.231   3.970  0.2251  0.1607  0.0014
  266POL    COH  266   5.163   0.615   0.008 -0.0109  0.0166 -0.0374
  267POL    COH  267   1.932   0.215   5.553 -0.2240  0.2169 -0.1151
  268POL    COH  268   4.817   4.128   0.130  0.2880  0.3292  0.2149
  269POL    COH  269   2.010   6.185   5.313 -0.1019 -0.2364 -0.0851
  270POL    COH  270   5.309   1.788   3.779 -0.0365  0.1351  0.1296
  271POL    COH  271   2.848   4.736   0.526  0.2577 -0.3853 -0.1037
  272POL    COH  272   4.802   6.206   3.603 -0.3082 -0.0768  0.1815
  273POL    COH  273   5.411   1.119   2.221  0.0382 -0.2344 -0.0205
  274POL    COH  274   1.280   1.398   3.752  0.1234  0.2809  0.0649
  275POL    COH  275   0.030   4.786   2.506  0.2485 -0.0765 -0.0056
  276POL    COH  276   4.264   0.406   3.128  0.0965  0.1943 -0.1135
  277POL    COH  277   5.895   2.221   0.471 -0.1355 -0.1034 -0.3117
  278POL    COH  278   4.514   2.436   4.597 -0.1646  0.0525  0.1381
  279POL    COH  279   4.775   3.195   3.899 -0.4469  0.2222 -0.2249
  280POL    COH  280   0.128   3.188   0.414  0.2101 -0.0403  0.0178
  281POL    COH  281   2.096   0.930   3.068  0.4071 -0.1084 -0.3767
  282POL    COH  282   3.321   4.561   3.531  0.1417 -0.1110  0.2216
  283POL    COH  283   2.118   1.153   5.233  0.1663 -0.4814 -0.1867
  284POL    COH  284   5.915   1.143   4.813 -0.1421  0.0888 -0.1841
  285POL    COH  285   3.533   5.212   4.056  0.1537  0.0403 -0.1809
  286POL    COH  286   4.218   4.757   0.791  0.2202 -0.1100 -0.0008
  287POL    COH  287   5.568   4.623   1.533  0.0019 -0.0197  0.0664
  288POL    COH  288   4.766   4.740   4.016 -0.0821  0.2971  0.1510
  289POL    COH  289   1.782   5.091   3.763  0.0901 -0.0929 -0.1903
  290POL    COH  290   4.689   5.881   2.793 -0.0900  0.0754 -0.1092
  291POL    COH  291   3.666   5.539   2.086 -0.1909  0.0900 -0.3409
  292POL    COH  292   5.382   1.325   4.638 -0.0275  0.1164  0.0068
  293POL    COH  293   5.916   0.059   2.069  0.0429 -0.0060 -0.0072
  294POL    COH  294   2.187   4.917   6.072 -0.2124  0.0442 -0.1516
  295POL    COH  295   4.536   2.313   2.391 -0.0119 -0.0419 -0.3839
  296POL    COH  296   0.837   6.022   2.417  0.0614  0.1228  0.0861
  297POL    COH  297   2.432   0.679   6.087  0.0390  0.0332  0.0914
  298POL    COH  298   2.790   3.423   0.334 -0.3774 -0.0113 -0.1394
  299POL    COH  299   4.296   5.296   5.348 -0.0285  0.1216 -0.0106
  300POL    COH  300   1.453   5.218   2.240 -0.0707  0.3979  0.1275
  301POL    COH  301   0.811   5.557   5.730 -0.0989  0.2626 -0.0996
  302POL    COH  302   4.919   2.809   0.438 -0.3438  0.1886 -0.2760
  303POL    COH  303   3.627   3.405   6.396 -0.1172 -0.1624  0.1611
  304POL    COH  304   4.068   5.249   2.959  0.0433  0.1519 -0.0564
  305POL    COH  305   5.845   5.066   3.563  0.5164  0.0075 -0.0492
  306POL    COH  306   5.211   3.579   5.916  0.0813  0.0625 -0.2910
  307POL    COH  307   2.758   5.751   2.963 -0.1198 -0.0896 -0.1336
  308POL    COH  308   5.645   1.395   3.827  0.2243  0.0638  0.0050
  309POL    COH  309   4.226   2.550   4.017  0.4608  0.1006 -0.0273
  310POL    COH  310   0.623   3.549   5.261  0.2392 -0.0244  0.1625
  311POL    COH  311   5.872   1.942   2.456  0.1977 -0.2474  0.2598
  312POL    COH  312   5.762   5.850   6.378 -0.1139 -0.0930 -0.1708
  313POL    COH  313   2.890   5.155   1.464  0.1448  0.2089 -0.0532
  314POL    COH  314   1.982   1.588   1.372 -0.0363 -0.3443 -0.0850
  315POL    COH  315   0.664   2.466   0.842  0.1913 -0.1500  0.1835
  316POL    COH  316   2.544   1.651   5.196 -0.1296 -0.2898 -0.0894
  317POL    COH  317   5.043   5.096   6.120 -0.1632 -0.1633 -0.0685
  318POL    COH  318   1.436   5.347   5.091 -0.0518  0.0045 -0.0695
  319POL    COH  319   1.828   1.697   2.945 -0.2390  0.0064 -0.1806
  320POL    COH  320   1.335   6.271   5.542 -0.2029  0.1509 -0.0278
  321POL    COH  321   3.575   2.097   3.548 -0.0895 -0.0120 -0.0676
  322POL    COH  322   1.176   2.764   5.189 -0.1490 -0.1928 -0.0857
  323POL    COH  323   0.377   2.923   2.463 -0.2258 -0.2208 -0.0968
  324POL    COH  324   3.291   5.026   0.446  0.2346 -0.2702 -0.1703
  325POL    COH  325   5.880   1.479   6.375 -0.0095 -0.2288  0.0025
  326POL    COH  326   3.447   2.518   1.750  0.2543  0.0007 -0.1853
  327POL    COH  327   1.992   4.356   6.208 -0.1045 -0.1919 -0.3733
  328POL    COH  328   2.713   0.609   5.233  0.2228  0.1444  0.0807
  329POL    COH  329   3.967   4.503   5.149  0.0247  0.0283  0.1451
  330POL    COH  330   4.337   4.908   4.440  0.2983 -0.2530 -0.1285
  331POL    COH  331   5.577   0.923   6.030  0.1942  0.2288  0.1231
  332POL    COH  332   6.188   2.336   4.553  0.3596 -0.0589  0.3719
  333POL    COH  333   5.048   1.658   0.892 -0.2379 -0.1554 -0.1256
  334POL    COH  334   5.979   4.491   3.631 -0.0506 -0.1673  0.0607
  335POL    COH  335   4.593   2.774   3.667  0.1141 -0.0576 -0.0572
  336POL    COH  336   5.844   5.545   3.455 -0.3187 -0.1479  0.0504
  337POL    COH  337   1.566   4.439   0.794 -0.1624  0.0762  0.2010
  338POL    COH  338   6.197   2.181   3.698 -0.1634  0.1936  0.0472
  339POL    COH  339   1.018   2.062   1.193 -0.2102 -0.4243  0.0144
  340POL    COH  340   6.371   6.276   0.141  0.1615 -0.1065 -0.0437
  341POL    COH  341   5.666   2.419   2.555 -0.1577  0.1915 -0.2907
  342POL    COH  342   4.134   2.295   2.721  0.3566 -0.3403  0.1391
  343POL    COH  343   3.776   0.687   3.163  0.0739 -0.0392 -0.1002
  344POL    COH  344   2.249   1.419   4.752  0.3993 -0.0949 -0.1348
  345POL    COH  345   5.238   5.956   2.779  0.0904 -0.0045  0.0509
  346POL    COH  346   0.426   4.242   2.943 -0.1184  0.0640 -0.2532
  347POL    COH  347   4.281   3.867   5.653 -0.2104  0.0948  0.0214
  348POL    COH  348   2.527   0.716   0.308 -0.2385  0.2857  0.2722
  349POL    COH  349   0.183   4.792   6.047  0.1282 -0.2605 -0.1133
  350POL    COH  350   4.027   4.862   2.464 -0.0735  0.3929 -0.2347
  351POL    COH  351   0.550   5.796   1.528  0.0013 -0.0606 -0.1710
  352POL    COH  352   3.394   2.902   4.383 -0.0585  0.2658 -0.1033
  353POL    COH  353   4.315   1.267   6.027 -0.3704  0.0026 -0.2822
  354POL    COH  354   4.040   1.081   3.954  0.1384 -0.0576  0.1623
  355POL    COH  355   0.806   4.063   1.835 -0.2908  0.0600 -0.2782
  356POL    COH  356   1.282   5.185   4.655 -0.1896  0.5299  0.0946
  357POL    COH  357   2.316   3.416   3.046  0.1355 -0.0961  0.1639
  358POL    COH  358   3.127   3.809   4.994 -0.1390  0.1819  0.0433
  359POL    COH  359   3.194   2.164   4.962 -0.0117  0.0331 -0.1271
  360POL    COH  360   2.460   5.066   0.816 -0.2656 -0.0347 -0.1183
  361POL    COH  361   1.056   2.769   4.185  0.1560  0.0043 -0.1727
  362POL    COH  362   4.064   0.153   2.729  0.1267 -0.2103  0.1405
  363POL    COH  363   6.224   1.214   5.978  0.0924  0.0578  0.0351
  364POL    COH  364   2.797   1.103   1.496  0.0628 -0.0317 -0.1517
  365POL    COH  365   2.992   4.567   3.133 -0.1046 -0.2057  0.3504
  366POL    COH  366   6.341   0.213   3.410 -0.2200  0.1422 -0.2912
  367POL    COH  367   5.500   3.697   2.440 -0.0282 -0.0013  0.0296
  368POL    COH  368   5.041   3.805   1.215 -0.1594  0.1537  0.0880
  369POL    COH  369   1.107   0.473   5.402  0.0306  0.0543 -0.0098
  370POL    COH  370   4.514   0.970   3.843  0.0038 -0.1307 -0.0323
  371POL    COH  371   2.052   2.698   1.797 -0.2695  0.1384 -0.0574
  372POL    COH  372   1.518   1.795   1.317  0.0882 -0.0727 -0.0436
  373POL    COH  373   2.423   3.927   3.229  0.2368 -0.2445  0.2476
  374POL    COH  374   1.073   4.944   2.413  0.1000 -0.0408 -0.0361
  375POL    COH  375   2.140   1.428   6.345  0.0140 -0.1501  0.1787
  376POL    COH  376   2.775   5.818   2.283 -0.2965 -0.1026  0.1655
  377POL    COH  377   3.151   2.496   4.509 -0.2466  0.0809 -0.1279
  378POL    COH  378   1.308   5.762   4.090 -0.1049 -0.4290  0.0139
  379POL    COH  379   5.422   5.222   5.312 -0.1991  0.2761 -0.0715
  380POL    COH  380   2.424   2.964   3.225  0.1318  0.1411 -0.0003
  381POL    COH  381   0.949   4.974   5.019  0.1547  0.0606  0.4146
  382POL    COH  382   2.936   0.289   1.724  0.2155  0.2057  0.1829
  383POL    COH  383   2.539   5.222   6.166  0.1289 -0.2875 -0.2323
  384POL    COH  384   1.780   5.547   2.015 -0.0901 -0.0473  0.0329
  385POL    COH  385   5.795   5.895   2.961  0.0336  0.1788 -0.1798
  386POL    COH  386   4.704   3.994   3.069 -0.1408  0.2452 -0.0047
  387POL    COH  387   2.281   4.338   2.913  0.0461 -0.1784 -0.0555
  388POL    COH  388   1.894   2.193   5.816  0.1544 -0.0634  0.0674
  389POL    COH  389   3.495   0.001   1.132  0.3148 -0.1475 -0.0527
  390POL    COH  390   4.563   3.309   4.372 -0.0160 -0.0653 -0.0939
  391POL    COH  391   5.621   4.989   2.668 -0.1539  0.0532 -0.1116
  392POL    COH  392   0.507   6.341   5.945  0.0559 -0.1734 -0.0379
  393POL    COH  393   6.297   0.495   0.835 -0.0444 -0.0441  0.4011
  394POL    COH  394   4.635   2.318   4.058  0.1447  0.0869 -0.0990
  395POL    COH  395   1.431   1.009   2.440 -0.1035 -0.0204  0.1482
  396POL    COH  396   4.978   5.752   3.786  0.1126  0.0363 -0.1151
  397POL    COH  397   6.358   2.454   5.063  0.1248 -0.4160  0.3498
  398POL    COH  398   5.778   1.004   2.953 -0.0798  0.1623  0.1124
  399POL    COH  399   0.456   6.150   6.402  0.0531 -0.1199 -0.0083
  400POL    COH  400   2.479   4.564   1.418  0.2456 -0.2143 -0.3236
  401POL    COH  401   0.143   5.552   1.732  0.2693 -0.0250 -0.3157
  402POL    COH  402   1.001   1.921   2.050 -0.1497 -0.0344 -0.2109
  403POL    COH  403   5.611   3.920   6.214  0.1292  0.1554  0.3068
  404POL    COH  404   0.638   4.377   1.454  0.0088  0.0405 -0.1463
  405POL    COH  405   2.322   2.357   4.941  0.0062 -0.1020 -0.0983
  406POL    COH  406   5.031   6.151   1.127  0.2692  0.2095 -0.2986
  407POL    COH  407   4.235   1.408   3.092 -0.2478 -0.0179  0.0182
  408POL    COH  408   4.324   6.062   3.801 -0.2392 -0.2491 -0.1200
  409POL    COH  409   1.919   5.599   4.184 -0.1827 -0.1641 -0.1601
  410POL    COH  410   6.000   0.754   4.420  0.0597 -0.1603  0.1365
  411POL    COH  411   0.728   1.459   4.476 -0.1245 -0.2000  0.0108
  412POL    COH  412   6.074   3.030   1.373 -0.0777 -0.2205  0.1758
  413POL    COH  413   4.328   2.740   0.534 -0.1168  0.3012 -0.2794
  414POL    COH  414   5.975   2.969   0.846 -0.2231  0.2006 -0.0399
  415POL    COH  415   4.275   1.332   1.123  0.1252  0.3184  0.2813
  416POL    COH  416   3.876   3.712   4.770 -0.0721 -0.2074 -0.4327
  417POL    COH  417   4.338   2.715   3.166 -0.3879  0.0882 -0.4997
  418POL    COH  418   5.009   4.908   5.251 -0.0060 -0.1245 -0.0539
  419POL    COH  419   2.975   1.634   3.786 -0.3296  0.0920 -0.0642
  420POL    COH  420   5.708   5.023   4.365 -0.1009 -0.0231 -0.0548
  421POL    COH  421   2.955   1.776   0.273  0.2401  0.0900  0.1025
  422POL    COH  422   0.331   4.414   4.035  0.0849 -0.3071  0.0575
  423POL    COH  423   4.829   2.779   2.371 -0.2642  0.1626 -0.2248
  424POL    COH  424   6.027   3.355   2.835  0.1681 -0.2684  0.0294
  425POL    COH  425   1.768   3.173   0.517  0.0012  0.1339  0.1050
  426POL    COH  426   2.756   3.043   1.947  0.1356 -0.2231  0.1462
  427POL    COH  427   0.936   5.018   4.024  0.0784  0.2268 -0.3606
  428POL    COH  428   4.617   5.598   4.030 -0.0348 -0.0743  0.3027
  429POL    COH  429   1.450   1.986   4.321 -0.0363  0.0843 -0.0690
  430POL    COH  430   0.415   2.424   3.370  0.1296 -0.1964  0.2022
  431POL    COH  431   5.065   0.213   5.428  0.1026 -0.1039 -0.2181
  432POL    COH  432   3.925   3.318   4.437  0.0097 -0.1702  0.3924
  433POL    COH  433   5.984   3.838   0.705  0.0770  0.1778  0.0695
  434POL    COH  434   1.840   2.699   1.310 -0.3634 -0.3114 -0.3832
  435POL    COH  435   5.829   4.933   6.205  0.3346 -0.0992 -0.0773
  436POL    COH  436   2.336   4.278   0.366  0.0093  0.1405  0.0085
  437POL    COH  437   2.854   6.258   3.766 -0.0045 -0.1347 -0.0662
  438POL    COH  438   6.245   5.882   3.670 -0.0595 -0.3631 -0.1608
  439POL    COH  439   0.712   6.119   3.640 -0.2673 -0.0858 -0.2621
  440POL    COH  440   5.990   3.160   5.580 -0.1990  0.2638  0.0891
  441POL    COH  441   2.630   3.115   4.050 -0.1662  0.2056  0.1585
  442POL    COH  442   1.014   5.245   1.320  0.0611 -0.0290  0.0875
  443POL    COH  443   0.459   4.862   1.205  0.0076 -0.2093  0.3205
  444POL    COH  444   2.393   3.068   0.266  0.1525 -0.0470  0.1500
  445POL    COH  445   6.298   1.956   4.145 -0.0544  0.0878 -0.3447
  446POL    COH  446   0.644   5.525   0.682  0.0852 -0.0941  0.0369
  447POL    COH  447   5.216   5.358   3.474  0.1002 -0.1906 -0.3853
  448POL    COH  448   0.517   3.877   3.262  0.2193  0.2707 -0.1373
  449POL    COH  449   5.942   4.130   4.362  0.0264 -0.2431 -0.0208
  450POL    COH  450   2.335   2.349   2.549 -0.1686  0.0519 -0.3751
  451POL    COH  451   4.960   4.573   2.229 -0.2376 -0.0385  0.0781
  452POL    COH  452   5.571   1.891   4.293  0.1528  0.2045  0.2230
  453POL    COH  453   6.303   5.036   4.314  0.0826  0.0103  0.0263
  454POL    COH  454   3.948   0.317   1.425  0.1366 -0.1910 -0.2030
  455POL    COH  455   1.006   2.189   4.070  0.1197 -0.2585  0.0524
  456POL    COH  456   5.631   2.183   6.095  0.0786 -0.1284 -0.2353
  457POL    COH  457   1.282   3.758   5.062 -0.1479 -0.0196 -0.1720
  458POL    COH  458   5.471   6.360   4.458  0.0873 -0.1177 -0.0976
  459POL    COH  459   1.524   4.044   1.249  0.1123 -0.1228  0.1697
  460POL    COH  460   5.020   4.853   2.727 -0.0545 -0.0946 -0.1003
  461POL    COH  461   4.001   5.684   5.558 -0.1098  0.0905  0.2617
  462POL    COH  462   4.082   1.916   3.092  0.2836  0.0111 -0.2262
  463POL    COH  463   0.304   2.258   5.523 -0.1816  0.1232  0.1028
  464POL    COH  464   3.071   6.132   1.514 -0.0125  0.1675  0.1301
  465POL    COH  465   6.328   3.022   4.445  0.0071 -0.1216  0.2054
  466POL    COH  466   0.076   0.723   4.323 -0.0086 -0.2795  0.1137
  467POL    COH  467   2.682   1.040   2.009  0.1397 -0.0663 -0.2680
  468POL    COH  468   4.373   2.254   5.366  0.3657 -0.0652  0.1788
  469POL    COH  469   5.966   2.579   1.331 -0.0597  0.0304  0.0565
  470POL    COH  470   4.135   4.124   4.761 -0.2185 -0.1584  0.1857
  471POL    COH  471   6.276   3.737   4.596  0.1825  0.1755  0.0624
  472POL    COH  472   2.698   1.831   2.488 -0.0005  0.2866 -0.0554
  473POL    COH  473   2.573   1.272   0.723 -0.0161  0.0568 -0.1270
  474POL    COH  474   2.744   5.348   3.574 -0.2583 -0.0940 -0.4131
  475POL    COH  475   3.154   5.376   5.140  0.0772 -0.3415  0.3132
  476POL    COH  476   0.326   3.520   5.781  0.1324 -0.3488 -0.0535
  477POL    COH  477   0.161   3.712   5.213  0.0584 -0.2205 -0.0515
  478POL    COH  478   5.342   5.013   3.088 -0.1297  0.1547 -0.0479
  479POL    COH  479   1.756   1.584   5.923 -0.0880  0.2557  0.3228
  480POL    COH  480   1.018   2.244   6.320 -0.1049  0.1409 -0.3332
  481POL    COH  481   1.982   3.567   4.355 -0.1846  0.0378  0.0632
  482POL    COH  482   2.321   6.131   4.824 -0.1590  0.1862 -0.0449
  483POL    COH  483   2.601   3.781   5.800 -0.0064  0.0595  0.0539
  484POL    COH  484   5.452   1.120   5.600 -0.2648 -0.0116  0.1072
  485POL    COH  485   0.073   6.208   1.374 -0.0917  0.3460  0.2313
  486POL    COH  486   5.122   1.225   0.603  0.0685  0.2916  0.0509
  487POL    COH  487   3.181   5.026   5.432  0.0231 -0.0445  0.2646
  488POL    COH  488   1.345   1.530   4.557 -0.2351 -0.0760 -0.0229
  489POL    COH  489   1.514   0.628   2.854  0.3020 -0.0951 -0.0500
  490POL    COH  490   1.656   3.258   4.028  0.0789 -0.2127  0.0375
  491POL    COH  491   2.892   2.631   0.429  0.1242 -0.0881  0.3492
  492POL    COH  492   1.477   2.336   1.196  0.0417 -0.2555 -0.2375
  493POL    COH  493   0.174   4.860   4.670  0.0203 -0.1871 -0.1558
  494POL    COH  494   2.563   4.029   2.181 -0.1166  0.0173  0.0923
  495POL    COH  495   4.917   4.938   1.829 -0.0933 -0.1544 -0.2192
  496POL    COH  496   1.449   6.352   0.789  0.2055 -0.1033  0.2333
  497POL    COH  497   0.523   3.898   4.646  0.0060 -0.0889 -0.0889
  498POL    COH  498   0.717   0.806   5.113 -0.0136 -0.1112  0.0932
  499POL    COH  499   6.119   3.621   5.479 -0.4055 -0.0317 -0.0275
  500POL    COH  500   0.083   5.402   2.240 -0.0156  0.2966 -0.1220
  501POL    COH  501   1.223   5.962   3.532  0.1570 -0.2205 -0.0369
  502POL    COH  502   2.295   0.863   4.801 -0.0092 -0.1245 -0.3911
  503POL    COH  503   3.669   1.955   2.410  0.1791  0.0373  0.0536
  504POL    COH  504   3.225   2.997   3.901  0.1576  0.1523 -0.2669
  505POL    COH  505   2.253   2.966   3.682  0.0891 -0.1173 -0.1110
  506POL    COH  506   0.384   1.528   4.855 -0.1134 -0.2185 -0.0612
  507POL    COH  507   5.731   4.417   1.029 -0.1134 -0.0316 -0.5913
  508POL    COH  508   4.091   4.389   5.588 -0.0444 -0.1701  0.3177
  509POL    COH  509   1.377   1.059   4.713  0.1522  0.2974  0.1401
  510POL    COH  510   3.820   3.373   5.149 -0.3604  0.1132 -0.0822
  511POL    COH  511   5.500   0.510   5.791  0.2785 -0.0001 -0.1105
  512POL    COH  512   0.681   2.093   3.666  0.0770 -0.0494  0.5020
  513POL    COH  513   2.793   3.317   6.030  0.0032 -0.0791  0.4752
  514POL    COH  514   1.251   2.393   2.133  0.1563  0.0394 -0.0426
  515POL    COH  515   6.213   2.372   0.784  0.0251  0.2103 -0.0421
  516POL    COH  516   5.073   1.537   3.443 -0.3097 -0.0057 -0.2446
  517POL    COH  517   4.595   1.812   0.216 -0.1356 -0.1281  0.1869
  518POL    COH  518   0.537   4.395   0.974  0.4145 -0.0216 -0.0075
  519POL    COH  519   5.273   1.933   1.590 -0.0670  0.1006  0.0958
  520POL    COH  520   2.238   0.903   2.251 -0.1936 -0.1465  0.2636
  521POL    COH  521   3.222   5.818   2.858 -0.0258 -0.0901  0.0085
  522POL    COH  522   4.698   0.635   1.580  0.4537  0.0840  0.0383
  523POL    COH  523   3.383   5.209   6.400 -0.0604  0.2279  0.0735
  524POL    COH  524   0.388   4.608   5.577 -0.0968 -0.3399  0.0569
  525POL    COH  525   3.593   2.484   4.792  0.0655  0.2090 -0.0365
  526POL    COH  526   5.742   1.411   5.893  0.0246 -0.3215 -0.1959
  527POL    COH  527   1.919   5.896   0.730  0.0264  0.0528 -0.0602
  528POL    COH  528   3.567   3.278   5.912  0.0982 -0.1677  0.0015
  529POL    COH  529   5.344   6.376   3.826 -0.1636  0.0263 -0.2312
  530POL    COH  530   1.810   2.313   1.973 -0.0584 -0.0670  0.1336
  531POL    COH  531   0.785   1.885   0.259  0.3780 -0.2268  0.1418
  532POL    COH  532   5.162   3.774   0.604 -0.2816 -0.0891  0.2165
  533POL    COH  533   6.244   0.987   2.916 -0.1732 -0.2509 -0.2327
  534POL    COH  534   5.129   3.110   2.622  0.1911 -0.1159  0.1717
  535POL    COH  535   4.582   0.577   2.084  0.2305 -0.0663 -0.0201
  536POL    COH  536   4.244   3.342   1.832  0.0205  0.1772 -0.3138
  537POL    COH  537   3.476   6.126   6.380  0.2864 -0.1691  0.1468
  538POL    COH  538   4.903   4.637   6.117 -0.0028  0.0734  0.3706
  539POL    COH  539   4.459   2.346   0.975  0.0407 -0.2759  0.2047
  540POL    COH  540   4.791   0.494   3.209  0.1127 -0.1663 -0.1404
  541POL    COH  541   0.640   1.759   5.852 -0.2111  0.2084 -0.0959
  542POL    COH  542   5.089   5.496   4.229 -0.0353 -0.2095  0.3161
  543POL    COH  543   2.809   3.879   4.425 -0.2151 -0.0423  0.1807
  544POL    COH  544   5.458   5.197   3.884  0.1518 -0.0094 -0.0281
  545POL    COH  545   2.104   3.354   5.080 -0.2049  0.2694 -0.1422
  546POL    COH  546   0.443   0.862   6.260  0.0897  0.2275  0.0542
  547POL    COH  547   0.462   5.111   2.125  0.0017 -0.2950  0.1418
  548POL    COH  548   2.552   3.293   0.795  0.0106  0.1897 -0.2116
  549POL    COH  549   1.988   1.724   2.433  0.3262 -0.1589 -0.1723
  550POL    COH  550   2.348   0.123   5.155  0.1139  0.2533  0.0038
  551POL    COH  551   4.241   2.070   1.456 -0.3157 -0.0279  0.0676
  552POL    COH  552   4.923   5.871   1.574  0.2500 -0.0544  0.0589
  553POL    COH  553   5.711   5.680   5.565 -0.0448 -0.0629 -0.2269
  554POL    COH  554   1.706   0.904   0.628 -0.1697 -0.0604  0.0281
  555POL    COH  555   5.561   1.740   0.708 -0.1033 -0.0304  0.2429
  556POL    COH  556   5.363   4.785   1.992  0.1539  0.0336  0.0758
  557POL    COH  557   3.007   1.368   6.387  0.0170  0.2359 -0.0002
  558POL    COH  558   0.197   4.139   1.209 -0.3256 -0.1795 -0.1512
  559POL    COH  559   6.250   2.737   0.461 -0.1804  0.1041  0.2575
  560POL    COH  560   3.215   5.308   2.808 -0.1255 -0.3412 -0.3985
  561POL    COH  561   6.150   0.411   0.169  0.5564  0.0843  0.3973
  562POL    COH  562   2.203   4.757   0.494 -0.0252 -0.2537 -0.0155
  563POL    COH  563   3.197   1.823   3.282 -0.3116  0.1192  0.4479
  564POL    COH  564   6.380   1.501   3.585 -0.1149  0.0033 -0.2098
  565POL    COH  565   1.923   2.624   4.631  0.1129  0.2553 -0.1198
  566POL    COH  566   3.436   2.297   5.841 -0.0447 -0.2539  0.1914
  567POL    COH  567   4.467   5.587   0.703  0.0711 -0.0751 -0.0335
  568POL    COH  568   5.530   0.767   1.735  0.0642 -0.0073  0.0172
  569POL    COH  569   0.733   5.521   2.468 -0.3442 -0.3745 -0.0162
  570POL    COH  570   0.218   5.185   5.612  0.0664 -0.0709  0.1166
  571POL    COH  571   5.458   0.503   4.219 -0.0211 -0.1728  0.0083
  572POL    COH  572   3.740   2.220   1.335  0.2722 -0.0472 -0.1793
  573POL    COH  573   1.740   5.606   2.924 -0.1958 -0.4273  0.0747
  574POL    COH  574   0.314   2.341   3.837  0.3413  0.1992  0.0763
  575POL    COH  575   4.817   5.298   1.472 -0.3680  0.2514 -0.0968
  576POL    COH  576   6.261   3.342   5.925 -0.3203 -0.2545 -0.0019
  577POL    COH  577   1.894   0.060   4.842  0.0761  0.2533  0.1442
  578POL    COH  578   2.421   3.341   5.684  0.0085  0.2248 -0.0192
  579POL    COH  579   4.591   3.254   2.583  0.1519 -0.2846 -0.2228
  580POL    COH  580   2.651   0.236   0.171  0.0321  0.3914  0.1050
  581POL    COH  581   6.040   2.505   6.135 -0.1249 -0.0331  0.3201
  582POL    COH  582   2.158   2.479   3.557 -0.1551 -0.0523  0.1469
  583POL    COH  583   3.894   6.282   3.220 -0.0446  0.1718  0.0321
  584POL    COH  584   2.767   4.308   3.565 -0.1162  0.2136  0.0575
  585POL    COH  585   2.420   1.578   1.625 -0.1457  0.0178  0.2517
  586POL    COH  586   5.697   4.403   2.045 -0.1234  0.1447 -0.0750
  587POL    COH  587   5.402   2.659   6.091 -0.2988  0.1382 -0.2011
  588POL    COH  588   3.802   2.179   1.999  0.0403  0.0152  0.1122
  589POL    COH  589   4.941   1.480   1.476 -0.0733  0.0006 -0.2516
  590POL    COH  590   1.497   5.629   4.510  0.1424 -0.1771 -0.0449
  591POL    COH  591   1.780   5.006   4.406  0.2223 -0.0963  0.0444
  592POL    COH  592   2.718   4.636   4.841 -0.0664  0.1730  0.0324
  593POL    COH  593   0.354   1.577   1.713  0.2952 -0.3353  0.0148
  594POL    COH  594   3.625   3.002   1.362 -0.1290  0.2188 -0.0757
  595POL    COH  595   3.838   3.092   5.513 -0.0402  0.1706  0.0323
  596POL    COH  596   4.308   5.973   0.943  0.0314  0.0024 -0.0545
  597POL    COH  597   4.852   4.434   5.626  0.0707 -0.1851 -0.2441
  598POL    COH  598   1.053   1.833   5.516 -0.2446  0.1540 -0.0577
  599POL    COH  599   0.893   0.688   6.095  0.3506  0.0621  0.2119
  600POL    COH  600   4.068   4.884   5.620 -0.0678  0.0566  0.1180
  601POL    COH  601   1.346   5.825   6.246  0.2800 -0.2005 -0.1786
  602POL    COH  602   1.440   4.136   4.878 -0.0519  0.1459  0.1022
  603POL    COH  603   1.897   4.678   3.143  0.0936  0.0668  0.1953
  604POL    COH  604   3.110   0.718   1.795 -0.0247 -0.0032  0.1939
  605POL    COH  605   4.978   1.185   1.998  0.0670  0.1401  0.0746
  606POL    COH  606   0.451   2.774   4.030  0.0252 -0.3223 -0.1191
  607POL    COH  607   6.219   2.385   5.632  0.0251 -0.2650  0.0677
  608POL    COH  608   1.816   4.868   0.023 -0.1487 -0.1283 -0.0670
  609POL    COH  609   0.489   6.365   1.545 -0.0228  0.0062 -0.1185
  610POL    COH  610   2.833   6.235   2.673 -0.0166 -0.1986  0.1562
  611POL    COH  611   4.114   5.000   3.425  0.2296 -0.1175 -0.0596
  612POL    COH  612   5.594   4.492   6.016  0.0618 -0.0730 -0.0736
  613POL    COH  613   0.032   4.312   5.888 -0.0063  0.0426 -0.1432
  614POL    COH  614   0.556   1.511   6.390  0.0340 -0.1080 -0.1076
  615POL    COH  615   0.748   4.157   2.367  0.0638  0.1625  0.0821
  616POL    COH  616   3.204   4.324   6.110  0.1290 -0.0862  0.3864
  617POL    COH  617   4.493   3.149   6.017 -0.3138  0.0815 -0.0330
  618POL    COH  618   0.317   0.519   3.327 -0.1462  0.1229  0.0759
  619POL    COH  619   5.389   2.641   2.210  0.0406  0.0140 -0.0011
  620POL    COH  620   5.535   5.197   5.817  0.1134 -0.3583 -0.2558
  621POL    COH  621   1.584   5.276   6.193 -0.1886 -0.1178  0.0222
  622POL    COH  622   5.571   6.370   3.069 -0.3558  0.0030  0.0681
  623POL    COH  623   5.635   3.392   0.786  0.0218  0.1485  0.2720
  624POL    COH  624   2.614   2.635   3.650  0.0636 -0.0832  0.1032
  625POL    COH  625   2.598   1.628   3.315 -0.1111 -0.0231 -0.4286
  626POL    COH  626   3.963   6.298   1.089 -0.1733  0.0804 -0.1035
  627POL    COH  627   2.727   4.259   2.787 -0.2389  0.2091 -0.0288
  628POL    COH  628   1.720   4.541   3.679 -0.3077  0.3603  0.1410
  629POL    COH  629   0.340   0.024   0.998  0.2671 -0.0042 -0.2967
  630POL    COH  630   0.788   4.047   5.161  0.1677 -0.3179 -0.0743
  631POL    COH  631   0.487   0.739   3.768  0.4139 -0.0865 -0.1550
  632POL    COH  632   0.996   1.976   4.514 -0.0510  0.1117 -0.1626
  633POL    COH  633   1.956   3.803   3.363 -0.2850 -0.3361  0.0252
  634POL    COH  634   3.875   0.128   1.949  0.3348  0.1525  0.0664
  635POL    COH  635   3.536   4.540   1.595 -0.1375 -0.1541  0.2880
  636POL    COH  636   1.236   0.406   3.223 -0.1809  0.0250 -0.3066
  637POL    COH  637   4.668   6.398   0.757  0.0751 -0.0898  0.2803
  638POL    COH  638   3.814   6.046   4.105  0.0332 -0.1222  0.4168
  639POL    COH  639   0.497   2.863   3.184  0.2431 -0.2224  0.1274
  640POL    COH  640   2.077   2.327   0.343 -0.0858  0.0635 -0.0231
  641POL    COH  641   4.824   4.595   4.484  0.0937 -0.0213  0.5592
  642POL    COH  642   4.279   5.761   6.202 -0.3728  0.0761  0.2650
  643POL    COH  643   5.120   4.405   4.124  0.0483  0.1848 -0.0208
  644POL    COH  644   4.992   6.179   4.512 -0.1064 -0.1991 -0.1996
  645POL    COH  645   4.211   3.326   4.858  0.0687 -0.0990 -0.0273
  646POL    COH  646   2.095   6.353   4.407 -0.0634 -0.2398 -0.1518
  647POL    COH  647   0.956   3.604   0.960 -0.2667 -0.2396  0.2331
  648POL    COH  648   2.198   4.057   5.815  0.2540 -0.0457  0.1390
  649POL    COH  649   4.488   0.781   4.483  0.0734  0.1085  0.1072
  650POL    COH  650   0.682   2.108   2.559  0.1160 -0.0341 -0.1127
  651POL    COH  651   2.698   3.954   1.715  0.0116 -0.0169  0.0062
  652POL    COH  652   4.839   1.556   3.834  0.0767 -0.1818 -0.0528
  653POL    COH  653   1.520   6.152   2.142  0.0045  0.0274 -0.0530
  654POL    COH  654   3.680   5.306   3.269 -0.3102  0.2625  0.0567
  655POL    COH  655   3.615   0.763   2.709  0.0890 -0.0418  0.1433
  656POL    COH  656   1.767   5.790   2.465 -0.4268  0.1443 -0.0984
  657POL    COH  657   0.869   2.203   5.832  0.3689  0.1538 -0.1830
  658POL    COH  658   3.608   4.952   5.890  0.2421  0.1188 -0.0499
  659POL    COH  659   4.259   4.026   1.909  0.0521 -0.2976  0.0070
  660POL    COH  660   0.763   3.058   3.577  0.1144 -0.1984  0.1035
  661POL    COH  661   0.814   4.551   0.201 -0.1806  0.1119 -0.1446
  662POL    COH  662   0.641   4.984   5.800  0.0301  0.2755 -0.0287
  663POL    COH  663   0.107   4.064   3.528  0.0880  0.2935 -0.0637
  664POL    COH  664   3.678   4.949   3.708 -0.0761 -0.0981  0.0058
  665POL    COH  665   3.116   3.404   6.331 -0.5891  0.1018 -0.0270
  666POL    COH  666   2.165   5.690   1.561  0.1240  0.0866  0.3267
  667POL    COH  667   4.469   6.298   4.969  0.0820  0.2733  0.0869
  668POL    COH  668   4.938   1.537   2.964 -0.1729 -0.2298  0.0364
  669POL    COH  669   1.531   1.703   5.463  0.0467 -0.2105 -0.2425
  670POL    COH  670   0.892   1.312   5.500 -0.1803 -0.1856 -0.0626
  671POL    COH  671   4.435   0.468   3.610 -0.3982  0.1859  0.1456
  672POL    COH  672   1.520   5.166   0.400  0.1383  0.3584  0.0644
  673POL    COH  673   4.427   3.768   3.441 -0.1448 -0.1318  0.3496
  674POL    COH  674   3.344   3.852   6.203  0.0211 -0.0123 -0.1226
  675POL    COH  675   5.111   0.422   1.931  0.0136  0.0805 -0.1907
  676POL    COH  676   2.670   3.118   5.160  0.0690 -0.2333  0.0239
  677POL    COH  677   6.158   1.831   1.343  0.0114  0.1631 -0.0668
  678POL    COH  678   4.030   3.139   6.196 -0.1577  0.0239 -0.2893
  679POL    COH  679   4.851   2.448   5.551  0.0630  0.0289  0.1712
  680POL    COH  680   0.031   0.484   5.692  0.2885 -0.0074  0.4216
  681POL    COH  681   5.765   3.458   3.252 -0.1688 -0.0837  0.0314
  682POL    COH  682   2.751   0.038   0.613  0.2963 -0.1866 -0.3802
  683POL    COH  683   5.845   2.723   5.759  0.0499 -0.0638  0.0770
  684POL    COH  684   4.941   0.326   0.338  0.1379 -0.3558 -0.0420
  685POL    COH  685   2.190   6.237   1.375  0.0479 -0.2992  0.1151
  686POL    COH  686   1.610   4.816   5.963 -0.1734 -0.1718 -0.0712
  687POL    COH  687   2.607   0.082   3.078 -0.1001 -0.2172  0.1311
  688POL    COH  688   5.093   2.335   2.390 -0.0364  0.1534 -0.0459
  689POL    COH  689   0.799   1.126   0.822 -0.0456  0.0748 -0.1609
  690POL    COH  690   3.325   5.955   4.302 -0.0163 -0.0831 -0.3418
  691POL    COH  691   2.322   3.625   1.703 -0.1218 -0.0362  0.1238
  692POL    COH  692   4.125   3.551   1.387 -0.0004  0.2209  0.3681
  693POL    COH  693   0.753   6.138   1.931 -0.0736 -0.1258  0.2012
  694POL    COH  694   2.215   5.213   4.324 -0.0535 -0.2424  0.1102
  695POL    COH  695   1.922   0.824   2.577 -0.2208  0.1868  0.0323
  696POL    COH  696   5.177   0.831   3.163 -0.1324 -0.2511 -0.0351
  697POL    COH  697   0.758   3.668   4.236  0.2920  0.1290  0.0574
  698POL    COH  698   0.475   0.266   1.983  0.0510  0.0882  0.0088
  699POL    COH  699   3.914   5.016   1.299 -0.0871 -0.0656  0.4082
  700POL    COH  700   1.864   3.369   2.909  0.0211 -0.0342  0.2033
  701POL    COH  701   2.375   0.672   3.681 -0.0304 -0.0845  0.1726
  702POL    COH  702   5.444   2.673   0.514  0.2312  0.0600 -0.0271
  703POL    COH  703   4.622   2.886   1.016  0.1625 -0.0942 -0.1752
  704POL    COH  704   0.497   2.961   1.217 -0.3080 -0.1272 -0.0479
  705POL    COH  705   1.530   3.725   4.177  0.0959 -0.0228 -0.0884
  706POL    COH  706   2.520   5.237   0.317  0.3006  0.1246 -0.0820
  707POL    COH  707   4.309   2.095   0.491 -0.3413  0.0815 -0.3234
  708POL    COH  708   4.816   5.642   2.281 -0.1223  0.0776 -0.6592
  709POL    COH  709   1.412   0.884   3.830 -0.0668  0.0765  0.3524
  710POL    COH  710   5.034   2.600   3.924 -0.0090 -0.1503 -0.1759
  711POL    COH  711   6.012   4.741   4.088  0.1798 -0.1153 -0.0214
  712POL    COH  712   1.389   2.040   5.891 -0.0289 -0.2433  0.1573
  713POL    COH  713   2.923   6.362   6.253 -0.4383 -0.2739  0.0902
  714POL    COH  714   0.661   3.274   3.969 -0.4248 -0.0376  0.0808
  715POL    COH  715   0.042   5.669   1.265  0.1266  0.1484 -0.2120
  716POL    COH  716   1.605   3.047   5.554  0.1229  0.0158 -0.0925
  717POL    COH  717   1.153   1.177   6.325  0.3111 -0.3146 -0.0213
  718POL    COH  718   0.078   5.140   1.387 -0.1796 -0.2934 -0.1221
  719POL    COH  719   1.399   5.846   0.791 -0.1940 -0.1044 -0.0018
  720POL    COH  720   1.578   2.515   0.380  0.0130  0.1770  0.3696
  721POL    COH  721   4.978   4.374   2.727 -0.0047  0.0746 -0.4740
  722POL    COH  722   3.997   5.072   4.082  0.1679 -0.1321  0.0180
  723POL    COH  723   5.802   3.773   4.679 -0.1722  0.0411  0.1193
  724POL    COH  724   3.596   2.423   0.152 -0.0734  0.1165  0.1852
  725POL    COH  725   0.288   3.999   5.596 -0.0932  0.3356  0.0414
  726POL    COH  726   2.380   1.858   0.303  0.2618  0.2633 -0.3850
  727POL    COH  727   4.780   4.063   2.057  0.2948 -0.1011  0.2162
  728POL    COH  728   3.163   1.623   5.632  0.0179 -0.5264 -0.2923
  729POL    COH  729   0.330   2.053   2.945 -0.2288 -0.1622 -0.1938
  730POL    COH  730   4.618   5.285   1.931 -0.1285  0.1350 -0.2115
  731POL    COH  731   6.289   4.382   2.182 -0.0950 -0.2314  0.0278
  732POL    COH  732   0.166   1.054   3.358  0.0624 -0.1618  0.0255
  733POL    COH  733   4.752   3.715   3.882 -0.2558 -0.1763  0.2223
  734POL    COH  734   4.831   2.163   6.261 -0.1038  0.2429 -0.0444
  735POL    COH  735   4.751   1.188   3.419 -0.0477  0.4602 -0.1011
  736POL    COH  736   2.401   1.789   3.781 -0.0761  0.0858  0.0523
  737POL    COH  737   0.940   4.906   3.488  0.1925  0.1118 -0.2063
  738POL    COH  738   0.881   0.192   1.736 -0.0598 -0.0059  0.0756
  739POL    COH  739   4.061   0.625   2.740 -0.1632 -0.1221 -0.1430
  740POL    COH  740   2.174   0.714   5.596 -0.0891 -0.1983 -0.1107
  741POL    COH  741   0.683   3.097   2.120 -0.1126 -0.4450 -0.0154
  742POL    COH  742   1.112   2.309   2.685 -0.0752 -0.2687  0.1873
  743POL    COH  743   0.578   5.657   2.001 -0.2076 -0.0087  0.3077
  744POL    COH  744   5.422   1.453   0.297  0.0864  0.0924 -0.1320
  745POL    COH  745   3.765   4.879   0.335 -0.0808  0.0742  0.0764
  746POL    COH  746   0.718   2.683   5.502  0.1504  0.4585 -0.1164
  747POL    COH  747   3.085   1.687   5.132 -0.5525  0.0310  0.1386
  748POL    COH  748   6.330   0.722   6.116  0.1529 -0.1121  0.3351
  749POL    COH  749   3.892   0.172   4.057 -0.0091 -0.0387 -0.1360
  750POL    COH  750   0.478   6.199   5.451 -0.1478  0.1569  0.1250
  751POL    COH  751   6.009   5.394   1.004  0.0546 -0.0912 -0.1161
  752POL    COH  752   2.629   2.144   6.201  0.0989 -0.2143  0.0798
  753POL    COH  753   5.738   2.154   5.622  0.3061 -0.2382  0.1282
  754POL    COH  754   0.306   1.641   0.520 -0.0980 -0.2039  0.1763
  755POL    COH  755   5.341   0.593   3.753 -0.0244  0.0619  0.1901
  756POL    COH  756   1.576   0.272   2.522  0.1581 -0.0853 -0.2106
  757POL    COH  757   2.382   5.090   1.378  0.4562 -0.1972 -0.2699
  758POL    COH  758   0.826   0.637   2.150 -0.1010  0.1474  0.2162
  759POL    COH  759   5.207   2.656   2.797  0.0571 -0.1807 -0.0188
  760POL    COH  760   0.029   5.595   0.779  0.1454 -0.0472  0.0272
  761POL    COH  761   5.048   1.293   5.773  0.0995  0.1787 -0.1861
  762POL    COH  762   4.688   4.059   2.510  0.1113  0.0562 -0.0213
  763POL    COH  763   4.873   4.790   0.218  0.1579 -0.1372 -0.1957
  764POL    COH  764   5.372   4.520   5.239 -0.0584 -0.1574 -0.2096
  765POL    COH  765   2.056   2.836   0.072 -0.1735 -0.0163  0.0982
  766POL    COH  766   5.807   4.541   0.083 -0.3068  0.1825  0.0633
  767POL    COH  767   5.233   4.779   4.825 -0.0173 -0.0877 -0.1338
  768POL    COH  768   1.125   3.471   3.961  0.0875 -0.0716 -0.1368
  769POL    COH  769   5.737   4.171   1.534 -0.0629  0.0010  0.3285
  770POL    COH  770   0.227   3.025   1.931 -0.3906 -0.0795 -0.1513
  771POL    COH  771   3.644   1.924   2.997  0.1470 -0.1029 -0.0949
  772POL    COH  772   4.389   1.817   1.024  0.3379 -0.1855  0.0549
  773POL    COH  773   0.951   6.310   5.282 -0.1879 -0.0379 -0.0032
  774POL    COH  774   2.329   3.842   4.636 -0.0234 -0.2057  0.0737
  775POL    COH  775   1.800   2.119   5.248 -0.1261 -0.0593  0.1473
  776POL    COH  776   0.035   2.248   1.270 -0.0640  0.0982 -0.2734
  777POL    COH  777   3.230   3.557   0.398  0.0001  0.0703 -0.1992
  778POL    COH  778   0.360   2.472   1.805 -0.1843  0.2004  0.0431
  779POL    COH  779   6.354   0.108   1.777  0.1185 -0.0195  0.0590
  780POL    COH  780   4.655   3.419   1.156  0.0740 -0.0087 -0.0330
  781POL    COH  781   2.363   5.949   1.975 -0.0048  0.0723  0.0084
  782POL    COH  782   2.452   4.391   3.926 -0.0210  0.1662 -0.0732
  783POL    COH  783   3.110   5.010   5.997 -0.1994 -0.0869 -0.0226
  784POL    COH  784   5.812   5.424   5.098 -0.2158  0.0827  0.4366
  785POL    COH  785   2.633   1.145   5.046  0.1542  0.0154  0.0990
  786POL    COH  786   2.747   0.330   2.673  0.3226 -0.0615 -0.0532
  787POL    COH  787   6.350   3.822   5.987  0.0677 -0.0248 -0.0195
  788POL    COH  788   1.442   3.575   2.084  0.1302  0.0302  0.3045
  789POL    COH  789   6.245   4.598   1.014  0.4007  0.2075 -0.0005
  790POL    COH  790   4.694   1.470   0.567  0.0356 -0.4709 -0.4353
  791POL    COH  791   0.341   1.275   0.857  0.0263  0.0907  0.0907
  792POL    COH  792   5.565   1.128   0.856 -0.0845  0.0482  0.1138
  793POL    COH  793   1.054   6.336   3.198 -0.1001 -0.1095  0.0651
  794POL    COH  794   3.888   1.146   5.353  0.2443 -0.0502  0.1741
  795POL    COH  795   5.829   6.283   1.513 -0.1680  0.1625 -0.0236
  796POL    COH  796   3.593   5.407   0.582 -0.1741  0.0472 -0.0445
  797POL    COH  797   4.381   5.822   5.197 -0.4130  0.2123  0.1971
  798POL    COH  798   4.710   4.730   0.888 -0.1256 -0.3665 -0.0891
  799POL    COH  799   3.214   2.254   1.316 -0.0715 -0.0167 -0.1403
  800POL    COH  800   2.293   1.480   2.126  0.0829 -0.1407  0.0319
  801POL    COH  801   2.480   4.222   6.236 -0.1297 -0.0407 -0.0913
  802POL    COH  802   1.119   5.819   5.403  0.1190 -0.1859 -0.0148
  803POL    COH  803   5.138   0.490   1.428 -0.0771  0.0605  0.4788
  804POL    COH  804   4.518   0.319   5.401 -0.0634 -0.1636 -0.0139
  805POL    COH  805   0.244   2.878   4.878  0.2040  0.1570 -0.0924
  806POL    COH  806   3.224   2.716   4.954  0.0466  0.0170 -0.1455
  807POL    COH  807   0.847   3.650   2.164  0.0792  0.1659 -0.0167
  808POL    COH  808   1.596   4.166   3.317  0.0281 -0.1726 -0.0848
  809POL    COH  809   4.061   1.956   4.779 -0.2169  0.1346  0.1152
  810POL    COH  810   4.438   4.578   4.894  0.1749 -0.0754  0.1893
  811POL    COH  811   2.109   3.539   1.055  0.1955  0.2168 -0.1466
  812POL    COH  812   3.028   5.947   0.078  0.1158  0.3500  0.2011
  813POL    COH  813   6.095   3.410   0.467  0.1850  0.0241  0.1012
  814POL    COH  814   0.599   2.008   4.845  0.0942  0.0880  0.2950
  815POL    COH  815   3.248   5.246   1.837 -0.0940  0.2073 -0.0843
  816POL    COH  816   3.719   1.963   0.378 -0.2962 -0.1279 -0.0925
  817POL    COH  817   5.010   4.611   3.161 -0.2447 -0.1741  0.0780
  818POL    COH  818   1.103   1.673   1.544 -0.1314  0.0507  0.2266
  819POL    COH  819   4.140   5.882   4.775  0.1775  0.1424 -0.1877
  820POL    COH  820   3.172   4.820   2.615  0.4033  0.1202  0.1033
  821POL    COH  821   6.379   4.205   1.665 -0.4526  0.1534  0.1715
  822POL    COH  822   3.993   1.431   4.874  0.1335  0.1582 -0.1353
  823POL    COH  823   5.780   3.080   0.222 -0.1620  0.1112  0.2518
  824POL    COH  824   2.210   2.929   2.767 -0.0128 -0.1303 -0.2464
  825POL    COH  825   5.982   0.465   5.723  0.0936  0.0443  0.0658
  826POL    COH  826   2.906   2.306   2.379  0.0854  0.0165 -0.1152
  827POL    COH  827   4.064   4.736   2.932 -0.1009 -0.0546 -0.1511
  828POL    COH  828   2.515   2.512   2.122 -0.4565  0.0021  0.0229
  829POL    COH  829   1.060   5.137   2.887  0.0280  0.0147  0.1237
  830POL    COH  830   3.690   1.381   4.207  0.0747  0.3913 -0.1945
  831POL    COH  831   6.312   4.730   0.535 -0.2656  0.1124 -0.2424
  832POL    COH  832   5.444   5.316   0.024 -0.2164  0.1939  0.0834
  833POL    COH  833   6.382   2.605   4.045 -0.0015  0.2401 -0.5145
  834POL    COH  834   1.634   3.327   5.156  0.3276 -0.0373 -0.0489
  835POL    COH  835   3.195   4.604   5.694  0.1084  0.1186 -0.4271
  836POL    COH  836   3.019   5.769   5.396  0.1064 -0.3985  0.0503
  837POL    COH  837   3.719   3.654   4.105  0.1607  0.4024  0.1635
  838POL    COH  838   2.569   5.947   5.432 -0.4033 -0.1605  0.2084
  839POL    COH  839   4.818   5.389   2.804  0.0575 -0.0752 -0.0859
  840POL    COH  840   4.089   5.698   1.847 -0.1581  0.1207 -0.0275
  841POL    COH  841   4.592   5.150   0.571  0.3397  0.1671  0.2160
  842POL    COH  842   3.527   5.097   2.289 -0.1591 -0.0649 -0.1973
  843POL    COH  843   5.528   4.963   1.182  0.2461 -0.2071 -0.0186
  844POL    COH  844   2.125   1.596   5.553 -0.1440 -0.1267 -0.1307
  845POL    COH  845   2.954   3.033   0.657 -0.0669 -0.1261  0.0960
  846POL    COH  846   5.426   2.494   5.028 -0.4287 -0.0886 -0.1250
  847POL    COH  847   4.038   2.812   3.653  0.2872  0.1070 -0.3520
  848POL    COH  848   4.493   0.028   3.326  0.2556 -0.3071 -0.1420
  849POL    COH  849   5.851   0.491   6.210  0.1658  0.2435  0.4536
  850POL    COH  850   3.045   0.132   1.272 -0.0251 -0.0482 -0.4787
  851POL    COH  851   0.075   6.116   5.827  0.0448 -0.0331  0.2665
  852POL    COH  852   2.368   2.000   2.161  0.1642  0.3703 -0.1851
  853POL    COH  853   3.682   5.937   4.654  0.0999  0.1635  0.0137
  854POL    COH  854   1.863   1.680   4.602  0.5590 -0.3085 -0.0886
  855POL    COH  855   5.847   4.945   0.797  0.0023  0.3415 -0.1623
  856POL    COH  856   0.655   6.275   4.659  0.0257  0.1972 -0.0858
  857POL    COH  857   5.752   5.809   1.254 -0.1948  0.0750 -0.0832
  858POL    COH  858   5.290   3.083   3.174  0.1086 -0.0530  0.0669
  859POL    COH  859   2.280   1.907   4.757 -0.1756  0.2486 -0.3701
  860POL    COH  860   0.622   0.754   2.606  0.0733  0.1679  0.1890
  861POL    COH  861   4.415   1.827   5.106 -0.0987  0.3009 -0.0628
  862POL    COH  862   3.265   0.923   4.500 -0.0565 -0.0235  0.1997
  863POL    COH  863   6.024   4.567   1.682  0.1093  0.1854 -0.1489
  864POL    COH  864   5.672   0.538   0.248  0.0933  0.1681  0.0137
  865POL    COH  865   6.244   4.859   0.056 -0.0267 -0.1118  0.0864
  866POL    COH  866   5.300   1.932   3.314  0.0829 -0.1281  0.4046
  867POL    COH  867   0.396   2.750   0.436 -0.2652 -0.3137 -0.0016
  868POL    COH  868   4.870   0.770   3.622 -0.4357 -0.3328  0.1775
  869POL    COH  869   5.477   2.940   4.781  0.3548 -0.0587  0.4162
  870POL    COH  870   1.388   4.779   4.894 -0.0840 -0.1921 -0.2278
  871POL    COH  871   5.482   5.526   3.036 -0.3829 -0.2044  0.0725
  872POL    COH  872   4.957   3.196   6.192 -0.0008  0.2743  0.1768
  873POL    COH  873   2.878   1.797   1.460 -0.1695 -0.0458  0.3129
  874POL    COH  874   4.792   3.786   5.237 -0.1145  0.2153 -0.1062
  875POL    COH  875   4.667   1.679   6.149 -0.2169 -0.1999  0.0967
  876POL    COH  876   5.952   3.975   0.190 -0.2085 -0.0796 -0.0859
  877POL    COH  877   3.665   5.014   1.807 -0.2331  0.0672 -0.2517
  878POL    COH  878   5.836   3.018   2.367 -0.1153  0.0081  0.3045
  879POL    COH  879   5.784   5.018   1.742 -0.0440 -0.0846 -0.3508
  880POL    COH  880   1.476   2.771   2.441  0.0543  0.1691  0.1833
  881POL    COH  881   3.746   6.274   5.645  0.2828  0.3328  0.3272
  882POL    COH  882   6.111   6.130   6.111  0.1291 -0.0098  0.0118
  883POL    COH  883   2.215   3.114   2.021 -0.2782 -0.0648 -0.3212
  884POL    COH  884   3.242   1.494   1.632 -0.1304  0.0038 -0.2527
  885POL    COH  885   1.877   1.605   5.130 -0.3792  0.1377  0.2167
  886POL    COH  886   0.663   2.416   4.389  0.4103 -0.2146  0.0245
  887POL    COH  887   5.977   3.727   1.617 -0.1299  0.0341 -0.2421
  888POL    COH  888   2.006   0.406   2.943 -0.1228 -0.2248 -0.2124
  889POL    COH  889   3.113   3.673   5.800  0.1129  0.0387  0.0496
  890POL    COH  890   6.165   1.633   0.344 -0.2396  0.0430 -0.1212
  891POL    COH  891   0.947   4.298   0.663  0.3776  0.0417 -0.1371
  892POL    COH  892   2.654   2.146   3.968 -0.0619  0.0278  0.1160
  893POL    COH  893   6.010   4.177   6.176  0.1165  0.1063 -0.1248
  894POL    COH  894   3.034   0.793   4.891 -0.0287  0.0448  0.0452
  895POL    COH  895   1.387   4.029   2.818 -0.0508 -0.2409 -0.0990
  896POL    COH  896   5.224   1.090   3.604  0.0818 -0.2988  0.0745
  897POL    COH  897   1.894   4.965   4.956  0.1587 -0.2251  0.3331
  898POL    COH  898   0.574   0.645   1.685  0.0055 -0.0150  0.0463
  899POL    COH  899   0.788   2.966   0.795  0.0648  0.2214 -0.1268
  900POL    COH  900   5.849   1.042   2.415  0.1508  0.1166 -0.0332
  901POL    COH  901   3.223   3.290   1.539 -0.2246 -0.0419  0.0495
  902POL    COH  902   3.789   4.403   3.662 -0.0717  0.0113 -0.0358
  903POL    COH  903   2.891   4.386   1.960  0.0896  0.1415  0.2839
  904POL    COH  904   2.494   0.109   1.087 -0.1084  0.2851 -0.4095
  905POL    COH  905   3.600   2.331   2.712 -0.0591 -0.0425  0.1959
  906POL    COH  906   5.024   0.767   2.263 -0.2739  0.2885  0.0185
  907POL    COH  907   2.901   3.991   3.155 -0.1285 -0.1607 -0.1851
  908POL    COH  908   0.971   3.583   3.083 -0.0274  0.0842  0.0585
  909POL    COH  909   3.430   2.717   3.067 -0.0723  0.0880  0.0256
  910POL    COH  910   2.715   5.246   3.094  0.3481 -0.0712  0.1454
  911POL    COH  911   0.181   1.195   3.917  0.0319 -0.0126  0.6166
  912POL    COH  912   6.334   1.779   2.668 -0.3987  0.0594  0.2499
  913POL    COH  913   2.316   4.626   3.437  0.1680 -0.2579 -0.3580
  914POL    COH  914   4.551   6.250   6.294  0.0189  0.0695  0.0180
  915POL    COH  915   1.529   0.477   1.056 -0.1747  0.0619 -0.0608
  916POL    COH  916   0.577   5.075   2.669 -0.2011 -0.0265 -0.1808
  917POL    COH  917   1.259   4.349   1.980 -0.0762  0.0517  0.2121
  918POL    COH  918   2.050   4.833   2.105  0.1264 -0.3503  0.0494
  919POL    COH  919   4.245   5.301   5.905 -0.0378 -0.3143  0.1756
  920POL    COH  920   5.901   2.269   4.163 -0.1955  0.0611  0.1291
  921POL    COH  921   4.396   6.094   2.466  0.0848  0.2735  0.0687
  922POL    COH  922   3.935   3.538   0.800  0.2844  0.2561  0.1645
  923POL    COH  923   3.646   6.367   0.653  0.3392  0.0867 -0.2684
  924POL    COH  924   2.828   5.961   4.723 -0.1916  0.0256  0.0760
  925POL    COH  925   0.100   0.562   1.796 -0.0222  0.0375  0.0823
  926POL    COH  926   1.653   0.736   5.617 -0.0120  0.0591  0.1252
  927POL    COH  927   5.681   0.270   3.498  0.3174 -0.1044 -0.2086
  928POL    COH  928   4.937   2.847   5.879  0.6118 -0.1557  0.4484
  929POL    COH  929   1.890   5.915   4.607  0.0377 -0.1487  0.2511
  930POL    COH  930   4.121   2.922   1.569  0.1118 -0.0848 -0.1504
  931POL    COH  931   0.179   0.623   0.182 -0.1041  0.1792  0.3870
  932POL    COH  932   1.813   0.429   0.527 -0.0490  0.0608 -0.0181
  933POL    COH  933   0.656   2.626   6.392  0.2658 -0.1660  0.2756
  934POL    COH  934   3.315   5.481   5.763 -0.0514 -0.0424 -0.1779
  935POL    COH  935   5.184   4.180   3.173 -0.4836  0.2062 -0.2095
  936POL    COH  936   4.470   4.225   5.320 -0.1535 -0.2775  0.4122
  937POL    COH  937   2.925   5.226   0.075  0.0915  0.1826  0.1126
  938POL    COH  938   1.872   5.707   6.143 -0.1791 -0.0853  0.2949
  939POL    COH  939   2.439   3.515   6.360 -0.0243 -0.2632 -0.3330
  940POL    COH  940   3.302   6.375   2.497 -0.0288 -0.0472 -0.2841
  941POL    COH  941   5.573   5.470   0.454 -0.0336 -0.1637 -0.1604
  942POL    COH  942   1.232   2.679   0.024  0.2012  0.0857 -0.4114
  943POL    COH  943   3.770   5.907   6.040  0.1241  0.0701 -0.1640
  944POL    COH  944   3.736   0.370   2.359 -0.1115  0.3693  0.1723
  945POL    COH  945   6.107   5.405   1.521  0.4436  0.3703 -0.1368
  946POL    COH  946   3.405   4.099   3.940 -0.2590  0.0610 -0.2246
  947POL    COH  947   4.152   5.331   2.187 -0.2336  0.1398 -0.1067
  948POL    COH  948   4.030   2.441   5.013  0.0454 -0.2368 -0.1927
  949POL    COH  949   5.530   4.702   3.888 -0.0926  0.1653  0.0797
  950POL    COH  950   1.927   3.875   2.850 -0.1832 -0.1500 -0.2752
  951POL    COH  951   4.140   5.427   1.119  0.2956 -0.3375 -0.1369
  952POL    COH  952   2.543   1.393   0.258 -0.2104  0.0829  0.1153
  953POL    COH  953   3.933   0.622   3.626  0.0883  0.5193 -0.0112
  954POL    COH  954   1.751   1.231   2.830 -0.0135 -0.0046 -0.0386
  955POL    COH  955   0.949   2.612   3.257  0.2537 -0.3123 -0.4160
  956POL    COH  956   4.681   2.800   4.209 -0.3401  0.4032  0.0076
  957POL    COH  957   6.287   6.242   4.949  0.3663  0.0109 -0.2938
  958POL    COH  958   0.338   5.259   6.120 -0.3545 -0.1268 -0.0707
  959POL    COH  959   0.476   1.077   4.285 -0.1734  0.1455 -0.2587
  960POL    COH  960   3.521   4.151   3.290  0.1288  0.1189 -0.0485
  961POL    COH  961   0.474   5.885   1.003  0.0113 -0.1145  0.0357
  962POL    COH  962   5.586   0.505   2.922  0.1051  0.2288  0.1009
  963POL    COH  963   2.739   2.197   4.636 -0.0426 -0.2101  0.0736
  964POL    COH  964   1.185   3.756   1.504  0.3992 -0.2379  0.2104
  965POL    COH  965   2.476   1.063   3.353 -0.0949 -0.1345  0.0220
  966POL    COH  966   6.360   4.246   2.695 -0.2627  0.1313  0.3825
  967POL    COH  967   2.523   1.807   4.260 -0.2448  0.1497 -0.0945
  968POL    COH  968   3.234   4.975   3.182 -0.0102  0.2510  0.4512
  969POL    COH  969   1.809   1.054   3.534  0.0626 -0.0950  0.1076
  970POL    COH  970   3.794   0.100   0.208 -0.3174  0.0465 -0.0314
  971POL    COH  971   2.121   5.475   0.982 -0.1617  0.1753  0.0908
  972POL    COH  972   3.152   2.769   1.388 -0.0425  0.2764  0.1932
  973POL    COH  973   2.796   4.829   3.474  0.0145 -0.0391  0.0837
  974POL    COH  974   6.026   2.008   0.016  0.4486  0.1377  0.2213
  975POL    COH  975   4.695   5.185   5.691  0.0956  0.1088  0.1332
  976POL    COH  976   0.468   4.797   3.055  0.0271  0.1072  0.2453
  977POL    COH  977   0.644   5.299   1.675 -0.0548 -0.1608 -0.3239
  978POL    COH  978   4.871   1.999   4.621 -0.1223 -0.2970 -0.1135
  979POL    COH  979   2.876   2.694   4.078  0.2115 -0.2169 -0.0876
  980POL    COH  980   2.835   3.880   6.242  0.0167 -0.0498 -0.0446
  981POL    COH  981   3.859   1.558   5.901  0.1183 -0.1072 -0.0148
  982POL    COH  982   6.081   0.527   2.063 -0.1462 -0.3392 -0.0234
  983POL    COH  983   4.151   1.783   1.845  0.0671 -0.3631  0.2712
  984POL    COH  984   0.125   5.222   0.219  0.3400  0.1015  0.1159
  985POL    COH  985   2.009   3.226   1.496 -0.0778 -0.2222  0.1270
  986POL    COH  986   5.526   0.196   1.762 -0.0627 -0.0627 -0.2480
  987POL    COH  987   4.518   6.162   1.467  0.3520 -0.0815  0.2740
  988POL    COH  988   3.234   5.785   1.926  0.1092 -0.0866 -0.1982
  989POL    COH  989   3.630   4.557   6.330  0.2386 -0.1877 -0.1628
  990POL    COH  990   6.302   1.341   1.289 -0.0468 -0.0986  0.2633
  991POL    COH  991   3.297   5.757   4.874 -0.0519  0.5141 -0.0147
  992POL    COH  992   6.245   2.448   1.729  0.3052 -0.1031 -0.1721
  993POL    COH  993   1.265   3.189   4.346  0.3218 -0.3212 -0.0943
  994POL    COH  994   0.278   1.667   1.228 -0.0445 -0.0044  0.1495
  995POL    COH  995   3.806   1.808   4.425 -0.0576 -0.0001  0.0612
  996POL    COH  996   5.869   2.179   4.966  0.1719  0.0093  0.1487
  997POL    COH  997   1.484   4.884   5.392 -0.1905  0.2042 -0.1679
  998POL    COH  998   1.972   0.047   0.918  0.0343  0.2245  0.1298
  999POL    COH  999   4.721   3.905   4.407 -0.1155  0.3769  0.2646
 1000POL    COH 1000   5.423   3.103   5.897 -0.1014  0.2274  0.2608
 1001POL    COH 1001   3.968   1.663   5.387 -0.1533  0.2293  0.0603
 1002POL    COH 1002   3.623   1.497   3.219  0.1306 -0.0562  0.2524
 1003POL    COH 1003   5.235   4.276   1.848  0.0298  0.4560  0.3068
 1004POL    COH 1004   0.364   0.331   2.594 -0.1651  0.1450  0.2179
 1005POL    COH 1005   2.118   1.400   3.230  0.3005  0.1393  0.1211
 1006POL    COH 1006   2.458   0.644   1.582  0.0054  0.1504 -0.0125
 1007POL    COH 1007   5.623   3.883   2.012 -0.1587 -0.0835 -0.1059
 1008POL    COH 1008   2.751   2.165   5.165  0.3592  0.3670 -0.2101
 1009POL    COH 1009   1.403   5.574   1.248  0.4190  0.2397 -0.0373
 1010POL    COH 1010   0.311   0.101   5.028  0.1699  0.1363 -0.0492
 1011POL    COH 1011   5.538   1.402   2.663  0.0495  0.0914  0.2218
 1012POL    COH 1012   2.430   3.817   2.697  0.2980  0.3474 -0.1437
 1013POL    COH 1013   4.720   4.956   4.805  0.3344  0.1809  0.2431
 1014POL    COH 1014   1.574   2.130   6.319  0.0600  0.1775 -0.0701
 1015POL    COH 1015   6.257   4.112   5.476  0.0469  0.0588  0.5021
 1016POL    COH 1016   5.787   0.035   4.948  0.0658  0.1596  0.0676
 1017POL    COH 1017   4.944   2.087   3.628 -0.1403  0.1291 -0.0327
 1018POL    COH 1018   0.168   3.225   1.449  0.2830  0.0356 -0.0967
 1019POL    COH 1019   6.356   1.171   4.462 -0.0798 -0.5671  0.1379
 1020POL    COH 1020   1.707   1.529   4.031  0.0066  0.0551  0.0147
 1021POL    COH 1021   4.911   6.221   0.311 -0.0102 -0.1754  0.0851
 1022POL    COH 1022   2.196   0.375   4.150 -0.0798 -0.1790 -0.2184
 1023POL    COH 1023   0.283   5.682   0.361 -0.2580  0.3363  0.0105
 1024POL    COH 1024   1.700   3.673   0.291 -0.3081  0.2249 -0.0007
 1025POL    COH 1025   5.980   3.829   2.868 -0.2243  0.0921  0.2013
 1026POL    COH 1026   3.508   0.952   4.894 -0.0904  0.0108 -0.1610
 1027POL    COH 1027   2.947   3.289   1.098 -0.0885  0.0748 -0.1218
 1028POL    COH 1028   1.295   5.902   4.881  0.0206  0.1655  0.1539
 1029POL    COH 1029   5.115   4.248   4.695  0.1542 -0.0903 -0.0562
 1030POL    COH 1030   0.378   0.168   3.803  0.3692 -0.2057  0.2902
 1031POL    COH 1031   4.290   1.323   3.560 -0.1755  0.2216 -0.4002
 1032POL    COH 1032   5.804   3.940   5.203  0.2117  0.0150  0.3729
 1033POL    COH 1033   6.105   6.241   4.423  0.1178  0.1695 -0.0205
 1034POL    COH 1034   5.337   5.500   1.212  0.1366 -0.0212 -0.1785
 1035POL    COH 1035   4.069   1.567   0.657  0.1726 -0.0479 -0.0325
 1036POL    COH 1036   5.474   4.577   2.937  0.2136  0.0705 -0.0597
 1037POL    COH 1037   1.391   2.499   3.946  0.2534 -0.0910 -0.0756
 1038POL    COH 1038   5.845   1.265   0.450  0.1331  0.4360  0.4427
 1039POL    COH 1039   0.073   1.551   3.118 -0.0459 -0.1281 -0.0494
 1040POL    COH 1040   5.198   1.810   6.143 -0.0306 -0.3036 -0.2146
 1041POL    COH 1041   3.586   0.268   2.909  0.2602  0.1029 -0.3403
 1042POL    COH 1042   1.045   0.699   1.542  0.1317 -0.0280  0.0082
 1043POL    COH 1043   2.162   4.021   4.188  0.0836 -0.1472  0.1591
 1044POL    COH 1044   3.807   4.481   0.637  0.1102 -0.1287 -0.0793
 1045POL    COH 1045   5.617   3.414   4.974 -0.1111 -0.2278 -0.0376
 1046POL    COH 1046   6.105   4.110   1.202 -0.2363  0.3432  0.0941
 1047POL    COH 1047   4.772   5.342   5.177  0.1689  0.2665  0.2350
 1048POL    COH 1048   2.223   1.348   2.608  0.0223  0.2007 -0.0439
 1049POL    COH 1049   5.867   3.782   3.918  0.1393  0.2769 -0.1687
 1050POL    COH 1050   4.192   3.213   2.320  0.0976  0.1353 -0.0161
 1051POL    COH 1051   3.393   1.798   1.249  0.2183 -0.1888  0.1983
 1052POL    COH 1052   5.573   5.487   4.354 -0.3319 -0.2622 -0.0774
 1053POL    COH 1053   1.240   0.172   1.310 -0.2211  0.0624  0.2689
 1054POL    COH 1054   1.370   4.991   3.230 -0.2660 -0.2861 -0.0542
 1055POL    COH 1055   0.683   5.727   6.195  0.0570  0.1649  0.0774
 1056POL    COH 1056   1.548   3.532   4.688 -0.0313 -0.4958 -0.2942
 1057POL    COH 1057   5.736   2.614   1.754 -0.0022 -0.0222  0.3393
 1058POL    COH 1058   4.829   5.164   3.306  0.2696 -0.2793  0.0233
 1059POL    COH 1059   1.609   3.551   1.029 -0.0440 -0.2148 -0.1772
 1060POL    COH 1060   2.106   0.531   0.094 -0.0754 -0.1597  0.0438
 1061POL    COH 1061   3.702   6.064   2.807  0.3172  0.1085  0.0949
 1062POL    COH 1062   1.792   2.713   3.800  0.0288  0.0898 -0.1822
 1063POL    COH 1063   1.285   6.143   2.640  0.2234 -0.2281  0.1205
 1064POL    COH 1064   3.113   0.069   2.993 -0.0306 -0.1413  0.1196
 1065POL    COH 1065   2.099   5.940   3.788  0.2987 -0.0355 -0.0837
 1066POL    COH 1066   1.895   0.190   6.179  0.1306  0.3148  0.0946
 1067POL    COH 1067   4.257   4.279   2.352 -0.0355 -0.1763 -0.3727
 1068POL    COH 1068   5.165   3.270   5.006 -0.1548 -0.4539  0.0831
 1069POL    COH 1069   5.929   0.594   3.778  0.1716 -0.1162 -0.4048
 1070POL    COH 1070   0.958   2.101   0.712 -0.0575  0.1462 -0.2138
 1071POL    COH 1071   1.048   0.832   2.924 -0.1322  0.0670 -0.1041
 1072POL    COH 1072   0.853   0.783   0.179 -0.0103 -0.0558  0.0718
 1073POL    COH 1073   0.789   1.194   3.871 -0.1904  0.0326 -0.1335
 1074POL    COH 1074   0.346   3.474   2.295  0.3649  0.1075  0.0896
 1075POL    COH 1075   1.245   5.735   2.159 -0.0865  0.3146 -0.1963
 1076POL    COH 1076   6.346   2.061   2.241  0.1646  0.0072  0.1614
 1077POL    COH 1077   2.782   0.799   5.753  0.1013 -0.0668 -0.4046
 1078POL    COH 1078   3.613   3.262   2.862 -0.2314 -0.0109  0.1857
 1079POL    COH 1079   2.474   3.564   4.228 -0.1420  0.0580  0.1822
 1080POL    COH 1080   1.503   6.200   4.489 -0.3795  0.1884 -0.2113
 1081POL    COH 1081   0.784   3.335   1.365  0.0003 -0.0352 -0.1679
 1082POL    COH 1082   3.647   0.439   5.806  0.0497 -0.1464 -0.1415
 1083POL    COH 1083   3.874   3.956   5.318  0.0685 -0.2862  0.0634
 1084POL    COH 1084   2.820   0.543   0.692 -0.0402  0.2459  0.1367
 1085POL    COH 1085   2.293   5.528   2.802 -0.1341  0.0776 -0.2345
 1086POL    COH 1086   2.403   3.446   3.588  0.0512 -0.1663  0.3982
 1087POL    COH 1087   4.050   2.269   3.583 -0.4323  0.2295 -0.3222
 1088POL    COH 1088   4.970   0.114   6.322  0.2593  0.1951 -0.0197
 1089POL    COH 1089   1.998   4.901   0.952  0.3826  0.0926 -0.2325
 1090POL    COH 1090   1.891   3.101   4.717  0.0539  0.2706  0.0309
 1091POL    COH 1091   1.288   2.248   5.398  0.0786  0.1138 -0.2007
 1092POL    COH 1092   5.471   3.623   5.411  0.2190 -0.0192  0.0239
 1093POL    COH 1093   1.376   1.403   5.106 -0.1388 -0.1683 -0.0190
 1094POL    COH 1094   1.081   3.594   0.104 -0.0383  0.1139  0.0930
 1095POL    COH 1095   4.781   0.876   0.303 -0.3303  0.0392 -0.1282
 1096POL    COH 1096   2.317   6.026   3.002  0.1527  0.2719  0.0680
 1097POL    COH 1097   5.048   1.006   6.153 -0.0456  0.2026 -0.0011
 1098POL    COH 1098   1.796   3.784   5.061 -0.1200 -0.3478  0.0885
 1099POL    COH 1099   5.228   5.993   4.151 -0.1282  0.1330 -0.0044
 1100POL    COH 1100   0.133   1.862   5.750 -0.0254  0.0526 -0.0062
 1101POL    COH 1101   3.018   1.213   5.820 -0.0995 -0.0193 -0.1459
 1102POL    COH 1102   0.841   4.132   6.312  0.1600 -0.2081  0.1895
 1103POL    COH 1103   4.109   5.257   0.609 -0.1831  0.0546 -0.3211
 1104POL    COH 1104   1.252   3.257   2.394  0.0138 -0.0365 -0.0778
 1105POL    COH 1105   1.168   0.221   0.430 -0.0271  0.2587  0.5711
 1106POL    COH 1106   5.570   5.234   2.153  0.0598 -0.1494 -0.0938
 1107POL    COH 1107   1.403   2.803   3.363  0.0369 -0.1703  0.0350
 1108POL    COH 1108   2.592   4.162   4.953 -0.1109 -0.1303  0.1251
 1109POL    COH 1109   2.008   3.321   0.094  0.1901  0.0623 -0.1228
 1110POL    COH 1110   0.253   4.208   5.133  0.1311  0.1464  0.2708
 1111POL    COH 1111   1.621   5.740   3.700  0.2053  0.0459 -0.0281
 1112POL    COH 1112   2.788   3.481   1.674  0.2777 -0.1858 -0.3342
 1113POL    COH 1113   4.950   5.298   0.195  0.1833 -0.3485  0.0119
 1114POL    COH 1114   3.745   3.855   1.751 -0.3603  0.2049  0.1540
 1115POL    COH 1115   4.448   5.131   3.957  0.0478 -0.0170 -0.2765
 1116POL    COH 1116   1.571   3.001   0.081 -0.1557  0.0295 -0.1060
 1117POL    COH 1117   5.592   0.793   3.383 -0.2138 -0.1418 -0.1374
 1118POL    COH 1118   4.048   2.426   0.251 -0.0299 -0.1253  0.3694
 1119POL    COH 1119   1.354   2.132   1.691  0.3443 -0.1294  0.1373
 1120POL    COH 1120   2.156   3.920   0.070  0.1128  0.1874  0.1458
 1121POL    COH 1121   0.264   3.590   4.354  0.2611 -0.2703  0.1689
 1122POL    COH 1122   1.651   1.132   6.164  0.1785 -0.0958 -0.0824
 1123POL    COH 1123   1.721   0.060   1.389 -0.2691 -0.0464  0.2948
 1124POL    COH 1124   4.522   4.933   2.911 -0.0214 -0.1258  0.1572
 1125POL    COH 1125   4.797   0.755   1.110 -0.1876 -0.0360  0.1047
 1126POL    COH 1126   4.253   3.937   2.806 -0.0586  0.1378 -0.1178
 1127POL    COH 1127   3.320   0.870   3.540  0.0212  0.0569 -0.1797
 1128POL    COH 1128   6.162   0.917   5.606 -0.1142  0.0983 -0.1113
 1129POL    COH 1129   6.000   5.273   5.588  0.0737  0.0426  0.1169
 1130POL    COH 1130   2.162   3.019   5.396  0.2956 -0.1022 -0.0718
 1131POL    COH 1131   0.209   6.166   3.540 -0.0049 -0.0881  0.0271
 1132POL    COH 1132   2.643   2.721   2.740 -0.0125  0.0220 -0.1295
 1133POL    COH 1133   5.397   3.155   2.214 -0.1716 -0.1331  0.0419
 1134POL    COH 1134   0.930   2.439   0.387 -0.1206 -0.0432  0.1176
 1135POL    COH 1135   2.487   6.159   3.423  0.2216 -0.1832  0.2428
 1136POL    COH 1136   0.018   3.104   0.983  0.0283  0.0843  0.0593
 1137POL    COH 1137   5.984   3.541   6.383  0.2448  0.0835  0.0834
 1138POL    COH 1138   2.596   4.746   4.296 -0.1120 -0.0036  0.1518
 1139POL    COH 1139   0.112   6.407   2.992 -0.4549 -0.0034  0.3616
 1140POL    COH 1140   5.335   5.179   1.590 -0.0609  0.0313  0.0271
 1141POL    COH 1141   2.310   2.478   3.054  0.2375  0.2041 -0.1779
 1142POL    COH 1142   3.100   3.360   4.292 -0.0929 -0.1194  0.0389
 1143POL    COH 1143   1.553   6.238   5.108  0.0079 -0.0767  0.2901
 1144POL    COH 1144   4.268   6.159   5.856  0.0911  0.0301  0.0141
 1145POL    COH 1145   5.392   5.710   2.143  0.1701 -0.2147  0.0321
 1146POL    COH 1146   1.796   0.576   3.407 -0.0147  0.1349  0.0687
 1147POL    COH 1147   0.856   0.896   4.546 -0.0065 -0.2264  0.3432
 1148POL    COH 1148   3.855   3.820   3.658 -0.3431 -0.0928 -0.1452
 1149POL    COH 1149   5.670   4.932   4.998  0.2620  0.0884  0.2690
 1150POL    COH 1150   3.604   3.593   1.313  0.1378 -0.1838  0.0684
 1151POL    COH 1151   1.357   3.275   2.852  0.1702 -0.0990  0.3515
 1152POL    COH 1152   2.782   1.547   1.932 -0.1007 -0.1569 -0.3457
 1153POL    COH 1153   6.118   2.980   3.787  0.0307  0.1476 -0.0925
 1154POL    COH 1154   5.417   0.254   6.174 -0.2639 -0.2677 -0.1493
 1155POL    COH 1155   6.323   3.222   2.391 -0.1563 -0.0876  0.2408
 1156POL    COH 1156   1.685   2.394   3.434  0.0679 -0.0486 -0.0570
 1157POL    COH 1157   0.462   2.269   0.315  0.1042  0.2240  0.0158
 1158POL    COH 1158   4.355   0.185   2.307 -0.0247  0.0947  0.0732
 1159POL    COH 1159   0.176   1.609   2.198 -0.2028  0.0927  0.0053
 1160POL    COH 1160   2.361   3.326   4.685 -0.0989 -0.0149  0.1671
 1161POL    COH 1161   0.737   1.356   2.910 -0.3508  0.3030  0.0535
 1162POL    COH 1162   4.372   2.805   2.626 -0.0875 -0.1687 -0.0247
 1163POL    COH 1163   3.211   5.951   5.936  0.1416  0.2225 -0.3253
 1164POL    COH 1164   3.787   5.837   0.896 -0.1808 -0.0929  0.0103
 1165POL    COH 1165   1.877   3.719   1.485 -0.3146 -0.0413 -0.1722
 1166POL    COH 1166   0.457   1.115   0.377 -0.1554  0.3219 -0.2488
 1167POL    COH 1167   1.278   0.840   1.981  0.1229  0.2389  0.1775
 1168POL    COH 1168   6.240   5.710   2.608 -0.1046  0.3198 -0.2416
 1169POL    COH 1169   4.980   2.810   1.910  0.1285  0.1175  0.1410
 1170POL    COH 1170   2.576   4.950   1.818 -0.2481 -0.0849  0.1658
 1171POL    COH 1171   2.497   3.918   3.831 -0.0976  0.1711  0.1855
 1172POL    COH 1172   1.255   5.561   2.649  0.0570 -0.1060  0.1320
 1173POL    COH 1173   0.934   4.569   3.043  0.2224  0.1503 -0.1850
 1174POL    COH 1174   3.414   1.328   5.228 -0.0689  0.3917  0.1302
 1175POL    COH 1175   0.570   4.770   1.730  0.3199  0.0824 -0.0483
 1176POL    COH 1176   6.143   4.394   3.197 -0.1233  0.0475  0.1255
 1177POL    COH 1177   3.800   2.039   6.228 -0.1085 -0.0789  0.3520
 1178POL    COH 1178   3.325   4.559   0.466 -0.1826  0.0019 -0.0052
 1179POL    COH 1179   5.082   3.397   1.564 -0.0539 -0.0259 -0.0911
 1180POL    COH 1180   2.353   5.666   4.655  0.0290  0.1896  0.1202
 1181POL    COH 1181   1.211   1.407   2.041 -0.0372 -0.0855 -0.1535
 1182POL    COH 1182   5.598   3.256   3.995 -0.1288  0.0503  0.2610
 1183POL    COH 1183   6.398   1.280   2.561  0.0599  0.4473 -0.2199
 1184POL    COH 1184   0.973   6.044   5.824  0.0243 -0.3778  0.0067
 1185POL    COH 1185   0.545   1.599   3.821  0.1133 -0.0750 -0.0344
 1186POL    COH 1186   4.003   4.650   4.681 -0.2498  0.1149  0.0802
 1187POL    COH 1187   3.775   3.313   1.707 -0.2426  0.1100 -0.0290
 1188POL    COH 1188   5.327   4.252   1.227 -0.1113 -0.0924 -0.0470
 1189POL    COH 1189   4.499   1.117   1.787  0.1306  0.1861 -0.0698
 1190POL    COH 1190   1.930   3.565   1.978 -0.1437 -0.2814  0.0308
 1191POL    COH 1191   2.574   1.164   6.194  0.1855 -0.1037  0.2003
 1192POL    COH 1192   1.317   3.009   6.028 -0.1781  0.1132  0.1154
 1193POL    COH 1193   4.306   4.894   2.021 -0.1820  0.1323 -0.1617
 1194POL    COH 1194   3.400   1.532   6.123  0.0480 -0.3673 -0.1421
 1195POL    COH 1195   0.144   4.607   1.471  0.0698  0.0630 -0.0664
 1196POL    COH 1196   2.602   2.720   5.994 -0.1189  0.1110  0.0205
 1197POL    COH 1197   0.953   2.926   4.734 -0.2783 -0.3038 -0.1720
 1198POL    COH 1198   1.712   4.507   4.559  0.2018 -0.1299  0.1681
 1199POL    COH 1199   3.073   5.634   3.880  0.0595 -0.0584 -0.0124
 1200POL    COH 1200   1.769   1.873   0.510  0.2176  0.0342  0.3575
 1201POL    COH 1201   6.189   3.863   2.041  0.1241  0.1814 -0.1640
 1202POL    COH 1202   6.089   3.422   3.627 -0.1137 -0.3175 -0.0251
 1203POL    COH 1203   5.757   3.340   1.914 -0.0154 -0.0147 -0.0076
 1204POL    COH 1204   5.353   0.094   1.221 -0.1798 -0.1875 -0.1100
 1205POL    COH 1205   1.497   3.544   6.230 -0.0498  0.1895 -0.0139
 1206POL    COH 1206   1.144   1.578   1.050  0.3990 -0.3712  0.0239
 1207POL    COH 1207   5.774   6.060   3.655 -0.1719  0.2055  0.0121
 1208POL    COH 1208   2.861   3.469   5.447  0.1141 -0.0564 -0.1264
 1209POL    COH 1209   4.680   1.986   1.725  0.2551  0.1548  0.0839
 1210POL    COH 1210   3.062   1.393   0.597  0.1258  0.0564 -0.1334
 1211POL    COH 1211   0.029   3.520   1.865  0.1207 -0.0344 -0.0146
 1212POL    COH 1212   2.609   5.785   3.789 -0.0357  0.1173  0.0193
 1213POL    COH 1213   4.436   5.654   1.513  0.0304  0.0064  0.1461
 1214POL    COH 1214   3.915   1.608   2.701  0.0210  0.1740  0.2685
 1215POL    COH 1215   4.278   3.239   0.571 -0.2141  0.2120 -0.0972
 1216POL    COH 1216   0.891   5.537   3.309  0.1160 -0.2337 -0.2683
 1217POL    COH 1217   0.050   3.623   0.810  0.2295 -0.1091  0.1190
 1218POL    COH 1218   0.533   0.063   3.278 -0.0610 -0.1691  0.0124
 1219POL    COH 1219   3.461   4.292   4.444 -0.3406  0.0842  0.0296
 1220POL    COH 1220   1.601   0.116   3.021  0.1566 -0.0198  0.0445
 1221POL    COH 1221   1.040   3.395   1.828  0.0658  0.2180 -0.1208
 1222POL    COH 1222   4.974   5.455   0.711  0.0839  0.2284  0.4067
 1223POL    COH 1223   2.600   1.399   5.736 -0.1082 -0.0735  0.2131
 1224POL    COH 1224   2.007   1.022   0.185 -0.0665 -0.0364  0.0456
 1225POL    COH 1225   4.084   4.697   1.602 -0.0347 -0.2227 -0.0287
 1226POL    COH 1226   3.832   6.011   3.619 -0.2052 -0.0328  0.2037
 1227POL    COH 1227   1.852   5.394   3.401 -0.0044 -0.0687 -0.1414
 1228POL    COH 1228   5.212   6.030   5.522  0.3950  0.1435 -0.1249
 1229POL    COH 1229   2.184   3.467   0.510  0.3029 -0.1759  0.1761
 1230POL    COH 1230   3.032   3.795   2.121 -0.0230  0.0227 -0.1708
 1231POL    COH 1231   2.126   3.641   2.410 -0.1833  0.0887  0.2403
 1232POL    COH 1232   6.303   1.588   4.983  0.3125 -0.3367  0.0277
 1233POL    COH 1233   0.401   4.407   4.613  0.0362 -0.0617 -0.0069
 1234POL    COH 1234   5.939   4.530   2.704  0.0430  0.2018  0.0773
 1235POL    COH 1235   3.309   2.994   1.973  0.3755 -0.0100  0.1231
 1236POL    COH 1236   3.377   0.303   6.338  0.3221 -0.0985  0.0723
 1237POL    COH 1237   4.458   0.130   3.944 -0.0797  0.2438  0.1812
 1238POL    COH 1238   0.889   3.816   0.524  0.3782  0.1433 -0.2225
 1239POL    COH 1239   3.518   5.922   1.361 -0.0113 -0.2216 -0.1787
 1240POL    COH 1240   3.977   3.559   2.649  0.2643 -0.0689 -0.1293
 1241POL    COH 1241   0.985   4.582   1.112 -0.1797  0.1136 -0.3457
 1242POL    COH 1242   4.411   1.633   4.546  0.0458 -0.0262  0.0979
 1243POL    COH 1243   4.629   3.684   0.299 -0.1912  0.1900 -0.0531
 1244POL    COH 1244   3.356   3.835   4.397  0.1861  0.2969 -0.2603
 1245POL    COH 1245   2.823   3.118   3.602  0.0906  0.2107 -0.5871
 1246POL    COH 1246   4.961   0.605   5.107  0.1539  0.2582  0.0545
 1247POL    COH 1247   1.219   2.940   0.523  0.2832  0.0695 -0.3903
 1248POL    COH 1248   0.286   3.593   3.563  0.2667  0.2151 -0.1235
 1249POL    COH 1249   1.467   3.686   3.168 -0.1007 -0.1247 -0.1904
 1250POL    COH 1250   5.316   3.451   3.642 -0.0413 -0.1105  0.0722
 1251POL    COH 1251   6.080   6.252   3.274 -0.0047  0.1192 -0.1643
 1252POL    COH 1252   2.861   5.952   0.539  0.2060 -0.1825 -0.0959
 1253POL    COH 1253   2.312   3.121   6.134 -0.0064  0.4029  0.0107
 1254POL    COH 1254   6.094   6.273   2.740 -0.0171  0.0278 -0.2555
 1255POL    COH 1255   3.535   6.402   4.324  0.0637  0.1710 -0.1092
 1256POL    COH 1256   5.908   5.931   0.807 -0.3347  0.1475 -0.3442
 1257POL    COH 1257   1.466   1.127   0.266 -0.3490  0.3041  0.0123
 1258POL    COH 1258   0.917   4.230   4.724  0.0321  0.0144  0.0704
 1259POL    COH 1259   3.313   4.300   2.857  0.2600 -0.0210 -0.2292
 1260POL    COH 1260   5.541   2.999   5.255 -0.0388 -0.3583 -0.1655
 1261POL    COH 1261   5.207   4.894   3.556 -0.1036 -0.1287 -0.1355
 1262POL    COH 1262   1.116   6.211   3.975 -0.2217 -0.0006 -0.4038
 1263POL    COH 1263   3.220   5.635   0.886  0.0183 -0.0790 -0.0343
 1264POL    COH 1264   0.701   1.474   1.280 -0.3585  0.1891 -0.1037
 1265POL    COH 1265   3.296   4.666   2.042 -0.1464 -0.0970  0.1646
 1266POL    COH 1266   0.948   2.065   3.100 -0.2126 -0.2484  0.3043
 1267POL    COH 1267   4.533   4.902   1.549  0.1905 -0.1440  0.0685
 1268POL    COH 1268   4.194   3.602   3.914 -0.1018  0.0228  0.0423
 1269POL    COH 1269   1.303   4.843   6.385  0.3096  0.1888  0.0627
 1270POL    COH 1270   0.730   0.786   5.609  0.1706 -0.0693  0.0939
 1271POL    COH 1271   0.040   2.498   3.035 -0.3160 -0.0486  0.0462
 1272POL    COH 1272   5.135   3.466   0.189 -0.0681  0.3169  0.0262
 1273POL    COH 1273   2.639   0.457   4.010 -0.2715 -0.3829  0.0735
 1274POL    COH 1274   1.940   3.205   2.435 -0.1133 -0.1606 -0.2796
 1275POL    COH 1275   0.997   4.653   5.994 -0.2942  0.0959  0.0847
 1276POL    COH 1276   3.813   0.013   6.135 -0.1865  0.3562 -0.1855
 1277POL    COH 1277   3.038   1.913   6.029  0.2297  0.3049 -0.1252
 1278POL    COH 1278   1.288   6.078   1.262  0.0400  0.1234 -0.1207
 1279POL    COH 1279   5.347   0.854   5.003 -0.1500  0.0651 -0.1062
 1280POL    COH 1280   1.002   6.207   6.343 -0.2400 -0.2887  0.0209
 1281POL    COH 1281   1.105   4.017   4.014 -0.0287  0.0569  0.0648
 1282POL    COH 1282   2.562   0.308   5.667  0.0453  0.0219  0.1111
 1283POL    COH 1283   2.902   5.329   0.620  0.0466  0.1396  0.0947
 1284POL    COH 1284   2.683   6.018   6.013  0.1409  0.2511 -0.1520
 1285POL    COH 1285   0.400   0.473   4.731 -0.0310  0.2210 -0.1725
 1286POL    COH 1286   0.053   1.750   6.337  0.1096 -0.3347 -0.1003
 1287POL    COH 1287   2.970   0.611   1.279  0.1564  0.2894  0.0457
 1288POL    COH 1288   4.028   3.469   3.263  0.0080  0.3565 -0.1843
 1289POL    COH 1289   4.196   2.876   5.171 -0.0569 -0.0140 -0.1277
 1290POL    COH 1290   4.974   1.436   2.443 -0.3778 -0.2094 -0.0346
 1291POL    COH 1291   0.019   1.366   5.521  0.0818 -0.0003  0.1068
 1292POL    COH 1292   1.671   2.780   2.880 -0.0814  0.1049 -0.0418
 1293POL    COH 1293   4.123   6.338   0.643  0.0796 -0.1807 -0.1342
 1294POL    COH 1294   2.262   2.585   4.069 -0.1935 -0.0924  0.0607
 1295POL    COH 1295   2.513   3.258   1.325  0.1016  0.1381 -0.1918
 1296POL    COH 1296   3.633   0.546   4.302  0.1324  0.2047 -0.0582
 1297POL    COH 1297   5.655   6.043   0.412  0.2413  0.3272 -0.0958
 1298POL    COH 1298   4.902   1.168   5.230 -0.0762 -0.4478  0.4318
 1299POL    COH 1299   3.021   4.737   1.594 -0.0149 -0.0388  0.0764
 1300POL    COH 1300   5.546   3.325   2.809 -0.0640 -0.1673  0.0179
 1301POL    COH 1301   2.807   3.710   0.758  0.1820 -0.0642 -0.4326
 1302POL    COH 1302   0.110   1.182   0.008  0.0526  0.1877  0.0254
 1303POL    COH 1303   3.964   5.261   0.126 -0.1395 -0.5387 -0.2674
 1304POL    COH 1304   6.283   3.063   0.014  0.0149 -0.1013  0.2315
 1305POL    COH 1305   3.004   1.573   2.840  0.2000 -0.0053  0.1979
 1306POL    COH 1306   0.800   3.682   3.635  0.0526  0.2379  0.0708
 1307POL    COH 1307   3.461   2.927   6.261 -0.1548  0.2212 -0.0040
 1308POL    COH 1308   1.248   4.043   2.297  0.0273  0.1319  0.1905
 1309POL    COH 1309   3.577   0.559   0.448  0.0435  0.0086 -0.0703
 1310POL    COH 1310   1.579   1.943   3.325 -0.1789 -0.1300  0.1296
 1311POL    COH 1311   0.226   4.536   3.421 -0.3440  0.1304  0.1279
 1312POL    COH 1312   4.233   2.921   4.465  0.0749  0.3061 -0.0824
 1313POL    COH 1313   0.210   3.079   3.501 -0.0134 -0.0572 -0.1707
 1314POL    COH 1314   3.429   5.888   2.406  0.0742 -0.1288  0.0631
 1315POL    COH 1315   3.981   2.500   1.651  0.0891  0.3761  0.2659
 1316POL    COH 1316   0.410   1.642   2.646 -0.2152  0.0333 -0.0160
 1317POL    COH 1317   5.188   3.083   4.158 -0.0258  0.1121 -0.0174
 1318POL    COH 1318   4.934   1.422   0.082  0.0044  0.0160  0.1437
 1319POL    COH 1319   2.401   4.404   0.863 -0.0071  0.1824  0.1045
 1320POL    COH 1320   4.597   1.773   3.252 -0.2134  0.3306  0.0773
 1321POL    COH 1321   5.416   5.820   0.814  0.2248 -0.1296  0.0950
 1322POL    COH 1322   0.425   3.589   0.374 -0.0360 -0.2268  0.0054
 1323POL    COH 1323   2.075   3.052   4.191 -0.0639 -0.3466 -0.0138
 1324POL    COH 1324   2.102   1.149   1.078 -0.0944  0.2033  0.0299
 1325POL    COH 1325   4.710   4.026   0.609 -0.1708 -0.0096 -0.1361
 1326POL    COH 1326   0.735   0.019   0.352 -0.0954  0.2059 -0.0919
 1327POL    COH 1327   4.370   1.966   3.711 -0.0184  0.3649  0.1054
 1328POL    COH 1328   2.264   1.424   4.174  0.2231  0.0822 -0.1508
 1329POL    COH 1329   5.031   3.529   4.298  0.0557 -0.0427 -0.0483
 1330POL    COH 1330   5.125   2.283   5.904 -0.3341 -0.5001  0.1633
 1331POL    COH 1331   0.155   1.942   4.615 -0.0338  0.2266 -0.0956
 1332POL    COH 1332   4.607   2.609   5.089 -0.0774  0.3799  0.1725
 1333POL    COH 1333   3.639   5.034   2.736  0.2705  0.1676 -0.0634
 1334POL    COH 1334   6.124   2.977   3.219 -0.0880  0.2468  0.0559
 1335POL    COH 1335   0.225   0.048   4.445  0.2391 -0.0969  0.1352
 1336POL    COH 1336   5.369   6.065   1.496 -0.0043 -0.1998 -0.4212
 1337POL    COH 1337   3.351   3.036   0.985 -0.1717 -0.3235  0.0394
 1338POL    COH 1338   3.842   0.592   6.296  0.2131 -0.1019 -0.2130
 1339POL    COH 1339   2.951   2.535   1.820 -0.0845 -0.3722 -0.0085
 1340POL    COH 1340   4.861   4.111   1.550 -0.3215  0.1600  0.0989
 1341POL    COH 1341   6.335   2.806   5.788 -0.0323  0.1783 -0.0059
 1342POL    COH 1342   1.939   3.641   5.520  0.3239 -0.0601 -0.1388
 1343POL    COH 1343   4.921   3.453   2.904  0.0758  0.3140 -0.2621
 1344POL    COH 1344   2.504   4.260   4.426  0.4053 -0.0370  0.1308
 1345POL    COH 1345   0.988   1.678   2.509  0.1583  0.3339  0.0225
 1346POL    COH 1346   1.522   0.412   5.921 -0.2665  0.1686  0.2413
 1347POL    COH 1347   0.315   3.892   1.848 -0.2146  0.1021  0.1592
 1348POL    COH 1348   3.438   5.926   0.477 -0.1478  0.0818 -0.3185
 1349POL    COH 1349   4.553   4.610   2.530 -0.1576 -0.0160  0.1837
 1350POL    COH 1350   4.078   0.444   4.607 -0.0222  0.0101  0.2123
 1351POL    COH 1351   5.078   3.871   2.760 -0.0079 -0.2713 -0.0105
 1352POL    COH 1352   1.393   2.386   3.073  0.3719 -0.0864  0.1320
 1353POL    COH 1353   5.793   2.092   1.587 -0.1381  0.0527  0.0997
 1354POL    COH 1354   5.309   2.950   0.100  0.1114  0.5055  0.0327
 1355POL    COH 1355   4.539   5.090   2.448  0.1123 -0.1660 -0.1807
 1356POL    COH 1356   2.919   0.836   2.989 -0.0125 -0.2984  0.2492
 1357POL    COH 1357   0.665   3.063   5.121  0.0652  0.0198  0.2002
 1358POL    COH 1358   6.114   0.777   0.443 -0.2285 -0.0536 -0.3351
 1359POL    COH 1359   6.002   4.333   0.617  0.2092 -0.0661 -0.1922
 1360POL    COH 1360   6.056   1.825   5.942  0.1476  0.1759 -0.4164
 1361POL    COH 1361   0.197   1.895   3.462 -0.3755  0.1476  0.2260
 1362POL    COH 1362   4.950   0.453   5.935  0.0619 -0.2885 -0.0131
 1363POL    COH 1363   3.452   2.753   0.608  0.1397 -0.1335 -0.0766
 1364POL    COH 1364   4.342   5.523   2.619  0.1177  0.2824  0.2008
 1365POL    COH 1365   2.796   2.975   5.628  0.1137  0.1106  0.1459
 1366POL    COH 1366   5.377   0.943   2.672 -0.0036  0.3002  0.0129
 1367POL    COH 1367   1.014   5.443   4.254 -0.1494 -0.0344 -0.2730
 1368POL    COH 1368   5.036   0.879   4.174  0.1796 -0.0640 -0.2811
 1369POL    COH 1369   6.071   0.070   3.798 -0.0919 -0.2294 -0.2100
 1370POL    COH 1370   2.596   5.686   0.045  0.0412  0.2516 -0.0755
 1371POL    COH 1371   2.741   4.187   1.202 -0.1408  0.0707  0.3037
 1372POL    COH 1372   5.754   0.183   2.587 -0.0269  0.2805 -0.3884
 1373POL    COH 1373   3.609   6.348   4.950 -0.0093 -0.0539 -0.0243
 1374POL    COH 1374   6.105   1.179   3.388 -0.0696 -0.1796 -0.2116
 1375POL    COH 1375   2.998   0.836   6.372  0.0464  0.3445  0.0882
 1376POL    COH 1376   5.901   2.666   4.785  0.2091 -0.0979  0.1546
 1377POL    COH 1377   5.181   5.304   4.794 -0.1443  0.0740  0.0849
 1378POL    COH 1378   5.294   3.129   0.582  0.0036 -0.2765  0.0778
 1379POL    COH 1379   4.379   5.340   4.791 -0.0341 -0.0326  0.2358
 1380POL    COH 1380   6.372   4.492   4.411  0.1511 -0.0456  0.0056
 1381POL    COH 1381   5.126   0.798   5.492  0.0766 -0.2253  0.0436
 1382POL    COH 1382   0.269   6.092   0.597 -0.0884 -0.2518  0.0487
 1383POL    COH 1383   2.486   5.032   3.841  0.0766  0.1912 -0.1433
 1384POL    COH 1384   4.045   1.016   0.819 -0.2856  0.3668 -0.0457
 1385POL    COH 1385   5.404   1.304   3.173 -0.2417 -0.1898 -0.1856
 1386POL    COH 1386   0.232   2.137   0.740 -0.2209 -0.3140 -0.1059
 1387POL    COH 1387   3.399   1.523   2.574 -0.3073  0.2941 -0.0596
 1388POL    COH 1388   5.831   4.801   3.162  0.0004 -0.1034  0.2192
 1389POL    COH 1389   4.757   1.610   5.337  0.2287 -0.2629  0.1318
 1390POL    COH 1390   3.563   4.585   2.522 -0.0773 -0.1830 -0.0669
 1391POL    COH 1391   0.411   1.176   5.343  0.0617  0.1350  0.1173
 1392POL    COH 1392   3.042   3.561   3.438 -0.1300  0.2875  0.1731
 1393POL    COH 1393   3.119   3.251   5.035  0.0303 -0.0489  0.1603
 1394POL    COH 1394   1.917   6.223   5.881 -0.0657  0.0697 -0.0885
 1395POL    COH 1395   2.754   2.617   4.905  0.3697  0.0449  0.0324
 1396POL    COH 1396   2.300   4.521   5.824  0.0982 -0.0467 -0.0488
 1397POL    COH 1397   5.977   3.531   2.337 -0.3254 -0.3647 -0.1206
 1398POL    COH 1398   2.291   5.132   3.331 -0.2322 -0.0754  0.2645
 1399POL    COH 1399   5.755   3.531   5.934 -0.4052  0.0948  0.0690
 1400POL    COH 1400   6.187   0.449   5.256 -0.1396  0.0854  0.1482
 1401POL    COH 1401   3.116   2.587   2.765 -0.0565 -0.0761  0.0591
 1402POL    COH 1402   2.301   2.892   4.917  0.1705  0.0607  0.0591
 1403POL    COH 1403   3.281   6.126   5.200 -0.1340 -0.2071 -0.0597
 1404POL    COH 1404   0.802   4.970   6.305  0.0937  0.0486  0.0872
 1405POL    COH 1405   5.288   4.052   5.178  0.1783 -0.3171 -0.2913
 1406POL    COH 1406   2.107   5.740   5.062  0.2082 -0.2693 -0.2287
 1407POL    COH 1407   5.954   0.948   6.383 -0.3255 -0.1362 -0.2146
 1408POL    COH 1408   4.908   1.534   4.833  0.1978 -0.3868 -0.1992
 1409POL    COH 1409   6.301   1.720   0.808  0.0299 -0.0198 -0.1325
 1410POL    COH 1410   4.450   5.496   3.109 -0.1466 -0.0712 -0.1657
 1411POL    COH 1411   3.016   6.212   2.079 -0.1894 -0.1308  0.1252
 1412POL    COH 1412   0.806   4.654   4.470  0.0640 -0.1310 -0.2134
 1413POL    COH 1413   3.186   1.194   2.096  0.3476  0.0049  0.4381
 1414POL    COH 1414   1.125   3.252   5.096 -0.0560 -0.1937  0.0025
 1415POL    COH 1415   0.989   0.329   6.377  0.2517 -0.2659 -0.0387
 1416POL    COH 1416   3.443   0.436   1.336 -0.0819 -0.2385 -0.0622
 1417POL    COH 1417   0.736   0.031   4.177  0.0272 -0.1502  0.0830
 1418POL    COH 1418   4.186   4.122   3.807  0.0661  0.0324 -0.1136
 1419POL    COH 1419   5.079   1.807   0.413  0.0931  0.3627 -0.1955
 1420POL    COH 1420   3.188   1.942   2.133  0.1070 -0.0899 -0.3271
 1421POL    COH 1421   2.734   1.150   3.827  0.2462 -0.4161 -0.3366
 1422POL    COH 1422   6.116   1.670   4.533 -0.0762  0.0685  0.1278
 1423POL    COH 1423   6.291   0.174   2.360  0.1406  0.0773  0.0473
 1424POL    COH 1424   3.018   1.051   5.377 -0.1094 -0.1038  0.1712
 1425POL    COH 1425   0.203   2.530   4.522  0.0058 -0.0388 -0.0286
 1426POL    COH 1426   3.118   0.477   0.310  0.2990 -0.1859  0.0086
 1427POL    COH 1427   5.725   1.594   4.848  0.1591 -0.0376 -0.0151
 1428POL    COH 1428   5.883   1.240   4.336  0.0266  0.1179 -0.1812
 1429POL    COH 1429   2.937   4.998   2.180  0.0724  0.1125 -0.1207
 1430POL    COH 1430   1.008   5.267   2.035  0.3174 -0.4249  0.2400
 1431POL    COH 1431   3.879   1.600   3.612  0.2411 -0.0558 -0.0811
 1432POL    COH 1432   3.038   1.328   4.775  0.1331  0.0212 -0.3662
 1433POL    COH 1433   3.886   4.091   4.230  0.0987 -0.1343 -0.1255
 1434POL    COH 1434   0.254   1.418   5.999 -0.2075 -0.2909 -0.0904
 1435POL    COH 1435   3.419   0.461   3.819 -0.0610 -0.2627  0.0563
 1436POL    COH 1436   4.654   0.973   5.684 -0.0279 -0.3205  0.3445
 1437POL    COH 1437   4.779   5.794   0.099 -0.0365 -0.0453  0.2344
 1438POL    COH 1438   2.514   4.751   0.079  0.4283 -0.0010  0.2267
 1439POL    COH 1439   1.532   5.866   1.640 -0.0890  0.0056  0.0933
 1440POL    COH 1440   1.125   1.226   4.240 -0.2670 -0.1138  0.0704
 1441POL    COH 1441   4.569   3.692   1.722  0.1457  0.1242 -0.1194
 1442POL    COH 1442   2.696   1.757   0.704  0.2697 -0.0851  0.2711
 1443POL    COH 1443   3.681   4.988   0.805 -0.0454 -0.1135 -0.1995
 1444POL    COH 1444   2.961   4.222   4.144 -0.2614 -0.1725  0.0773
 1445POL    COH 1445   4.567   2.851   5.581 -0.0061 -0.0922 -0.0036
 1446POL    COH 1446   0.287   0.960   5.787  0.0394 -0.5010  0.1281
 1447POL    COH 1447   3.029   3.734   3.946  0.0370  0.0800  0.3559
 1448POL    COH 1448   2.682   4.599   2.432  0.0236  0.1473  0.1239
 1449POL    COH 1449   0.313   3.433   4.832 -0.0153  0.1506  0.2254
 1450POL    COH 1450   3.171   4.351   2.392  0.0740 -0.0861 -0.0847
 1451POL    COH 1451   0.923   2.801   2.603  0.1781  0.1214 -0.1970
 1452POL    COH 1452   6.163   0.667   1.273 -0.0276  0.1844  0.0068
 1453POL    COH 1453   3.296   0.973   1.399 -0.0885 -0.0871  0.0671
 1454POL    COH 1454   3.230   2.336   3.235 -0.3527 -0.0914 -0.1764
 1455POL    COH 1455   0.735   1.657   0.775 -0.2584  0.2988  0.0200
 1456POL    COH 1456   0.987   0.235   5.852 -0.1819  0.3755 -0.0620
 1457POL    COH 1457   6.074   3.473   1.073 -0.0185 -0.2281 -0.0961
 1458POL    COH 1458   2.331   0.018   2.694 -0.0156  0.0978  0.2786
 1459POL    COH 1459   2.022   3.697   3.834  0.4720  0.2100  0.1032
 1460POL    COH 1460   0.982   6.101   0.751  0.1580 -0.1892  0.2490
 1461POL    COH 1461   2.835   2.991   0.019  0.0271  0.2541 -0.1815
 1462POL    COH 1462   3.058   4.971   4.816  0.0374  0.3213 -0.3414
 1463POL    COH 1463   3.839   1.138   2.938 -0.0919  0.1579 -0.3034
 1464POL    COH 1464   2.887   4.261   0.673  0.2386  0.2832  0.0179
 1465POL    COH 1465   3.032   2.568   0.943 -0.0859  0.1962 -0.1951
 1466POL    COH 1466   5.082   0.328   0.854  0.0183 -0.3554 -0.2258
 1467POL    COH 1467   4.939   3.021   4.632  0.2020  0.1643  0.1398
 1468POL    COH 1468   5.078   3.231   5.503  0.0876  0.2928  0.1956
 1469POL    COH 1469   4.071   2.184   5.775  0.1406  0.0737 -0.0354
 1470POL    COH 1470   1.009   2.429   4.797 -0.1249  0.0657  0.3228
 1471POL    COH 1471   4.343   4.275   0.930 -0.1907  0.2234 -0.3299
 1472POL    COH 1472   5.091   2.533   0.832  0.2431  0.3081  0.2729
 1473POL    COH 1473   3.991   3.464   5.787 -0.0281 -0.0352 -0.1937
 1474POL    COH 1474   2.251   5.971   6.187  0.1003 -0.2581  0.0572
 1475POL    COH 1475   2.777   2.095   1.864 -0.1175 -0.0927 -0.0016
 1476POL    COH 1476   3.620   1.888   5.654 -0.0276 -0.0656 -0.1861
 1477POL    COH 1477   5.135   5.566   5.587 -0.0230 -0.3255 -0.0808
 1478POL    COH 1478   1.429   1.967   0.824 -0.2731 -0.0307  0.2430
 1479POL    COH 1479   3.558   0.932   3.976  0.1783  0.1533  0.2467
 1480POL    COH 1480   2.842   5.985   4.176  0.0882  0.2068  0.0944
 1481POL    COH 1481   4.971   3.919   3.495 -0.0087  0.2560 -0.3267
 1482POL    COH 1482   0.868   3.418   5.715 -0.1842  0.2654 -0.2597
 1483POL    COH 1483   1.607   0.327   5.239 -0.2685 -0.2740  0.3049
 1484POL    COH 1484   4.852   1.917   2.285  0.0539 -0.0573  0.2119
 1485POL    COH 1485   3.242   4.064   0.308  0.0613  0.1565 -0.1860
 1486POL    COH 1486   0.354   4.542   0.462  0.0129  0.0754  0.0901
 1487POL    COH 1487   5.086   5.481   1.893  0.1214 -0.0846  0.1821
 1488POL    COH 1488   5.995   5.617   6.015  0.1823 -0.2648  0.0878
 1489POL    COH 1489   3.768   0.814   1.257 -0.1641  0.0259 -0.0586
 1490POL    COH 1490   2.617   2.823   1.039 -0.2022 -0.4546 -0.2796
 1491POL    COH 1491   2.737   0.704   4.502  0.0697 -0.0104  0.2357
 1492POL    COH 1492   3.002   5.935   3.412  0.1222 -0.3762 -0.3184
 1493POL    COH 1493   0.246   6.049   1.858 -0.0407  0.1733 -0.2172
 1494POL    COH 1494   3.006   2.040   4.235  0.0362  0.0246 -0.0375
 1495POL    COH 1495   1.886   2.089   3.726 -0.0295  0.1537 -0.0563
 1496POL    COH 1496   1.087   4.472   2.569  0.1045  0.1444  0.0293
 1497POL    COH 1497   3.155   2.075   5.476  0.0644  0.0664  0.1772
 1498POL    COH 1498   2.837   4.047   5.396  0.2533  0.0138  0.2479
 1499POL    COH 1499   4.360   0.265   1.685  0.0014  0.1855 -0.0055
 1500POL    COH 1500   4.696   1.888   4.164  0.2097  0.0871 -0.3793
 1501POL    COH 1501   1.482   3.824   3.663 -0.2602  0.2055 -0.0785
 1502POL    COH 1502   3.491   2.772   5.763  0.2391 -0.1729  0.2341
 1503POL    COH 1503   0.253   2.423   2.527 -0.0889 -0.0578  0.1894
 1504POL    COH 1504   5.211   4.756   5.722  0.1385 -0.2687 -0.3954
 1505POL    COH 1505   2.637   3.726   1.209  0.0321 -0.0051  0.1247
 1506POL    COH 1506   5.140   0.002   5.840  0.1776 -0.3314  0.0068
 1507POL    COH 1507   2.408   6.350   3.952 -0.2157  0.0305 -0.0585
 1508POL    COH 1508   3.548   5.629   3.668 -0.1427 -0.0027  0.1907
 1509POL    COH 1509   5.383   4.153   0.732  0.0692 -0.1691  0.0235
 1510POL    COH 1510   2.401   5.476   5.427 -0.1842 -0.1558  0.1161
 1511POL    COH 1511   4.479   1.516   2.656 -0.1051 -0.3033 -0.1016
 1512POL    COH 1512   2.174   4.061   1.854 -0.0186 -0.0328  0.3108
 1513POL    COH 1513   5.621   3.664   0.368  0.0105 -0.0104 -0.4146
 1514POL    COH 1514   4.276   0.702   1.175  0.1141  0.1687 -0.1744
 1515POL    COH 1515   1.381   1.848   2.831  0.0061  0.0849 -0.0599
 1516POL    COH 1516   1.060   3.674   2.627  0.3059  0.1251  0.0676
 1517POL    COH 1517   1.715   4.344   0.322 -0.0506  0.0484 -0.3798
 1518POL    COH 1518   1.519   4.038   5.419 -0.3487 -0.0045  0.2029
 1519POL    COH 1519   4.527   4.499   6.397 -0.1151  0.1316 -0.0048
 1520POL    COH 1520   4.585   0.487   0.684 -0.1465 -0.1763  0.0816
 1521POL    COH 1521   1.650   5.364   0.836  0.1860 -0.1321 -0.0115
 1522POL    COH 1522   3.713   6.029   1.937  0.0982 -0.0701  0.0323
 1523POL    COH 1523   3.397   6.226   3.315 -0.0063 -0.0325 -0.1349
 1524POL    COH 1524   4.581   2.072   5.821  0.0402 -0.1196 -0.2018
 1525POL    COH 1525   0.103   5.269   2.710 -0.0845  0.2553  0.1433
 1526POL    COH 1526   0.933   1.260   3.378  0.2069 -0.0962  0.1675
 1527POL    COH 1527   4.018   4.050   3.254 -0.2723 -0.3000  0.1031
 1528POL    COH 1528   0.343   1.070   2.900 -0.1780 -0.0044 -0.3203
 1529POL    COH 1529   5.938   2.523   3.098  0.2497 -0.0673 -0.1101
 1530POL    COH 1530   4.013   1.301   1.499  0.1760  0.2366 -0.0027
 1531POL    COH 1531   5.768   0.660   0.915  0.1402  0.2284  0.2142
 1532POL    COH 1532   3.138   6.363   4.642  0.1556  0.4218  0.2808
 1533POL    COH 1533   6.222   4.201   4.873 -0.1796 -0.0216 -0.1894
 1534POL    COH 1534   0.705   0.476   2.987  0.2030 -0.1468  0.0186
 1535POL    COH 1535   1.535   3.411   1.555  0.4858 -0.1534  0.1641
 1536POL    COH 1536   0.668   0.409   1.221  0.3385  0.0917  0.0273
 1537POL    COH 1537   6.178   1.989   3.233  0.0039  0.0920  0.1047
 1538POL    COH 1538   3.874   4.591   4.160  0.1469  0.3176  0.2661
 1539POL    COH 1539   3.776   2.895   4.096  0.2415  0.0841 -0.0060
 1540POL    COH 1540   4.652   0.158   2.773  0.0324  0.4829 -0.0867
 1541POL    COH 1541   2.259   1.290   3.696 -0.0982  0.1132 -0.2222
 1542POL    COH 1542   4.909   0.254   3.639  0.1224  0.2727  0.1106
 1543POL    COH 1543   0.920   1.169   2.402 -0.3297 -0.0252 -0.2296
 1544POL    COH 1544   5.903   5.891   5.195  0.2550  0.1811 -0.1573
 1545POL    COH 1545   4.546   0.967   0.700  0.2363 -0.0611  0.0529
 1546POL    COH 1546   1.253   0.271   2.124 -0.1044 -0.2096 -0.1026
 1547POL    COH 1547   5.777   1.898   3.823 -0.2313 -0.6044 -0.1137
 1548POL    COH 1548   4.193   1.244   4.413  0.0108  0.1625 -0.5363
 1549POL    COH 1549   1.403   6.344   6.063  0.1391  0.0640  0.2001
 1550POL    COH 1550   4.736   6.074   4.104  0.2046 -0.3770  0.0315
 1551POL    COH 1551   1.917   5.355   5.326  0.1356 -0.2750 -0.0229
 1552POL    COH 1552   1.126   5.157   5.913 -0.0715 -0.1582  0.0988
 1553POL    COH 1553   4.581   0.638   2.552  0.0923 -0.2226 -0.1144
 1554POL    COH 1554   4.166   6.191   5.373 -0.3722 -0.2452 -0.0772
 1555POL    COH 1555   4.908   1.068   2.766  0.0563  0.2984 -0.1446
 1556POL    COH 1556   0.180   5.975   4.462  0.0038  0.1731  0.3485
 1557POL    COH 1557   0.486   1.664   5.344 -0.1104 -0.0608  0.0893
 1558POL    COH 1558   5.056   0.152   4.141  0.0959 -0.2590  0.1004
 1559POL    COH 1559   3.069   0.763   4.070 -0.2460  0.1441 -0.0745
 1560POL    COH 1560   1.820   4.326   5.754 -0.0611  0.1543  0.2424
 1561POL    COH 1561   6.356   3.751   3.878 -0.2427 -0.0352  0.2708
 1562POL    COH 1562   4.884   4.438   5.131  0.0380  0.0538  0.3554
 1563POL    COH 1563   3.664   5.534   2.703 -0.0899  0.1815  0.1009
 1564POL    COH 1564   3.354   0.025   5.907  0.1678 -0.0070  0.1955
 1565POL    COH 1565   1.005   0.630   4.111 -0.5424 -0.0568 -0.2895
 1566POL    COH 1566   3.070   2.897   6.032 -0.0976  0.2672  0.3288
 1567POL    COH 1567   0.066   5.651   4.053  0.0658 -0.0513 -0.0013
 1568POL    COH 1568   3.570   2.291   5.285  0.1588  0.3222 -0.1136
 1569POL    COH 1569   3.416   3.639   2.496 -0.0861  0.1683  0.2125
 1570POL    COH 1570   6.167   5.081   5.088  0.2852 -0.0992  0.2981
 1571POL    COH 1571   3.096   5.635   1.423 -0.3548  0.0814 -0.0435
 1572POL    COH 1572   2.634   3.886   0.305  0.1363  0.4288  0.2496
 1573POL    COH 1573   0.524   0.467   4.200  0.2355  0.2133  0.2249
 1574POL    COH 1574   6.033   0.642   3.299 -0.1489 -0.1030 -0.0557
 1575POL    COH 1575   3.409   0.765   2.236 -0.3595 -0.2461 -0.0452
 1576POL    COH 1576   1.468   5.064   1.310 -0.1507 -0.1478 -0.0565
 1577POL    COH 1577   4.887   5.932   4.982 -0.3696 -0.2408 -0.1132
 1578POL    COH 1578   1.454   2.401   4.965 -0.0819  0.0878  0.3748
 1579POL    COH 1579   0.193   1.575   4.249  0.2284  0.1787 -0.2041
 1580POL    COH 1580   5.383   3.833   1.551  0.0112  0.2717 -0.2179
 1581POL    COH 1581   5.769   0.873   5.328 -0.2325 -0.0143 -0.0543
 1582POL    COH 1582   3.671   1.309   1.130  0.0393 -0.0033  0.0531
 1583POL    COH 1583   1.112   3.044   5.568 -0.1348 -0.0354  0.0362
 1584POL    COH 1584   0.779   1.102   1.916  0.1465  0.0290 -0.3070
 1585POL    COH 1585   1.948   0.088   3.775  0.2859  0.2205 -0.0276
 1586POL    COH 1586   3.390   3.449   3.766 -0.3502 -0.4843 -0.2007
 1587POL    COH 1587   2.171   5.465   3.796  0.2464  0.1634 -0.0697
 1588POL    COH 1588   5.896   4.489   5.143 -0.1120  0.1606  0.0150
 1589POL    COH 1589   5.401   5.735   5.074 -0.1210 -0.0965 -0.0535
 1590POL    COH 1590   6.151   2.764   2.667  0.1034 -0.0527 -0.4776
 1591POL    COH 1591   1.218   2.291   3.539  0.3316 -0.3576 -0.0703
 1592POL    COH 1592   4.109   2.655   1.142  0.2007  0.3004 -0.0527
 1593POL    COH 1593   2.202   4.747   4.621  0.0160 -0.1783 -0.0636
 1594POL    COH 1594   4.109   0.730   2.263  0.0380  0.1661  0.2238
 1595POL    COH 1595   6.364   3.448   3.209 -0.0393  0.0986  0.0675
 1596POL    COH 1596   0.225   2.747   5.356 -0.2696 -0.0424  0.0344
 1597POL    COH 1597   1.111   0.666   4.899  0.0148  0.2255  0.0798
 1598POL    COH 1598   6.045   0.554   2.630 -0.1715 -0.1446 -0.0965
 1599POL    COH 1599   0.494   4.460   6.133  0.0360  0.0942  0.1198
 1600POL    COH 1600   3.772   4.504   1.145  0.0278 -0.0732 -0.0760
 1601POL    COH 1601   4.457   6.030   0.374 -0.0078  0.5273  0.1941
 1602POL    COH 1602   1.298   3.984   0.840  0.1495  0.2584 -0.3057
 1603POL    COH 1603   0.993   2.466   1.774 -0.5089  0.1571  0.0620
 1604POL    COH 1604   3.360   0.772   0.912  0.0893 -0.4828  0.2421
 1605POL    COH 1605   0.586   1.648   3.227  0.0342 -0.0056  0.2522
 1606POL    COH 1606   3.292   0.535   3.194 -0.0853  0.0223 -0.3461
 1607POL    COH 1607   5.961   2.350   2.115  0.1836 -0.1659 -0.0916
 1608POL    COH 1608   0.016   3.828   0.331 -0.0301  0.0127 -0.1515
 1609POL    COH 1609   2.680   2.164   0.495 -0.1072 -0.0402 -0.0332
 1610POL    COH 1610   5.498   2.582   3.356  0.0593  0.0864  0.0507
 1611POL    COH 1611   5.292   1.848   4.994 -0.1332 -0.1869  0.0709
 1612POL    COH 1612   1.085   0.714   1.004 -0.1842 -0.0515 -0.1543
 1613POL    COH 1613   4.565   4.245   3.500 -0.2677 -0.2284  0.0130
 1614POL    COH 1614   4.489   0.095   0.314  0.1285  0.1203  0.0286
 1615POL    COH 1615   3.531   3.592   3.332 -0.1098 -0.0634  0.3096
 1616POL    COH 1616   3.737   5.238   5.498  0.1748  0.0155  0.1660
 1617POL    COH 1617   3.595   2.608   1.101 -0.2502  0.0191  0.1443
 1618POL    COH 1618   0.179   0.899   1.194  0.1065  0.1378  0.6250
 1619POL    COH 1619   3.161   5.059   0.978  0.0821  0.2827 -0.2835
 1620POL    COH 1620   4.946   5.210   3.863 -0.0461  0.1818 -0.0475
 1621POL    COH 1621   0.708   5.967   5.028  0.1370  0.0617 -0.2398
 1622POL    COH 1622   2.068   2.492   5.390 -0.2020  0.1683 -0.0474
 1623POL    COH 1623   0.854   2.579   3.765  0.0722  0.0544 -0.0235
 1624POL    COH 1624   2.261   1.858   6.003 -0.2027 -0.1158 -0.2214
 1625POL    COH 1625   1.981   4.805   5.525 -0.3386 -0.0404  0.2560
 1626POL    COH 1626   3.355   1.384   3.689 -0.1833  0.2342 -0.0488
 1627POL    COH 1627   1.598   3.987   1.780  0.1509  0.3252 -0.2987
 1628POL    COH 1628   3.265   0.758   5.950  0.2571  0.3218 -0.1113
 1629POL    COH 1629   1.261   3.174   1.029  0.1001  0.1523  0.0610
 1630POL    COH 1630   4.839   3.442   0.656 -0.0658 -0.1717 -0.0543
 1631POL    COH 1631   5.440   4.152   0.209  0.1548  0.0836 -0.2058
 1632POL    COH 1632   5.027   2.452   4.721 -0.3088 -0.1389 -0.0115
 1633POL    COH 1633   3.618   5.678   0.089  0.0190  0.1284  0.2704
 1634POL    COH 1634   5.881   2.881   4.206 -0.3976 -0.2959 -0.0063
 1635POL    COH 1635   4.534   5.423   3.585 -0.2675 -0.1077 -0.1284
 1636POL    COH 1636   6.274   0.261   4.724  0.1284 -0.1853 -0.1215
 1637POL    COH 1637   0.658   4.511   5.047 -0.1645 -0.1297  0.0215
 1638POL    COH 1638   1.006   3.106   0.037  0.1093  0.0075  0.1180
 1639POL    COH 1639   5.323   3.640   3.153 -0.0812 -0.3499  0.0797
 1640POL    COH 1640   0.728   5.934   0.324  0.3952  0.0236  0.0533
 1641POL    COH 1641   4.843   4.245   1.053  0.0415 -0.1547  0.0302
 1642POL    COH 1642   1.929   5.314   1.394  0.1502  0.4051 -0.0619
 1643POL    COH 1643   3.923   5.471   5.066  0.3346  0.2848  0.2312
 1644POL    COH 1644   3.585   3.916   0.637 -0.0499  0.0725 -0.2302
 1645POL    COH 1645   0.267   3.019   6.039  0.2659 -0.2028 -0.0035
 1646POL    COH 1646   3.161   2.045   2.701  0.3590  0.0389  0.1173
 1647POL    COH 1647   5.544   2.750   3.908  0.2023  0.1483 -0.0557
 1648POL    COH 1648   3.398   5.326   4.551  0.0409 -0.2730 -0.0903
 1649POL    COH 1649   4.387   1.647   5.697  0.1449 -0.3637 -0.2640
 1650POL    COH 1650   2.085   0.574   1.888 -0.0684  0.0835 -0.1382
 1651POL    COH 1651   2.626   2.571   5.336  0.1421 -0.4949 -0.0898
 1652POL    COH 1652   1.488   4.345   6.211  0.0035  0.0725  0.0381
 1653POL    COH 1653   1.502   0.341   4.773  0.2341  0.3429  0.1567
 1654POL    COH 1654   4.294   3.777   5.132 -0.1583 -0.0363 -0.2623
 1655POL    COH 1655   2.749   2.220   3.388 -0.1536  0.1374 -0.2284
 1656POL    COH 1656   4.505   2.563   1.517  0.2087 -0.5096 -0.2877
 1657POL    COH 1657   3.029   5.540   6.171 -0.1417  0.1311  0.2330
 1658POL    COH 1658   1.020   2.685   1.222 -0.0030 -0.1413  0.0644
 1659POL    COH 1659   1.301   5.333   3.635  0.2261 -0.0009  0.1616
 1660POL    COH 1660   4.666   3.093   5.134 -0.3315 -0.0114 -0.1055
 1661POL    COH 1661   2.961   1.219   3.361  0.0069 -0.2638  0.0825
 1662POL    COH 1662   5.879   4.808   2.223  0.1748  0.2681  0.2492
 1663POL    COH 1663   2.383   5.484   2.250  0.0739 -0.0234  0.1153
 1664POL    COH 1664   1.319   3.004   3.808  0.2574  0.0614 -0.0085
 1665POL    COH 1665   0.225   5.860   5.119 -0.1634  0.0915  0.1262
 1666POL    COH 1666   3.731   5.405   6.089 -0.0476  0.0562 -0.0248
 1667POL    COH 1667   3.225   0.258   0.779 -0.1123  0.0175  0.2737
 1668POL    COH 1668   3.614   5.774   3.164 -0.2063 -0.0236  0.0373
 1669POL    COH 1669   3.167   2.238   0.499  0.0229  0.0275  0.6691
 1670POL    COH 1670   5.615   4.238   4.814  0.5387 -0.3082 -0.0967
 1671POL    COH 1671   4.279   0.237   0.986  0.1675  0.1146  0.1989
 1672POL    COH 1672   4.512   4.440   1.367 -0.2864  0.1502 -0.1711
 1673POL    COH 1673   1.945   5.983   3.292  0.0034  0.2987  0.0925
 1674POL    COH 1674   5.049   2.873   1.341 -0.0324  0.3586 -0.1998
 1675POL    COH 1675   0.340   0.736   2.161 -0.0357 -0.3710  0.3012
 1676POL    COH 1676   3.674   1.158   2.401 -0.1230 -0.0270  0.1466
 1677POL    COH 1677   4.477   3.669   2.273  0.3315 -0.2425 -0.2773
 1678POL    COH 1678   0.022   4.762   3.852 -0.1687 -0.1625  0.0537
 1679POL    COH 1679   0.092   5.465   4.533  0.1940  0.0603  0.0692
 1680POL    COH 1680   5.278   0.810   1.075  0.1040  0.2451 -0.3222
 1681POL    COH 1681   3.586   0.214   5.346  0.1249 -0.1966 -0.3888
 1682POL    COH 1682   3.085   4.650   4.444 -0.3830  0.2347  0.0666
 1683POL    COH 1683   2.578   0.552   3.194  0.1879 -0.2251 -0.1406
 1684POL    COH 1684   3.598   2.650   3.638  0.2451  0.0217 -0.0756
 1685POL    COH 1685   5.525   0.317   0.654  0.0709  0.0074 -0.3255
 1686POL    COH 1686   3.983   3.862   6.170  0.3253  0.1394 -0.1820
 1687POL    COH 1687   2.273   6.194   0.602  0.0090 -0.2676  0.1539
 1688POL    COH 1688   3.636   4.391   5.826  0.2067 -0.3366  0.0639
 1689POL    COH 1689   4.149   1.161   2.553  0.1076  0.1285  0.1812
 1690POL    COH 1690   0.908   4.760   5.472 -0.1631 -0.2798  0.1652
 1691POL    COH 1691   1.750   2.146   4.682  0.0625  0.1312  0.0637
 1692POL    COH 1692   2.578   3.527   2.135 -0.1985  0.0464  0.1090
 1693POL    COH 1693   4.087   4.973   5.028  0.1224 -0.1342  0.1151
 1694POL    COH 1694   4.483   4.503   0.476 -0.0951  0.4678  0.2216
 1695POL    COH 1695   2.761   3.435   2.655  0.0353 -0.1773  0.1569
 1696POL    COH 1696   1.974   4.790   1.525 -0.3556  0.2008 -0.1571
 1697POL    COH 1697   4.728   1.318   4.293  0.0896  0.0594  0.1876
 1698POL    COH 1698   4.537   5.809   1.956 -0.2470  0.2848 -0.1598
 1699POL    COH 1699   3.815   2.994   3.263 -0.0451 -0.0417 -0.2333
 1700POL    COH 1700   3.450   1.785   4.071 -0.0302  0.1290 -0.0515
 1701POL    COH 1701   3.595   1.144   1.761 -0.0229 -0.0853 -0.1087
 1702POL    COH 1702   6.404   0.173   6.057 -0.0135 -0.0194  0.0373
 1703POL    COH 1703   2.856   5.320   5.654  0.0315 -0.1687  0.1195
 1704POL    COH 1704   5.977   1.483   2.989 -0.0126  0.0086  0.0273
 1705POL    COH 1705   4.304   2.717   6.348 -0.1057 -0.0235  0.2495
 1706POL    COH 1706   5.454   3.920   4.334 -0.0576 -0.0270 -0.0356
 1707POL    COH 1707   6.261   4.790   5.586 -0.0005 -0.2042  0.0990
 1708POL    COH 1708   2.700   5.157   4.590 -0.1966 -0.1086 -0.0313
 1709POL    COH 1709   6.166   5.869   0.296 -0.2612  0.1099 -0.0921
 1710POL    COH 1710   2.883   3.015   4.575 -0.1493  0.4499 -0.0204
 1711POL    COH 1711   1.923   2.891   3.282 -0.1501 -0.1187  0.0412
 1712POL    COH 1712   1.713   0.203   4.239 -0.3250  0.2285  0.0159
 1713POL    COH 1713   5.660   3.062   3.490 -0.1226 -0.0802  0.1207
 1714POL    COH 1714   4.914   0.948   4.674 -0.0262  0.3310 -0.3300
 1715POL    COH 1715   4.528   1.561   2.052  0.2407 -0.0020 -0.0090
 1716POL    COH 1716   4.589   5.070   6.298  0.2977  0.1390 -0.0656
 1717POL    COH 1717   3.762   2.591   6.124  0.0243 -0.0624  0.2462
 1718POL    COH 1718   1.814   3.146   6.063  0.0845 -0.0191 -0.0841
 1719POL    COH 1719   4.134   0.203   5.697 -0.4992  0.1775 -0.0814
 1720POL    COH 1720   6.298   2.664   2.213 -0.1842 -0.1804  0.1870
 1721POL    COH 1721   5.389   4.228   5.662 -0.0766  0.0051  0.1861
 1722POL    COH 1722   0.212   2.623   0.931  0.0927 -0.0415 -0.1102
 1723POL    COH 1723   5.029   4.629   1.446 -0.0832 -0.0623 -0.2639
 1724POL    COH 1724   4.991   6.378   1.554  0.2314 -0.1870  0.3181
 1725POL    COH 1725   1.292   2.062   0.313 -0.1365  0.2084 -0.0774
 1726POL    COH 1726   2.856   0.799   2.367 -0.0560 -0.2782 -0.0291
 1727POL    COH 1727   5.526   4.494   3.401 -0.0968  0.0001  0.0014
 1728POL    COH 1728   2.480   2.724   4.480  0.1104 -0.1157 -0.3779
 1729POL    COH 1729   3.190   0.007   0.327 -0.0600  0.0825  0.1105
 1730POL    COH 1730   5.933   5.305   4.019 -0.2115 -0.2002 -0.0991
 1731POL    COH 1731   6.270   6.276   0.885  0.0241  0.1551 -0.3462
 1732POL    COH 1732   2.924   1.014   0.966  0.1568 -0.0136  0.4239
 1733POL    COH 1733   4.634   3.571   5.756 -0.0564  0.2157  0.2668
 1734POL    COH 1734   5.225   4.629   0.948  0.0850 -0.0359 -0.1494
 1735POL    COH 1735   6.285   4.829   2.977 -0.0159  0.0257  0.1168
 1736POL    COH 1736   0.227   0.783   0.698 -0.3632 -0.1587 -0.2228
 1737POL    COH 1737   2.220   1.124   1.776 -0.2985 -0.1379  0.1526
 1738POL    COH 1738   0.597   5.936   3.154 -0.0317 -0.1193 -0.2135
 1739POL    COH 1739   3.679   3.305   0.468 -0.1786  0.5723 -0.0691
 1740POL    COH 1740   2.870   0.694   3.629 -0.1165 -0.0437 -0.0411
 1741POL    COH 1741   5.680   4.233   3.947  0.0138 -0.0463  0.2298
 1742POL    COH 1742   5.401   0.334   4.795  0.4140  0.1582  0.2086
 1743POL    COH 1743   3.945   3.644   2.155 -0.2665  0.1933 -0.1097
 1744POL    COH 1744   0.680   4.264   3.590 -0.1733  0.1048  0.0543
 1745POL    COH 1745   3.655   4.130   2.322  0.3013  0.1096  0.0864
 1746POL    COH 1746   4.556   4.466   1.881 -0.0895 -0.0252 -0.1603
 1747POL    COH 1747   3.654   3.912   5.797  0.1432  0.0029 -0.3524
 1748POL    COH 1748   2.786   4.700   1.051 -0.1411 -0.1135 -0.2133
 1749POL    COH 1749   5.090   1.650   1.948 -0.0771 -0.1418  0.0487
 1750POL    COH 1750   4.690   3.015   3.018  0.0247 -0.2472  0.1181
 1751POL    COH 1751   3.823   2.849   0.248  0.3907  0.0475 -0.2724
 1752POL    COH 1752   0.145   5.190   3.209 -0.1892  0.1589  0.0592
 1753POL    COH 1753   4.290   0.870   0.033 -0.0167 -0.2061  0.1950
 1754POL    COH 1754   1.873   3.918   0.756  0.0792 -0.1439  0.0812
 1755POL    COH 1755   4.870   0.229   2.262  0.1833  0.2863  0.1856
 1756POL    COH 1756   5.353   0.088   0.250 -0.0565 -0.2229  0.2250
 1757POL    COH 1757   3.073   0.348   5.533 -0.2036  0.0587 -0.0356
 1758POL    COH 1758   2.457   5.002   5.687 -0.0060 -0.0831  0.0265
 1759POL    COH 1759   3.432   3.587   2.005  0.0848 -0.0421  0.2237
 1760POL    COH 1760   3.944   2.430   4.506 -0.1322 -0.1491 -0.1366
 1761POL    COH 1761   4.642   2.429   2.875 -0.1238  0.1680 -0.0832
 1762POL    COH 1762   1.019   4.507   3.962 -0.0393 -0.1013  0.0499
 1763POL    COH 1763   1.304   4.766   4.365  0.4186  0.0458  0.0026
 1764POL    COH 1764   3.079   3.076   2.759 -0.0889 -0.1029  0.0224
 1765POL    COH 1765   4.848   2.053   5.162  0.1543 -0.1058  0.1157
 1766POL    COH 1766   1.578   1.164   1.707  0.0470 -0.0257  0.1991
 1767POL    COH 1767   1.290   0.691   0.427 -0.1835 -0.2121  0.1681
 1768POL    COH 1768   5.503   3.930   3.523 -0.2743 -0.1538  0.1428
 1769POL    COH 1769   4.570   1.083   2.291  0.2018  0.1093  0.0598
 1770POL    COH 1770   2.129   4.164   5.345 -0.0695  0.1637 -0.3093
 1771POL    COH 1771   5.162   4.094   2.320  0.0166  0.0797  0.0075
 1772POL    COH 1772   4.994   1.895   5.662 -0.2048  0.2221  0.0195
 1773POL    COH 1773   5.924   4.649   4.655  0.0562 -0.0659  0.3723
 1774POL    COH 1774   4.994   3.540   2.426 -0.4002  0.2273  0.0243
 1775POL    COH 1775   4.078   0.208   5.088  0.2317  0.0929 -0.1655
 1776POL    COH 1776   0.159   4.063   4.342  0.2035  0.1337  0.0246
 1777POL    COH 1777   6.294   1.389   1.838 -0.1516 -0.2013 -0.1926
 1778POL    COH 1778   1.401   5.317   1.743  0.0491 -0.1620 -0.0240
 1779POL    COH 1779   2.554   0.220   3.561  0.2036 -0.1572 -0.3107
 1780POL    COH 1780   0.074   2.562   6.377  0.1642  0.1576  0.0585
 1781POL    COH 1781   5.637   1.558   2.082  0.0343  0.0007  0.0960
 1782POL    COH 1782   4.659   4.729   3.545 -0.1050 -0.1816  0.1207
 1783POL    COH 1783   0.188   5.273   4.977  0.0202 -0.1742 -0.0792
 1784POL    COH 1784   0.972   5.924   4.424  0.1829 -0.1366  0.0246
 1785POL    COH 1785   1.196   2.515   0.765 -0.0315 -0.2168 -0.0423
 1786POL    COH 1786   2.295   1.807   2.849 -0.1095  0.2092 -0.1019
 1787POL    COH 1787   5.698   0.475   1.366  0.1860  0.1188  0.0856
 1788POL    COH 1788   0.116   3.286   3.934  0.1487  0.0505  0.0181
 1789POL    COH 1789   2.089   1.196   5.815 -0.2114 -0.0918 -0.1243
 1790POL    COH 1790   1.573   5.600   0.219  0.0399  0.0791 -0.0800
 1791POL    COH 1791   0.099   5.802   3.106 -0.0652  0.3733  0.3065
 1792POL    COH 1792   4.589   0.130   5.877  0.0581 -0.1451  0.1079
 1793POL    COH 1793   5.536   0.475   5.296  0.0302 -0.0938  0.1620
 1794POL    COH 1794   0.466   5.029   0.590 -0.0617 -0.1813  0.0494
 1795POL    COH 1795   2.084   3.590   6.051  0.1433  0.0340 -0.1538
 1796POL    COH 1796   2.092   5.397   0.009 -0.1431  0.0790 -0.3180
 1797POL    COH 1797   6.206   5.139   6.029  0.1766 -0.3009 -0.1460
 1798POL    COH 1798   1.815   1.142   2.160 -0.0061 -0.3243 -0.1889
 1799POL    COH 1799   5.917   3.144   4.701 -0.2291 -0.2453 -0.0169
 1800POL    COH 1800   4.311   2.265   1.920  0.1389  0.1975  0.0093
 1801POL    COH 1801   0.685   3.430   6.171  0.0291 -0.0043 -0.2016
 1802POL    COH 1802   1.363   1.577   0.504 -0.0402 -0.1563  0.2531
 1803POL    COH 1803   4.463   5.920   3.385  0.0533 -0.3513  0.4754
 1804POL    COH 1804   3.804   5.975   5.198 -0.1482 -0.0669  0.1197
 1805POL    COH 1805   3.556   5.118   4.980  0.0362  0.0204  0.2249
 1806POL    COH 1806   0.439   2.538   5.936  0.4043  0.0894  0.1500
 1807POL    COH 1807   3.765   1.726   1.515  0.0217  0.2828 -0.0563
 1808POL    COH 1808   5.018   1.006   1.516 -0.0944  0.2000 -0.0937
 1809POL    COH 1809   1.250   0.971   5.844  0.1037 -0.1938 -0.0791
 1810POL    COH 1810   4.128   2.801   5.832  0.1730  0.0411  0.0072
 1811POL    COH 1811   1.774   2.283   2.462 -0.0140  0.0406 -0.1200
 1812POL    COH 1812   5.735   6.082   4.118 -0.0457  0.3160 -0.2882
 1813POL    COH 1813   4.983   2.293   1.891 -0.7209  0.1093  0.0617
 1814POL    COH 1814   5.230   0.311   3.277  0.1471  0.1355 -0.0957
 1815POL    COH 1815   5.012   5.072   2.282  0.0657 -0.2562 -0.3811
 1816POL    COH 1816   4.263   0.922   3.372 -0.1131  0.0256 -0.3071
 1817POL    COH 1817   4.225   5.474   4.333 -0.0470 -0.1507  0.2186
 1818POL    COH 1818   4.205   3.136   1.132 -0.0588 -0.1262  0.3631
 1819POL    COH 1819   3.743   0.371   0.924 -0.1128 -0.0364  0.1750
 1820POL    COH 1820   5.406   2.265   3.789 -0.1891  0.0268 -0.0052
 1821POL    COH 1821   4.073   5.758   2.895  0.4285 -0.2355  0.0966
 1822POL    COH 1822   0.514   4.114   0.318  0.3841 -0.0099 -0.1199
 1823POL    COH 1823   5.060   5.051   1.056  0.1319  0.0799 -0.1425
 1824POL    COH 1824   6.126   5.389   3.067  0.2546 -0.3263  0.1150
 1825POL    COH 1825   0.106   2.016   1.754 -0.1158  0.0382  0.0250
 1826POL    COH 1826   0.737   4.186   4.269  0.0515  0.1121 -0.0777
 1827POL    COH 1827   0.709   6.288   2.825  0.0087  0.1376 -0.1599
 1828POL    COH 1828   3.855   2.425   3.157  0.1250 -0.1635 -0.0817
 1829POL    COH 1829   1.001   0.209   0.892  0.1240  0.0811 -0.0262
 1830POL    COH 1830   0.974   0.720   3.573  0.1986  0.0654 -0.0885
 1831POL    COH 1831   6.111   2.998   5.126  0.2392 -0.1712  0.0166
 1832POL    COH 1832   4.851   3.734   6.204 -0.1636 -0.0891  0.1728
 1833POL    COH 1833   3.374   1.062   3.097  0.0935 -0.0520  0.1259
 1834POL    COH 1834   3.811   0.974   4.510 -0.0753 -0.0188  0.0366
 1835POL    COH 1835   1.480   5.396   5.660 -0.0383 -0.2837  0.0211
 1836POL    COH 1836   1.588   1.622   0.054 -0.1338  0.0298  0.1263
 1837POL    COH 1837   6.302   1.000   2.136 -0.2561 -0.2331  0.0939
 1838POL    COH 1838   4.934   3.954   5.679  0.0963  0.0788 -0.0078
 1839POL    COH 1839   2.389   4.457   1.967 -0.0982  0.0134  0.0492
 1840POL    COH 1840   3.199   5.526   0.341  0.1097 -0.0855 -0.1269
 1841POL    COH 1841   3.520   1.503   0.273 -0.0392  0.1816  0.0060
 1842POL    COH 1842   4.619   2.445   0.279 -0.1427 -0.0868 -0.0011
 1843POL    COH 1843   0.023   3.661   1.339 -0.2559  0.2508  0.0594
 1844POL    COH 1844   2.058   1.889   1.788  0.0476 -0.0967 -0.0648
 1845POL    COH 1845   6.162   2.284   2.680 -0.2382 -0.0961 -0.0339
 1846POL    COH 1846   5.061   2.770   5.141  0.1812  0.1058  0.2681
 1847POL    COH 1847   1.549   6.326   3.488 -0.0708  0.1173 -0.2344
 1848POL    COH 1848   1.435   4.557   3.040 -0.1642  0.0343  0.0326
 1849POL    COH 1849   0.887   5.500   4.956 -0.1626 -0.0255 -0.0020
 1850POL    COH 1850   4.078   0.439   0.491 -0.1917 -0.3201 -0.2238
 1851POL    COH 1851   4.818   1.909   1.244 -0.1483 -0.1017 -0.1650
 1852POL    COH 1852   1.231   1.368   2.873 -0.0502  0.0704 -0.1159
 1853POL    COH 1853   4.729   5.245   4.392 -0.0846 -0.1862  0.0281
 1854POL    COH 1854   0.887   4.675   2.078 -0.1947  0.3258 -0.0704
 1855POL    COH 1855   4.062   4.446   0.173 -0.0485  0.5453  0.2964
 1856POL    COH 1856   3.401   2.916   2.450  0.0491 -0.1207  0.2234
 1857POL    COH 1857   6.395   0.745   3.718 -0.0358 -0.0029  0.0130
 1858POL    COH 1858   5.263   2.054   1.072 -0.1607  0.0066  0.0057
 1859POL    COH 1859   1.735   0.140   1.950  0.0375  0.4207  0.0504
 1860POL    COH 1860   1.519   5.132   2.742 -0.0442  0.1466  0.1999
 1861POL    COH 1861   3.377   3.516   0.861 -0.0965 -0.0098  0.1183
 1862POL    COH 1862   3.200   6.190   0.799 -0.0022  0.1172 -0.0767
 1863POL    COH 1863   1.365   3.484   0.633 -0.1786  0.1630 -0.2707
 1864POL    COH 1864   3.503   5.833   5.528  0.5639  0.2332 -0.2057
 1865POL    COH 1865   2.696   2.327   1.291 -0.2697 -0.1110  0.0556
 1866POL    COH 1866   0.629   3.900   5.938  0.2022  0.2482  0.1140
 1867POL    COH 1867   3.552   1.382   4.670  0.2592 -0.0347 -0.1865
 1868POL    COH 1868   6.012   4.926   1.327 -0.1409 -0.0596  0.0772
 1869POL    COH 1869   6.388   0.529   2.979  0.0321 -0.1109  0.2253
 1870POL    COH 1870   2.811   4.336   0.165  0.0461  0.0591  0.0250
 1871POL    COH 1871   1.769   5.898   1.223  0.1829 -0.1412 -0.1643
 1872POL    COH 1872   1.846   0.708   4.644  0.2696 -0.1456 -0.1017
 1873POL    COH 1873   3.636   5.459   1.134 -0.2541  0.2027 -0.1134
 1874POL    COH 1874   1.383   0.719   6.351 -0.0069  0.0172  0.0225
 1875POL    COH 1875   2.914   2.383   5.779  0.0448  0.2887  0.0656
 1876POL    COH 1876   0.499   4.966   5.216  0.0125 -0.0757 -0.3443
 1877POL    COH 1877   4.452   3.541   3.009  0.0590 -0.1237 -0.0506
 1878POL    COH 1878   0.913   5.708   1.110 -0.0047  0.1915 -0.1686
 1879POL    COH 1879   0.784   2.912   5.982  0.1052 -0.0110  0.0022
 1880POL    COH 1880   4.990   6.108   2.391 -0.4778 -0.0202 -0.0747
 1881POL    COH 1881   1.468   1.865   4.945  0.1950 -0.0518  0.0964
 1882POL    COH 1882   2.326   5.884   1.077  0.1996 -0.0954 -0.1520
 1883POL    COH 1883   0.722   1.198   5.939  0.1390  0.0234  0.1115
 1884POL    COH 1884   1.623   2.822   0.861  0.0363  0.0296  0.0081
 1885POL    COH 1885   1.376   4.483   5.685  0.0493  0.0901  0.0554
 1886POL    COH 1886   5.835   0.612   4.882  0.0218  0.2987  0.0095
 1887POL    COH 1887   4.259   3.118   3.998 -0.0869 -0.1331  0.1998
 1888POL    COH 1888   3.094   4.253   1.515  0.1025  0.0677 -0.0862
 1889POL    COH 1889   0.417   3.899   3.942 -0.1479 -0.1311 -0.3547
 1890POL    COH 1890   0.393   1.014   4.830 -0.1612 -0.2354  0.0214
 1891POL    COH 1891   2.562   1.267   2.916 -0.0354 -0.4420 -0.3925
 1892POL    COH 1892   1.215   0.191   4.229  0.0010  0.1769 -0.0660
 1893POL    COH 1893   0.835   4.988   0.895  0.0108 -0.0816  0.2651
 1894POL    COH 1894   0.033   5.048   0.935 -0.2226 -0.1512 -0.1833
 1895POL    COH 1895   2.084   4.777   4.000 -0.3500  0.0691  0.0431
 1896POL    COH 1896   1.688   4.029   4.489  0.2408  0.2144  0.0574
 1897POL    COH 1897   5.200   5.732   0.372 -0.0093  0.3010 -0.1859
 1898POL    COH 1898   4.447   1.594   1.490 -0.3093  0.0754 -0.1197
 1899POL    COH 1899   2.471   2.794   1.535  0.0136  0.1842  0.2002
 1900POL    COH 1900   2.460   0.790   2.697  0.2277  0.1888 -0.0287
 1901POL    COH 1901   1.280   6.337   1.743  0.0881  0.0909  0.0703
 1902POL    COH 1902   2.129   2.371   6.199 -0.0623  0.2976  0.2625
 1903POL    COH 1903   2.165   0.014   0.178  0.3993 -0.2147  0.0970
 1904POL    COH 1904   6.087   1.041   3.931 -0.0358  0.1270  0.3061
 1905POL    COH 1905   4.000   5.591   3.897 -0.2760  0.0273 -0.0111
 1906POL    COH 1906   0.947   1.669   5.021 -0.0854  0.2541 -0.0144
 1907POL    COH 1907   1.761   4.434   1.954 -0.2496 -0.2606  0.1616
 1908POL    COH 1908   1.653   1.468   0.969 -0.0253  0.0345 -0.0565
 1909POL    COH 1909   4.174   4.510   3.361 -0.0231  0.0562 -0.3371
 1910POL    COH 1910   2.736   3.585   4.896 -0.0006  0.0547  0.1148
 1911POL    COH 1911   5.456   4.155   2.710  0.0692 -0.0291 -0.1843
 1912POL    COH 1912   2.061   5.884   0.276 -0.3800 -0.1383  0.1861
 1913POL    COH 1913   1.427   2.905   4.767 -0.0415 -0.0643  0.3713
 1914POL    COH 1914   6.142   1.003   0.901 -0.1756  0.1745 -0.0619
 1915POL    COH 1915   2.654   4.535   5.424  0.2048  0.0469 -0.1793
 1916POL    COH 1916   1.474   6.022   3.067  0.1157  0.1266 -0.1335
 1917POL    COH 1917   5.723   5.983   4.723  0.1510 -0.2541  0.1427
 1918POL    COH 1918   5.233   3.728   4.714 -0.1903 -0.3883 -0.0184
 1919POL    COH 1919   0.442   1.183   2.384 -0.0193 -0.0212 -0.0330
 1920POL    COH 1920   2.071   1.903   4.164  0.1241 -0.0365 -0.2867
 1921POL    COH 1921   5.435   1.703   5.661  0.0894  0.2051 -0.2017
 1922POL    COH 1922   3.632   0.444   4.861 -0.0934 -0.1991  0.0362
 1923POL    COH 1923   4.366   3.725   0.831  0.4269 -0.0299  0.0862
 1924POL    COH 1924   5.127   2.194   4.190 -0.2891 -0.0576 -0.0841
 1925POL    COH 1925   1.880   5.393   4.663  0.3251 -0.3684  0.2439
 1926POL    COH 1926   5.502   6.110   5.913  0.0930  0.0415 -0.1260
 1927POL    COH 1927   6.076   1.563   3.988  0.2054 -0.0911 -0.1668
 1928POL    COH 1928   0.661   5.385   0.171 -0.2005 -0.2094 -0.1076
 1929POL    COH 1929   0.068   3.609   2.734 -0.2459  0.0713 -0.0140
 1930POL    COH 1930   4.000   1.133   0.330  0.0966 -0.0733 -0.0581
 1931POL    COH 1931   5.354   1.374   5.184  0.1581  0.1051  0.3475
 1932POL    COH 1932   4.020   1.631   0.079 -0.4298 -0.0636  0.1726
 1933POL    COH 1933   4.625   1.976   2.802  0.1591 -0.0496  0.2088
 1934POL    COH 1934   3.201   0.476   2.604 -0.0292  0.0851 -0.1310
 1935POL    COH 1935   5.288   6.045   3.482 -0.1197  0.1185  0.1138
 1936POL    COH 1936   0.529   3.707   2.712 -0.1293  0.2787 -0.3491
 1937POL    COH 1937   5.673   1.909   2.969  0.2370 -0.4385 -0.0260
 1938POL    COH 1938   1.428   0.715   4.383 -0.1573  0.1866 -0.0447
 1939POL    COH 1939   3.127   2.114   3.713  0.1359  0.1223  0.0362
 1940POL    COH 1940   4.706   5.538   6.083 -0.1449  0.1093  0.4263
 1941POL    COH 1941   2.603   5.463   4.144  0.0484  0.1197  0.0455
 1942POL    COH 1942   1.055   3.839   5.563  0.0363  0.0237  0.0759
 1943POL    COH 1943   0.160   0.741   5.296 -0.3075 -0.0763 -0.1033
 1944POL    COH 1944   5.178   3.943   3.932  0.0749  0.0616  0.3730
 1945POL    COH 1945   2.737   5.567   4.996  0.4034  0.2625 -0.0878
 1946POL    COH 1946   1.110   2.636   5.775  0.0133 -0.1310  0.0493
 1947POL    COH 1947   4.407   3.582   6.235  0.0534 -0.0423 -0.0613
 1948POL    COH 1948   5.729   2.123   3.416 -0.4394 -0.0524 -0.1190
 1949POL    COH 1949   0.086   3.055   2.877  0.2857 -0.3344  0.1277
 1950POL    COH 1950   1.337   4.831   3.808  0.1655  0.3339 -0.2467
 1951POL    COH 1951   6.353   5.260   3.756  0.0321  0.0970 -0.2366
 1952POL    COH 1952   5.351   1.855   2.536  0.1334 -0.0859 -0.0193
 1953POL    COH 1953   4.018   5.823   0.483  0.0976  0.0201  0.2570
 1954POL    COH 1954   5.568   2.946   1.095  0.2811  0.0044  0.3119
 1955POL    COH 1955   5.695   1.817   5.281 -0.0173 -0.3593 -0.1668
 1956POL    COH 1956   3.057   3.938   2.597 -0.1555 -0.2540 -0.1634
 1957POL    COH 1957   4.434   5.491   0.218 -0.2568 -0.0358 -0.1149
 1958POL    COH 1958   1.620   1.637   1.786 -0.2440  0.1038 -0.0181
 1959POL    COH 1959   5.495   2.135   2.099  0.1107  0.2208  0.0618
 1960POL    COH 1960   4.290   3.983   0.125 -0.1546  0.1131  0.3684
 1961POL    COH 1961   1.681   0.629   2.127 -0.1080  0.2968  0.0566
 1962POL    COH 1962   6.260   0.956   1.636  0.0960  0.2178  0.1951
 1963POL    COH 1963   1.014   5.880   2.945  0.0181  0.0550  0.1378
 1964POL    COH 1964   1.742   6.130   0.028 -0.1011 -0.0995  0.0559
 1965POL    COH 1965   2.713   1.706   4.735  0.2867  0.0744  0.1227
 1966POL    COH 1966   0.459   3.914   0.831  0.0143 -0.2114 -0.1681
 1967POL    COH 1967   0.511   5.371   4.208  0.2127 -0.1261  0.2254
 1968POL    COH 1968   4.058   6.132   0.028  0.1379 -0.0713 -0.2257
 1969POL    COH 1969   2.784   5.986   1.049 -0.0758 -0.1523  0.1291
 1970POL    COH 1970   1.077   3.938   3.378 -0.0787 -0.3995 -0.2198
 1971POL    COH 1971   5.588   3.400   1.336 -0.0379 -0.3008 -0.2448
 1972POL    COH 1972   5.396   6.386   2.193  0.1104 -0.0744 -0.1039
 1973POL    COH 1973   2.086   0.556   5.138 -0.2029 -0.0037  0.0841
 1974POL    COH 1974   2.236   5.272   1.848 -0.0170  0.2340 -0.0643
 1975POL    COH 1975   4.277   4.621   3.870  0.2541 -0.2251 -0.1987
 1976POL    COH 1976   5.739   2.538   0.098  0.0713  0.1747 -0.3828
 1977POL    COH 1977   2.226   0.877   0.644 -0.0771  0.0697 -0.3276
 1978POL    COH 1978   2.454   3.699   5.316 -0.0509 -0.2320  0.2374
 1979POL    COH 1979   0.482   0.258   0.016  0.1134  0.1884  0.0466
 1980POL    COH 1980   5.698   4.872   5.500 -0.1154  0.1013  0.2548
 1981POL    COH 1981   0.853   4.073   2.919  0.4561 -0.0709  0.0345
 1982POL    COH 1982   2.474   5.041   2.362  0.0275  0.3426 -0.0118
 1983POL    COH 1983   0.413   2.128   2.144 -0.0911 -0.1178 -0.2342
 1984POL    COH 1984   0.702   2.642   2.172 -0.2368  0.1306  0.1333
 1985POL    COH 1985   0.259   0.178   0.497  0.0928  0.0882  0.1493
 1986POL    COH 1986   3.135   2.589   5.417 -0.2493 -0.3076 -0.1318
 1987POL    COH 1987   4.083   5.559   3.410 -0.0656 -0.0879 -0.1921
 1988POL    COH 1988   5.337   1.362   1.197  0.0751  0.1168 -0.0849
 1989POL    COH 1989   5.219   4.242   6.150  0.0096 -0.1196 -0.1417
 1990POL    COH 1990   1.872   2.244   1.495 -0.5115 -0.2145 -0.2324
 1991POL    COH 1991   6.168   6.019   1.717  0.0259  0.1807  0.3071
 1992POL    COH 1992   4.663   0.578   6.332 -0.0955 -0.2073  0.1453
 1993POL    COH 1993   3.992   2.393   0.765 -0.1530 -0.3876 -0.1601
 1994POL    COH 1994   0.968   3.091   3.141  0.0087  0.2022  0.1717
 1995POL    COH 1995   2.774   3.265   3.148  0.0039  0.1555  0.0070
 1996POL    COH 1996   4.167   5.195   1.676 -0.2927 -0.0518 -0.1389
 1997POL    COH 1997   2.383   5.663   3.345  0.2037  0.0271  0.2749
 1998POL    COH 1998   2.019   1.920   0.003 -0.2094  0.1773  0.2226
 1999POL    COH 1999   5.769   5.027   0.333  0.4083 -0.2684  0.0418
 2000POL    COH 2000   2.577   6.350   1.639 -0.1641  0.3371  0.1401
 2001POL    COH 2001   0.490   5.638   4.643 -0.1203  0.0914  0.0358
 2002POL    COH 2002   3.164   5.445   2.305  0.1694 -0.1359 -0.1335
 2003POL    COH 2003   5.579   0.936   4.043  0.1161  0.0031 -0.1741
 2004POL    COH 2004   2.052   6.195   2.267 -0.0591  0.1956 -0.1190
 2005POL    COH 2005   3.239   3.178   5.513  0.1200  0.2648 -0.3980
 2006POL    COH 2006   1.657   2.580   5.640  0.0526  0.2606  0.1604
 2007POL    COH 2007   2.533   2.535   0.102  0.0114 -0.2888 -0.0906
 2008POL    COH 2008   0.677   0.935   1.268  0.0088 -0.0455 -0.2859
 2009POL    COH 2009   5.486   3.371   6.321  0.1644 -0.1347 -0.0048
 2010POL    COH 2010   0.456   0.510   5.920  0.0183 -0.1251 -0.1114
 2011POL    COH 2011   3.429   1.668   0.766  0.0321  0.0993  0.1910
 2012POL    COH 2012   3.706   4.732   3.252  0.0378 -0.0607 -0.0652
 2013POL    COH 2013   0.603   0.898   3.265  0.0609 -0.1258 -0.0147
 2014POL    COH 2014   0.803   2.173   5.290 -0.1711 -0.0141 -0.2087
 2015POL    COH 2015   2.390   0.074   6.093 -0.0300 -0.0629  0.0972
 2016POL    COH 2016   2.029   2.751   2.332 -0.1108 -0.2161  0.2598
 2017POL    COH 2017   3.485   3.604   5.466  0.1661 -0.0850  0.1699
 2018POL    COH 2018   0.205   3.483   6.292  0.0277  0.1399 -0.5331
 2019POL    COH 2019   0.062   6.235   4.050 -0.0787 -0.2696  0.3652
 2020POL    COH 2020   1.245   3.011   1.547 -0.3502 -0.0721 -0.5192
 2021POL    COH 2021   0.522   3.095   5.599  0.1576  0.1652  0.2930
 2022POL    COH 2022   4.110   4.351   6.084  0.1869  0.1174  0.3145
 2023POL    COH 2023   1.126   4.238   1.523 -0.0821 -0.0890  0.2486
 2024POL    COH 2024   2.918   6.285   5.592 -0.3317 -0.0841  0.1306
 2025POL    COH 2025   0.887   4.040   1.081  0.4491 -0.2936 -0.0961
 2026POL    COH 2026   1.130   2.919   2.068 -0.1407 -0.3047  0.0709
 2027POL    COH 2027   2.650   1.681   6.256  0.0598 -0.0972  0.1492
 2028POL    COH 2028   4.612   2.542   5.994  0.1590 -0.1068 -0.0717
 2029POL    COH 2029   2.662   1.949   5.650 -0.0289  0.1446 -0.0856
 2030POL    COH 2030   1.494   1.470   3.307  0.0159 -0.1512  0.0450
 2031POL    COH 2031   1.895   0.700   6.099  0.1198  0.1678 -0.0932
 2032POL    COH 2032   5.266   5.799   4.622  0.0849  0.0801  0.1516
 2033POL    COH 2033   1.961   0.856   1.491  0.1900  0.2187  0.0572
 2034POL    COH 2034   5.660   6.038   2.435 -0.0560  0.1438 -0.4243
 2035POL    COH 2035   3.238   4.527   1.053  0.2105  0.0415 -0.1784
 2036POL    COH 2036   4.551   4.119   6.016  0.1906 -0.3983 -0.0468
 2037POL    COH 2037   3.803   4.552   2.070 -0.1870 -0.1474  0.0763
 2038POL    COH 2038   6.083   1.512   2.283 -0.2418  0.0230  0.0651
 2039POL    COH 2039   1.650   3.101   1.963 -0.0614 -0.0612  0.2501
 2040POL    COH 2040   2.540   0.471   2.165  0.0060 -0.0200  0.4735
 2041POL    COH 2041   0.604   4.739   3.808  0.1492  0.0918  0.1330
 2042POL    COH 2042   2.327   0.844   4.308  0.0024 -0.3969  0.1177
 2043POL    COH 2043   6.022   5.763   4.342 -0.0892 -0.1241  0.1205
 2044POL    COH 2044   1.347   5.503   3.159 -0.2564 -0.1597  0.2361
 2045POL    COH 2045   3.716   3.989   0.177  0.0853  0.1235  0.2939
 2046POL    COH 2046   2.728   4.706   6.011  0.2093 -0.1574 -0.0341
 2047POL    COH 2047   2.599   1.471   1.201  0.1953  0.0151 -0.0004
 2048POL    COH 2048   2.226   4.642   5.133 -0.1849  0.0729 -0.0028
 2049POL    COH 2049   4.239   0.538   4.107  0.1234 -0.2369 -0.0353
 2050POL    COH 2050   0.594   2.479   2.869 -0.1475 -0.1844 -0.1487
 2051POL    COH 2051   1.449   5.227   4.155 -0.0573 -0.0968  0.0544
 2052POL    COH 2052   2.262   2.282   4.399  0.2025  0.2227 -0.1789
 2053POL    COH 2053   3.064   0.217   3.503 -0.1489  0.2704  0.1344
 2054POL    COH 2054   2.721   5.379   1.936  0.1424  0.2264  0.0667
 2055POL    COH 2055   4.730   0.539   4.004  0.0853 -0.1567 -0.1207
 2056POL    COH 2056   1.620   0.947   1.114  0.1462 -0.0463 -0.1918
 2057POL    COH 2057   4.003   0.913   5.805  0.0488  0.1578  0.1979
 2058POL    COH 2058   2.095   0.368   2.419  0.2412 -0.1791  0.0877
 2059POL    COH 2059   5.691   2.498   0.876 -0.0423 -0.2901  0.1213
 2060POL    COH 2060   6.387   1.136   5.110 -0.0905  0.1425 -0.5191
 2061POL    COH 2061   4.436   3.243   3.467  0.0636 -0.0129 -0.1943
 2062POL    COH 2062   5.905   2.527   3.669  0.0496 -0.3462 -0.0543
 2063POL    COH 2063   3.874   3.271   3.728  0.0607  0.1465  0.0503
 2064POL    COH 2064   5.162   3.278   1.014 -0.0305  0.1496  0.0779
 2065POL    COH 2065   0.607   5.283   3.616 -0.1367  0.1308  0.1426
 2066POL    COH 2066   5.381   4.798   0.040  0.3514 -0.2986  0.1134
 2067POL    COH 2067   1.272   4.289   4.388 -0.1469 -0.3178  0.1487
 2068POL    COH 2068   1.504   1.944   2.192  0.0921 -0.0136 -0.0780
 2069POL    COH 2069   2.997   5.144   4.164  0.1020 -0.0145 -0.1845
 2070POL    COH 2070   6.157   3.503   4.989  0.0929  0.1274 -0.0499
 2071POL    COH 2071   3.458   0.791   5.442 -0.2282  0.2289  0.6207
 2072POL    COH 2072   5.812   1.170   1.867 -0.1089 -0.1765 -0.0433
 2073POL    COH 2073   1.044   1.772   6.217  0.1183 -0.0557 -0.0335
 2074POL    COH 2074   3.197   0.409   4.552  0.1866  0.0337 -0.1682
 2075POL    COH 2075   3.878   2.591   5.477  0.0116  0.1986 -0.2616
 2076POL    COH 2076   0.504   3.396   0.960 -0.0141 -0.4122  0.0062
 2077POL    COH 2077   5.858   1.370   5.377 -0.0403  0.1188  0.2993
 2078POL    COH 2078   3.920   4.011   1.038 -0.1315  0.0340  0.1318
 2079POL    COH 2079   0.811   0.292   4.967  0.1782  0.0210  0.0627
 2080POL    COH 2080   5.022   4.428   0.496 -0.3690  0.0907 -0.0305
 2081POL    COH 2081   5.291   5.630   6.062  0.2636  0.0875  0.2072
 2082POL    COH 2082   1.833   0.704   3.993 -0.1812  0.1186  0.1030
 2083POL    COH 2083   3.171   3.943   1.024 -0.2901  0.1036 -0.2120
 2084POL    COH 2084   5.464   3.042   1.639 -0.4796  0.3472  0.1072
 2085POL    COH 2085   1.151   4.380   5.245 -0.0579  0.1525 -0.1153
 2086POL    COH 2086   1.760   4.465   5.214  0.2674  0.2943  0.0347
 2087POL    COH 2087   4.517   5.160   1.094 -0.0578 -0.0706  0.2421
 2088POL    COH 2088   5.192   2.945   3.640  0.3032 -0.2977 -0.0063
 2089POL    COH 2089   1.753   4.355   2.620 -0.0947 -0.3551  0.2072
 2090POL    COH 2090   2.001   5.750   5.616  0.0925 -0.3240  0.2313
 2091POL    COH 2091   0.010   1.226   0.519  0.2573 -0.0957 -0.0157
 2092POL    COH 2092   4.323   6.187   2.954  0.0315 -0.1338 -0.2293
 2093POL    COH 2093   0.009   2.163   6.078  0.2419  0.2645 -0.1053
 2094POL    COH 2094   0.285   3.990   2.368 -0.0090  0.4184  0.1571
 2095POL    COH 2095   5.217   5.460   2.556  0.2187  0.0361  0.3541
 2096POL    COH 2096   2.302   0.337   0.623 -0.0458 -0.1799  0.0681
 2097POL    COH 2097   3.807   6.293   2.372  0.1803 -0.2548  0.0653
 2098POL    COH 2098   6.129   5.262   0.558 -0.2545  0.2696  0.0216
 2099POL    COH 2099   0.039   3.958   3.080  0.0402 -0.0563  0.1557
 2100POL    COH 2100   5.449   2.237   4.595 -0.0957 -0.1303 -0.2474
 2101POL    COH 2101   0.728   0.565   0.679  0.3307  0.1381 -0.1264
 2102POL    COH 2102   1.293   4.104   0.219  0.4463 -0.1057  0.0949
 2103POL    COH 2103   0.538   5.490   2.963  0.0818  0.0389  0.0305
 2104POL    COH 2104   1.483   0.334   3.828  0.0295  0.0215  0.0331
 2105POL    COH 2105   0.544   2.019   1.105 -0.2118  0.1409  0.3538
 2106POL    COH 2106   2.905   0.455   6.150  0.3264  0.0068 -0.0329
 2107POL    COH 2107   2.358   2.342   1.689 -0.1678  0.1310 -0.1127
 2108POL    COH 2108   3.855   1.145   6.239 -0.1166 -0.0330 -0.0202
 2109POL    COH 2109   0.707   2.866   1.693 -0.2340  0.1359  0.2396
 2110POL    COH 2110   4.084   2.562   2.281 -0.0542  0.3809 -0.2371
 2111POL    COH 2111   1.338   4.891   0.824 -0.0869  0.1383 -0.2087
 2112POL    COH 2112   0.417   3.104   4.421 -0.1384 -0.0401 -0.0009
 2113POL    COH 2113   3.537   4.616   4.870  0.2154 -0.0493 -0.3140
 2114POL    COH 2114   2.687   5.019   5.249  0.0665 -0.2629 -0.2212
 2115POL    COH 2115   0.943   1.392   0.331 -0.2505 -0.1515  0.1395
 2116POL    COH 2116   6.405   4.787   1.949  0.3684  0.0063 -0.1187
 2117POL    COH 2117   3.524   2.169   0.864  0.0832 -0.2264 -0.0071
 2118POL    COH 2118   1.382   0.910   3.301  0.2340  0.0902 -0.0263
 2119POL    COH 2119   2.750   0.278   4.817  0.1077  0.1206  0.1353
 2120POL    COH 2120   3.674   5.477   1.613 -0.1004 -0.4542 -0.2480
 2121POL    COH 2121   3.473   6.375   1.690 -0.1773 -0.0931 -0.3440
 2122POL    COH 2122   0.553   5.505   5.323 -0.1921 -0.3983 -0.2109
 2123POL    COH 2123   0.439   4.537   2.550  0.0292  0.3256 -0.2449
 2124POL    COH 2124   0.391   5.769   5.722 -0.1793 -0.0813  0.0481
 2125POL    COH 2125   1.837   6.214   2.718 -0.1168 -0.2886  0.0304
 2126POL    COH 2126   2.341   6.315   5.632  0.2353  0.1256  0.0049
 2127POL    COH 2127   1.013   5.249   5.419  0.3424  0.1215 -0.0560
 2128POL    COH 2128   3.766   5.596   4.308 -0.2637  0.3060  0.1212
 2129POL    COH 2129   0.026   4.173   0.756 -0.0181  0.1793 -0.4231
 2130POL    COH 2130   2.101   3.011   1.039 -0.0789  0.1094  0.1560
 2131POL    COH 2131   3.054   4.730   0.037 -0.1380 -0.0226 -0.1313
 2132POL    COH 2132   4.848   6.029   6.001  0.0176 -0.0967 -0.3231
 2133POL    COH 2133   0.554   1.920   4.272  0.1501 -0.0370  0.0045
 2134POL    COH 2134   1.953   1.648   3.576  0.2253  0.0748  0.0220
 2135POL    COH 2135   5.601   3.847   1.026  0.0132 -0.2140  0.0325
 2136POL    COH 2136   4.551   2.331   3.426 -0.0551  0.0269 -0.0185
 2137POL    COH 2137   1.060   1.779   3.479  0.2185  0.0681 -0.0469
 2138POL    COH 2138   1.105   6.385   4.726 -0.0630  0.2541  0.0523
 2139POL    COH 2139   4.898   5.732   3.206 -0.0658  0.0227 -0.1159
 2140POL    COH 2140   4.873   1.225   1.027  0.1830  0.1581 -0.3239
 2141POL    COH 2141   2.388   1.993   1.303 -0.1850  0.1686 -0.2646
 2142POL    COH 2142   2.726   1.350   2.440 -0.0464  0.2658  0.1020
 2143POL    COH 2143   3.018   0.962   0.458 -0.3544  0.2204  0.1612
 2144POL    COH 2144   5.373   1.339   1.684  0.1311  0.0972  0.0558
 2145POL    COH 2145   3.772   2.965   4.786  0.2062  0.2497  0.1393
 2146POL    COH 2146   0.499   5.357   1.195  0.0080 -0.0172 -0.1862
 2147POL    COH 2147   6.042   5.589   2.059  0.5501 -0.1989  0.0001
 2148POL    COH 2148   5.330   2.675   5.545  0.0411  0.0883  0.3353
 2149POL    COH 2149   1.912   6.102   1.804  0.0082  0.1474 -0.0497
 2150POL    COH 2150   2.692   5.454   1.103 -0.0132  0.0409 -0.1236
 2151POL    COH 2151   5.538   0.644   2.281 -0.2220  0.0721  0.0348
 2152POL    COH 2152   4.142   0.751   1.755  0.1366 -0.0575 -0.0682
 2153POL    COH 2153   4.790   2.107   0.666  0.1918  0.3466 -0.1487
 2154POL    COH 2154   6.373   4.617   5.153  0.0604 -0.3824 -0.3370
 2155POL    COH 2155   0.535   2.478   1.322 -0.2596 -0.3709 -0.2082
 2156POL    COH 2156   1.165   3.839   4.522  0.0463  0.0960  0.1504
 2157POL    COH 2157   5.314   6.244   5.099 -0.1136 -0.1301 -0.1917
 2158POL    COH 2158   2.094   2.777   5.860 -0.0182  0.0545 -0.1596
 2159POL    COH 2159   2.251   2.044   3.369  0.0057 -0.1236  0.0428
 2160POL    COH 2160   4.452   4.729   5.889  0.0034 -0.1262 -0.0065
 2161POL    COH 2161   5.667   5.525   1.733 -0.1132  0.1114 -0.3323
 2162POL    COH 2162   0.357   6.219   2.332 -0.0677  0.0155 -0.0888
 2163POL    COH 2163   5.481   3.361   4.484 -0.1529  0.0293  0.1026
 2164POL    COH 2164   5.146   2.162   2.889 -0.1663  0.2841 -0.1292
 2165POL    COH 2165   3.188   5.480   3.293  0.0381 -0.1303  0.0011
 2166POL    COH 2166   3.398   5.028   1.382  0.3257  0.2615 -0.1547
 2167POL    COH 2167   1.619   5.812   5.295  0.1294 -0.1910  0.1202
 2168POL    COH 2168   3.065   4.256   4.744 -0.1343  0.0410 -0.1604
 2169POL    COH 2169   2.337   5.907   2.548  0.0438  0.0450  0.0619
 2170POL    COH 2170   0.939   5.655   3.788  0.3213 -0.0155  0.1749
 2171POL    COH 2171   2.209   4.230   2.443 -0.0258  0.0693 -0.2198
 2172POL    COH 2172   3.916   2.894   0.726  0.0801 -0.2343 -0.0842
 2173POL    COH 2173   0.737   3.236   2.597  0.2419  0.0563  0.2112
 2174POL    COH 2174   4.399   0.624   5.895 -0.1992  0.1686 -0.3063
 2175POL    COH 2175   1.534   0.523   1.577  0.5251 -0.0673 -0.2198
 2176POL    COH 2176   1.837   3.965   2.210  0.1927 -0.1314  0.1235
 2177POL    COH 2177   3.058   3.336   2.247 -0.1019  0.1564 -0.0580
 2178POL    COH 2178   3.459   6.300   3.855 -0.0106 -0.1537 -0.1039
 2179POL    COH 2179   4.298   2.190   6.288  0.1135  0.0299  0.3112
 2180POL    COH 2180   4.259   3.807   4.411  0.0559  0.0571 -0.0939
 2181POL    COH 2181   3.537   1.159   0.646 -0.1838 -0.0269 -0.0515
 2182POL    COH 2182   5.167   6.072   1.939  0.2068 -0.0082 -0.0357
 2183POL    COH 2183   2.906   4.690   3.932  0.1199 -0.2957  0.0049
 2184POL    COH 2184   4.742   5.690   4.562 -0.0557 -0.2428  0.0027
 2185POL    COH 2185   5.225   1.311   4.075  0.4991 -0.1572 -0.1761
 2186POL    COH 2186   3.183   0.282   5.044 -0.2311  0.2192 -0.1049
 2187POL    COH 2187   2.132   0.066   3.301  0.2865  0.0488  0.0927
 2188POL    COH 2188   0.517   2.469   5.004  0.2897 -0.2061  0.3954
 2189POL    COH 2189   4.775   3.543   4.763 -0.1866  0.0379 -0.2121
 2190POL    COH 2190   3.166   3.763   1.556 -0.3740 -0.0858 -0.0381
 2191POL    COH 2191   3.838   4.235   2.750 -0.0035 -0.0532  0.3141
 2192POL    COH 2192   4.485   4.738   5.336 -0.0866  0.4328 -0.0021
 2193POL    COH 2193   0.959   4.988   0.384 -0.1582  0.1285  0.1029
 2194POL    COH 2194   5.850   3.035   6.134  0.1514 -0.3977 -0.2463
 2195POL    COH 2195   3.434   1.055   0.135 -0.1502 -0.1897 -0.1285
 2196POL    COH 2196   0.517   3.776   1.390 -0.2992  0.1149 -0.3397
 2197POL    COH 2197   4.204   1.903   2.384  0.0117  0.1756 -0.3316
   6.40773   6.40773   6.40773
