Split from step5_input.gro (molecule=BGAL)
23
    1BGAL    C1    1   0.337   1.658   7.001
    1BGAL    H1    2   0.294   1.578   7.064
    1BGAL    O1    3   0.312   1.646   6.864
    1BGAL    C5    4   0.294   1.838   7.146
    1BGAL    H5    5   0.254   1.774   7.225
    1BGAL    O5    6   0.271   1.781   7.017
    1BGAL    C2    7   0.487   1.663   7.022
    1BGAL    H2    8   0.526   1.724   6.938
    1BGAL    O2    9   0.546   1.532   7.019
    1BGAL   HO2   10   0.602   1.529   6.940
    1BGAL    C3   11   0.506   1.722   7.163
    1BGAL    H3   12   0.467   1.655   7.240
    1BGAL    O3   13   0.638   1.741   7.201
    1BGAL   HO3   14   0.695   1.691   7.140
    1BGAL    C4   15   0.439   1.853   7.170
    1BGAL    H4   16   0.470   1.919   7.254
    1BGAL    O4   17   0.478   1.917   7.060
    1BGAL   HO4   18   0.572   1.936   7.073
    1BGAL    C6   19   0.222   1.969   7.139
    1BGAL   H61   20   0.115   1.955   7.115
    1BGAL   H62   21   0.242   2.021   7.235
    1BGAL    O6   22   0.262   2.058   7.039
    1BGAL   HO6   23   0.356   2.041   7.016
  10.00000  10.00000  10.00000
