Split from step5_input.gro (molecule=CER16)
103
    1CER16  C1S    1   0.236   1.532   6.838
    1CER16  H1S    2   0.163   1.509   6.918
    1CER16  H1T    3   0.320   1.465   6.855
    1CER16   NF    4   0.234   1.570   6.595
    1CER16  HNF    5   0.164   1.593   6.527
    1CER16  C2S    6   0.201   1.479   6.696
    1CER16  H2S    7   0.274   1.396   6.683
    1CER16  C3S    8   0.061   1.419   6.674
    1CER16  H3S    9  -0.014   1.502   6.670
    1CER16   O3   10   0.022   1.331   6.779
    1CER16  HO3   11   0.102   1.316   6.829
    1CER16  C4S   12   0.060   1.346   6.542
    1CER16  H4S   13  -0.020   1.381   6.475
    1CER16  C5S   14   0.144   1.248   6.500
    1CER16  H5S   15   0.228   1.213   6.563
    1CER16  C6S   16   0.138   1.177   6.367
    1CER16  H6S   17   0.225   1.210   6.305
    1CER16  H6T   18   0.152   1.068   6.380
    1CER16  C7S   19   0.006   1.201   6.292
    1CER16  H7S   20  -0.079   1.160   6.349
    1CER16  H7T   21  -0.009   1.311   6.279
    1CER16  C8S   22   0.008   1.140   6.152
    1CER16  H8S   23   0.103   1.174   6.106
    1CER16  H8T   24   0.007   1.029   6.158
    1CER16  C9S   25  -0.109   1.189   6.066
    1CER16  H9S   26  -0.207   1.166   6.113
    1CER16  H9T   27  -0.093   1.299   6.063
    1CER16 C10S   28  -0.105   1.143   5.920
    1CER16 H10S   29  -0.100   1.032   5.918
    1CER16 H10T   30  -0.198   1.175   5.869
    1CER16 C11S   31   0.020   1.203   5.852
    1CER16 H11S   32   0.027   1.312   5.877
    1CER16 H11T   33   0.106   1.152   5.899
    1CER16 C12S   34   0.035   1.182   5.701
    1CER16 H12S   35   0.141   1.195   5.672
    1CER16 H12T   36  -0.006   1.081   5.674
    1CER16 C13S   37  -0.034   1.284   5.614
    1CER16 H13S   38  -0.121   1.286   5.680
    1CER16 H13T   39   0.002   1.388   5.618
    1CER16 C14S   40  -0.057   1.235   5.469
    1CER16 H14S   41  -0.108   1.136   5.468
    1CER16 H14T   42  -0.122   1.304   5.412
    1CER16 C15S   43   0.069   1.234   5.383
    1CER16 H15S   44   0.092   1.339   5.354
    1CER16 H15T   45   0.152   1.195   5.445
    1CER16 C16S   46   0.056   1.147   5.257
    1CER16 H16S   47   0.045   1.042   5.291
    1CER16 H16T   48  -0.037   1.174   5.200
    1CER16 C17S   49   0.175   1.157   5.161
    1CER16 H17S   50   0.271   1.170   5.217
    1CER16 H17T   51   0.183   1.061   5.105
    1CER16 C18S   52   0.158   1.268   5.057
    1CER16 H18S   53   0.160   1.369   5.103
    1CER16 H18T   54   0.240   1.261   4.983
    1CER16 H18U   55   0.061   1.253   5.005
    1CER16  C1F   56   0.358   1.609   6.580
    1CER16   OF   57   0.454   1.582   6.650
    1CER16  C2F   58   0.360   1.697   6.470
    1CER16  H2F   59   0.283   1.767   6.506
    1CER16  H2G   60   0.312   1.655   6.380
    1CER16  C3F   61   0.497   1.757   6.441
    1CER16  H3F   62   0.555   1.797   6.527
    1CER16  H3G   63   0.477   1.839   6.370
    1CER16  C4F   64   0.572   1.687   6.344
    1CER16  H4F   65   0.561   1.597   6.404
    1CER16  H4G   66   0.676   1.719   6.359
    1CER16  C5F   67   0.502   1.704   6.206
    1CER16  H5F   68   0.500   1.810   6.170
    1CER16  H5G   69   0.401   1.660   6.209
    1CER16  C6F   70   0.566   1.624   6.100
    1CER16  H6F   71   0.578   1.525   6.141
    1CER16  H6G   72   0.651   1.684   6.097
    1CER16  C7F   73   0.557   1.638   5.952
    1CER16  H7F   74   0.648   1.598   5.901
    1CER16  H7G   75   0.552   1.747   5.934
    1CER16  C8F   76   0.434   1.567   5.915
    1CER16  H8F   77   0.415   1.590   5.809
    1CER16  H8G   78   0.358   1.618   5.980
    1CER16  C9F   79   0.440   1.418   5.949
    1CER16  H9F   80   0.336   1.390   5.973
    1CER16  H9G   81   0.497   1.392   6.040
    1CER16 C10F   82   0.497   1.327   5.839
    1CER16 H10F   83   0.478   1.224   5.876
    1CER16 H10G   84   0.608   1.339   5.829
    1CER16 C11F   85   0.432   1.343   5.701
    1CER16 H11F   86   0.332   1.390   5.712
    1CER16 H11G   87   0.419   1.241   5.659
    1CER16 C12F   88   0.519   1.417   5.597
    1CER16 H12F   89   0.623   1.378   5.605
    1CER16 H12G   90   0.526   1.523   5.628
    1CER16 C13F   91   0.469   1.393   5.450
    1CER16 H13F   92   0.374   1.442   5.430
    1CER16 H13G   93   0.430   1.291   5.438
    1CER16 C14F   94   0.566   1.437   5.335
    1CER16 H14F   95   0.661   1.390   5.365
    1CER16 H14G   96   0.602   1.542   5.330
    1CER16 C15F   97   0.511   1.417   5.191
    1CER16 H15F   98   0.400   1.428   5.193
    1CER16 H15G   99   0.535   1.311   5.173
    1CER16 C16F  100   0.573   1.490   5.069
    1CER16 H16F  101   0.535   1.582   5.028
    1CER16 H16G  102   0.666   1.545   5.093
    1CER16 H16H  103   0.528   1.471   4.972
  10.00000  10.00000  10.00000
