Split from step5_input.gro (molecule=CHL1)
74
    1CHL1    C3    1   1.344   0.999   6.551
    1CHL1    H3    2   1.237   1.024   6.536
    1CHL1    O3    3   1.380   1.014   6.687
    1CHL1   H3'    4   1.362   1.108   6.703
    1CHL1    C4    5   1.362   0.852   6.508
    1CHL1   H4A    6   1.462   0.813   6.539
    1CHL1   H4B    7   1.297   0.787   6.569
    1CHL1    C5    8   1.325   0.842   6.360
    1CHL1    C6    9   1.244   0.748   6.310
    1CHL1    H6   10   1.202   0.674   6.379
    1CHL1    C7   11   1.212   0.737   6.164
    1CHL1   H7A   12   1.181   0.635   6.134
    1CHL1   H7B   13   1.131   0.810   6.147
    1CHL1    C8   14   1.312   0.792   6.062
    1CHL1    H8   15   1.400   0.724   6.063
    1CHL1   C14   16   1.254   0.804   5.918
    1CHL1   H14   17   1.171   0.878   5.926
    1CHL1   C15   18   1.199   0.675   5.858
    1CHL1  H15A   19   1.269   0.592   5.876
    1CHL1  H15B   20   1.105   0.650   5.909
    1CHL1   C16   21   1.185   0.708   5.707
    1CHL1  H16A   22   1.232   0.625   5.649
    1CHL1  H16B   23   1.080   0.716   5.676
    1CHL1   C17   24   1.255   0.846   5.682
    1CHL1   H17   25   1.177   0.925   5.687
    1CHL1   C13   26   1.337   0.863   5.803
    1CHL1   C18   27   1.457   0.774   5.778
    1CHL1  H18A   28   1.538   0.825   5.724
    1CHL1  H18B   29   1.489   0.758   5.880
    1CHL1  H18C   30   1.438   0.673   5.734
    1CHL1   C12   31   1.370   1.006   5.838
    1CHL1  H12A   32   1.468   1.033   5.786
    1CHL1  H12B   33   1.296   1.083   5.815
    1CHL1   C11   34   1.390   1.015   5.988
    1CHL1  H11A   35   1.468   0.941   5.966
    1CHL1  H11B   36   1.423   1.117   6.013
    1CHL1    C9   37   1.339   0.932   6.112
    1CHL1    H9   38   1.242   0.986   6.121
    1CHL1   C10   39   1.391   0.944   6.268
    1CHL1   C19   40   1.525   0.886   6.314
    1CHL1  H19A   41   1.573   0.889   6.414
    1CHL1  H19B   42   1.536   0.790   6.272
    1CHL1  H19C   43   1.606   0.942   6.282
    1CHL1    C1   44   1.383   1.089   6.318
    1CHL1   H1A   45   1.442   1.156   6.253
    1CHL1   H1B   46   1.279   1.123   6.303
    1CHL1    C2   47   1.426   1.100   6.467
    1CHL1   H2A   48   1.412   1.204   6.502
    1CHL1   H2B   49   1.533   1.077   6.485
    1CHL1   C20   50   1.333   0.864   5.551
    1CHL1   H20   51   1.406   0.781   5.534
    1CHL1   C21   52   1.403   1.000   5.530
    1CHL1  H21A   53   1.513   0.991   5.543
    1CHL1  H21B   54   1.358   1.078   5.594
    1CHL1  H21C   55   1.391   1.043   5.430
    1CHL1   C22   56   1.233   0.854   5.443
    1CHL1  H22A   57   1.191   0.753   5.467
    1CHL1  H22B   58   1.147   0.922   5.456
    1CHL1   C23   59   1.300   0.875   5.304
    1CHL1  H23A   60   1.331   0.975   5.274
    1CHL1  H23B   61   1.378   0.800   5.280
    1CHL1   C24   62   1.198   0.875   5.203
    1CHL1  H24A   63   1.111   0.938   5.235
    1CHL1  H24B   64   1.227   0.896   5.098
    1CHL1   C25   65   1.156   0.745   5.215
    1CHL1   H25   66   1.169   0.697   5.309
    1CHL1   C26   67   0.982   0.786   5.196
    1CHL1  H26A   68   0.934   0.805   5.096
    1CHL1  H26B   69   0.922   0.703   5.176
    1CHL1  H26C   70   0.905   0.777   5.271
    1CHL1   C27   71   1.273   0.617   5.173
    1CHL1  H27A   72   1.236   0.512   5.167
    1CHL1  H27B   73   1.312   0.612   5.071
    1CHL1  H27C   74   1.343   0.580   5.250
  10.00000  10.00000  10.00000
