Split from step5_input.gro (molecule=DOGL)
116
    1DOGL    C1    1   1.820   1.827   6.738
    1DOGL    HA    2   1.884   1.816   6.827
    1DOGL    HB    3   1.811   1.935   6.713
    1DOGL   O11    4   1.706   1.772   6.799
    1DOGL   HO1    5   1.734   1.776   6.891
    1DOGL    C2    6   1.903   1.744   6.636
    1DOGL    HS    7   2.006   1.787   6.638
    1DOGL   O21    8   1.851   1.752   6.504
    1DOGL   C21    9   1.858   1.870   6.449
    1DOGL   O22   10   1.916   1.968   6.492
    1DOGL   C22   11   1.772   1.866   6.327
    1DOGL   H2R   12   1.675   1.915   6.349
    1DOGL   H2S   13   1.753   1.762   6.294
    1DOGL    C3   14   1.914   1.595   6.676
    1DOGL    HX   15   1.956   1.594   6.779
    1DOGL    HY   16   1.987   1.544   6.609
    1DOGL   O31   17   1.785   1.531   6.676
    1DOGL   C31   18   1.738   1.499   6.556
    1DOGL   O32   19   1.802   1.497   6.453
    1DOGL   C32   20   1.590   1.471   6.564
    1DOGL   H2X   21   1.557   1.483   6.669
    1DOGL   H2Y   22   1.568   1.367   6.534
    1DOGL   C23   23   1.839   1.936   6.211
    1DOGL   H3R   24   1.937   1.890   6.185
    1DOGL   H3S   25   1.862   2.043   6.235
    1DOGL   C24   26   1.733   1.916   6.102
    1DOGL   H4R   27   1.646   1.976   6.135
    1DOGL   H4S   28   1.692   1.813   6.099
    1DOGL   C25   29   1.782   1.940   5.961
    1DOGL   H5R   30   1.848   2.025   5.973
    1DOGL   H5S   31   1.708   1.974   5.886
    1DOGL   C26   32   1.865   1.823   5.913
    1DOGL   H6R   33   1.809   1.731   5.936
    1DOGL   H6S   34   1.957   1.812   5.974
    1DOGL   C27   35   1.889   1.834   5.763
    1DOGL   H7R   36   1.792   1.859   5.714
    1DOGL   H7S   37   1.934   1.736   5.737
    1DOGL   C28   38   1.986   1.927   5.698
    1DOGL   H8R   39   2.085   1.900   5.720
    1DOGL   H8S   40   1.975   2.039   5.705
    1DOGL   C29   41   1.988   1.894   5.557
    1DOGL   H9R   42   2.018   1.991   5.541
    1DOGL  C210   43   2.072   1.839   5.478
    1DOGL  H10R   44   2.066   1.894   5.384
    1DOGL  C211   45   2.206   1.791   5.523
    1DOGL  H11R   46   2.193   1.742   5.621
    1DOGL  H11S   47   2.294   1.855   5.543
    1DOGL  C212   48   2.241   1.706   5.406
    1DOGL  H12R   49   2.159   1.632   5.391
    1DOGL  H12S   50   2.333   1.656   5.442
    1DOGL  C213   51   2.275   1.773   5.271
    1DOGL  H13R   52   2.349   1.704   5.225
    1DOGL  H13S   53   2.325   1.872   5.278
    1DOGL  C214   54   2.157   1.775   5.174
    1DOGL  H14R   55   2.079   1.844   5.211
    1DOGL  H14S   56   2.110   1.674   5.172
    1DOGL  C215   57   2.193   1.814   5.031
    1DOGL  H15R   58   2.269   1.744   4.992
    1DOGL  H15S   59   2.241   1.915   5.035
    1DOGL  C216   60   2.068   1.808   4.939
    1DOGL  H16R   61   2.011   1.714   4.951
    1DOGL  H16S   62   2.090   1.810   4.834
    1DOGL  C217   63   1.984   1.931   4.961
    1DOGL  H17R   64   2.046   2.014   4.918
    1DOGL  H17S   65   1.980   1.932   5.071
    1DOGL  C218   66   1.843   1.953   4.907
    1DOGL  H18R   67   1.786   1.859   4.902
    1DOGL  H18S   68   1.852   2.010   4.812
    1DOGL  H18T   69   1.783   2.026   4.965
    1DOGL   C33   70   1.520   1.574   6.474
    1DOGL   H3X   71   1.548   1.556   6.368
    1DOGL   H3Y   72   1.556   1.676   6.501
    1DOGL   C34   73   1.367   1.578   6.492
    1DOGL   H4X   74   1.320   1.480   6.466
    1DOGL   H4Y   75   1.348   1.597   6.600
    1DOGL   C35   76   1.298   1.690   6.414
    1DOGL   H5X   77   1.365   1.778   6.400
    1DOGL   H5Y   78   1.213   1.725   6.477
    1DOGL   C36   79   1.236   1.643   6.281
    1DOGL   H6X   80   1.173   1.554   6.305
    1DOGL   H6Y   81   1.167   1.722   6.245
    1DOGL   C37   82   1.338   1.604   6.172
    1DOGL   H7X   83   1.410   1.688   6.157
    1DOGL   H7Y   84   1.395   1.515   6.205
    1DOGL   C38   85   1.274   1.568   6.038
    1DOGL   H8X   86   1.336   1.499   5.978
    1DOGL   H8Y   87   1.180   1.510   6.060
    1DOGL   C39   88   1.244   1.693   5.959
    1DOGL   H9X   89   1.152   1.741   5.986
    1DOGL  C310   90   1.311   1.776   5.881
    1DOGL  H10X   91   1.249   1.850   5.827
    1DOGL  C311   92   1.454   1.772   5.846
    1DOGL  H11X   93   1.504   1.687   5.898
    1DOGL  H11Y   94   1.495   1.866   5.887
    1DOGL  C312   95   1.486   1.765   5.697
    1DOGL  H12X   96   1.451   1.669   5.653
    1DOGL  H12Y   97   1.598   1.764   5.693
    1DOGL  C313   98   1.433   1.882   5.612
    1DOGL  H13X   99   1.323   1.871   5.599
    1DOGL  H13Y  100   1.450   1.979   5.663
    1DOGL  C314  101   1.502   1.888   5.475
    1DOGL  H14X  102   1.610   1.906   5.494
    1DOGL  H14Y  103   1.461   1.974   5.418
    1DOGL  C315  104   1.488   1.759   5.392
    1DOGL  H15X  105   1.555   1.681   5.435
    1DOGL  H15Y  106   1.384   1.722   5.404
    1DOGL  C316  107   1.514   1.774   5.240
    1DOGL  H16X  108   1.443   1.849   5.200
    1DOGL  H16Y  109   1.490   1.677   5.190
    1DOGL  C317  110   1.656   1.816   5.196
    1DOGL  H17X  111   1.652   1.837   5.086
    1DOGL  H17Y  112   1.684   1.911   5.245
    1DOGL  C318  113   1.767   1.713   5.219
    1DOGL  H18X  114   1.725   1.611   5.226
    1DOGL  H18Y  115   1.840   1.714   5.134
    1DOGL  H18Z  116   1.823   1.737   5.312
  10.00000  10.00000  10.00000
