Split from step5_input.gro (molecule=DOPC)
138
    1DOPC     N    1   1.884   0.334   2.750
    1DOPC   C12    2   1.881   0.310   2.900
    1DOPC  H12A    3   1.932   0.216   2.924
    1DOPC  H12B    4   1.779   0.294   2.931
    1DOPC   C13    5   1.828   0.211   2.686
    1DOPC  H13A    6   1.897   0.128   2.695
    1DOPC  H13B    7   1.737   0.182   2.737
    1DOPC  H13C    8   1.811   0.223   2.580
    1DOPC   C14    9   2.023   0.363   2.700
    1DOPC  H14A   10   2.028   0.392   2.597
    1DOPC  H14B   11   2.068   0.443   2.760
    1DOPC  H14C   12   2.092   0.281   2.718
    1DOPC   C15   13   1.798   0.451   2.719
    1DOPC  H15A   14   1.838   0.541   2.765
    1DOPC  H15B   15   1.697   0.436   2.755
    1DOPC  H15C   16   1.794   0.471   2.612
    1DOPC   C11   17   1.943   0.418   2.989
    1DOPC  H11A   18   1.905   0.520   2.966
    1DOPC  H11B   19   1.914   0.397   3.096
    1DOPC     P   20   2.179   0.327   3.058
    1DOPC   O13   21   2.229   0.406   3.173
    1DOPC   O14   22   2.277   0.260   2.969
    1DOPC   O12   23   2.084   0.419   2.970
    1DOPC   O11   24   2.078   0.216   3.110
    1DOPC    C1   25   2.115   0.146   3.229
    1DOPC    HA   26   2.125   0.215   3.317
    1DOPC    HB   27   2.214   0.094   3.215
    1DOPC    C2   28   2.012   0.035   3.263
    1DOPC    HS   29   1.974  -0.007   3.167
    1DOPC   O21   30   1.905   0.085   3.343
    1DOPC   C21   31   1.801   0.142   3.286
    1DOPC   O22   32   1.777   0.154   3.167
    1DOPC   C22   33   1.709   0.186   3.400
    1DOPC   H2R   34   1.719   0.113   3.483
    1DOPC   H2S   35   1.605   0.180   3.362
    1DOPC    C3   36   2.079  -0.082   3.340
    1DOPC    HX   37   2.153  -0.130   3.272
    1DOPC    HY   38   2.000  -0.157   3.361
    1DOPC   O31   39   2.135  -0.041   3.467
    1DOPC   C31   40   2.265  -0.057   3.489
    1DOPC   O32   41   2.350  -0.086   3.408
    1DOPC   C32   42   2.288  -0.045   3.638
    1DOPC   H2X   43   2.204   0.010   3.685
    1DOPC   H2Y   44   2.289  -0.149   3.678
    1DOPC   C23   45   1.740   0.328   3.453
    1DOPC   H3R   46   1.672   0.345   3.539
    1DOPC   H3S   47   1.717   0.403   3.374
    1DOPC   C24   48   1.884   0.352   3.499
    1DOPC   H4R   49   1.941   0.393   3.413
    1DOPC   H4S   50   1.931   0.256   3.529
    1DOPC   C25   51   1.894   0.453   3.615
    1DOPC   H5R   52   1.835   0.417   3.703
    1DOPC   H5S   53   1.851   0.550   3.582
    1DOPC   C26   54   2.040   0.477   3.657
    1DOPC   H6R   55   2.044   0.552   3.739
    1DOPC   H6S   56   2.092   0.522   3.569
    1DOPC   C27   57   2.120   0.351   3.696
    1DOPC   H7R   58   2.218   0.384   3.736
    1DOPC   H7S   59   2.141   0.294   3.602
    1DOPC   C28   60   2.053   0.249   3.791
    1DOPC   H8R   61   2.126   0.166   3.800
    1DOPC   H8S   62   1.964   0.207   3.740
    1DOPC   C29   63   2.010   0.292   3.929
    1DOPC   H9R   64   2.000   0.400   3.947
    1DOPC  C210   65   1.988   0.205   4.030
    1DOPC  H10R   66   1.963   0.243   4.130
    1DOPC  C211   67   2.001   0.054   4.022
    1DOPC  H11R   68   2.037   0.021   3.922
    1DOPC  H11S   69   1.903   0.004   4.034
    1DOPC  C212   70   2.105   0.004   4.125
    1DOPC  H12R   71   2.195   0.069   4.113
    1DOPC  H12S   72   2.135  -0.099   4.098
    1DOPC  C213   73   2.059   0.002   4.273
    1DOPC  H13R   74   1.979  -0.075   4.283
    1DOPC  H13S   75   2.016   0.100   4.301
    1DOPC  C214   76   2.168  -0.032   4.376
    1DOPC  H14R   77   2.220  -0.127   4.352
    1DOPC  H14S   78   2.119  -0.046   4.476
    1DOPC  C215   79   2.268   0.082   4.391
    1DOPC  H15R   80   2.214   0.169   4.433
    1DOPC  H15S   81   2.316   0.110   4.295
    1DOPC  C216   82   2.377   0.050   4.488
    1DOPC  H16R   83   2.333   0.003   4.579
    1DOPC  H16S   84   2.428   0.144   4.518
    1DOPC  C217   85   2.482  -0.044   4.435
    1DOPC  H17R   86   2.551   0.000   4.360
    1DOPC  H17S   87   2.439  -0.139   4.394
    1DOPC  C218   88   2.553  -0.081   4.559
    1DOPC  H18R   89   2.653  -0.117   4.541
    1DOPC  H18S   90   2.485  -0.157   4.595
    1DOPC  H18T   91   2.552  -0.013   4.644
    1DOPC   C33   92   2.420   0.024   3.676
    1DOPC   H3X   93   2.409   0.134   3.661
    1DOPC   H3Y   94   2.504  -0.012   3.612
    1DOPC   C34   95   2.449  -0.010   3.822
    1DOPC   H4X   96   2.470  -0.119   3.829
    1DOPC   H4Y   97   2.358   0.008   3.883
    1DOPC   C35   98   2.569   0.064   3.882
    1DOPC   H5X   99   2.653   0.056   3.812
    1DOPC   H5Y  100   2.598   0.010   3.975
    1DOPC   C36  101   2.540   0.208   3.926
    1DOPC   H6X  102   2.626   0.239   3.990
    1DOPC   H6Y  103   2.541   0.275   3.837
    1DOPC   C37  104   2.405   0.219   4.005
    1DOPC   H7X  105   2.322   0.210   3.931
    1DOPC   H7Y  106   2.400   0.145   4.086
    1DOPC   C38  107   2.380   0.353   4.069
    1DOPC   H8X  108   2.400   0.402   3.972
    1DOPC   H8Y  109   2.465   0.373   4.138
    1DOPC   C39  110   2.256   0.423   4.120
    1DOPC   H9X  111   2.197   0.479   4.045
    1DOPC  C310  112   2.234   0.453   4.248
    1DOPC  H10X  113   2.162   0.532   4.272
    1DOPC  C311  114   2.331   0.417   4.355
    1DOPC  H11X  115   2.419   0.357   4.324
    1DOPC  H11Y  116   2.276   0.357   4.428
    1DOPC  C312  117   2.390   0.531   4.432
    1DOPC  H12X  118   2.457   0.591   4.368
    1DOPC  H12Y  119   2.457   0.474   4.501
    1DOPC  C313  120   2.284   0.613   4.508
    1DOPC  H13X  121   2.301   0.722   4.496
    1DOPC  H13Y  122   2.181   0.599   4.472
    1DOPC  C314  123   2.289   0.576   4.655
    1DOPC  H14X  124   2.389   0.587   4.695
    1DOPC  H14Y  125   2.234   0.652   4.714
    1DOPC  C315  126   2.262   0.427   4.678
    1DOPC  H15X  127   2.271   0.389   4.780
    1DOPC  H15Y  128   2.335   0.363   4.628
    1DOPC  C316  129   2.120   0.395   4.655
    1DOPC  H16X  130   2.103   0.390   4.546
    1DOPC  H16Y  131   2.098   0.298   4.707
    1DOPC  C317  132   2.026   0.494   4.714
    1DOPC  H17X  133   2.049   0.491   4.822
    1DOPC  H17Y  134   2.038   0.601   4.691
    1DOPC  C318  135   1.889   0.444   4.665
    1DOPC  H18X  136   1.882   0.455   4.556
    1DOPC  H18Y  137   1.873   0.339   4.697
    1DOPC  H18Z  138   1.802   0.500   4.702
  10.00000  10.00000  10.00000
