Split from step5_input.gro (molecule=MEPPC)
126
    1MEPPC    N    1   2.930   2.913   6.990
    1MEPPC  C12    2   2.784   2.906   7.026
    1MEPPC H12A    3   2.742   3.005   7.018
    1MEPPC H12B    4   2.777   2.873   7.129
    1MEPPC  C13    5   2.992   2.780   7.024
    1MEPPC H13A    6   2.947   2.700   6.965
    1MEPPC H13B    7   3.098   2.781   6.999
    1MEPPC H13C    8   2.987   2.755   7.128
    1MEPPC  C14    9   2.944   2.949   6.843
    1MEPPC H14A   10   2.937   3.054   6.824
    1MEPPC H14B   11   3.043   2.920   6.808
    1MEPPC H14C   12   2.876   2.893   6.780
    1MEPPC  C15   13   3.001   3.016   7.071
    1MEPPC H15A   14   2.993   2.992   7.176
    1MEPPC H15B   15   3.107   3.015   7.047
    1MEPPC H15C   16   2.960   3.113   7.053
    1MEPPC  C11   17   2.692   2.813   6.943
    1MEPPC H11A   18   2.668   2.861   6.846
    1MEPPC H11B   19   2.599   2.803   7.003
    1MEPPC    P   20   2.655   2.581   6.836
    1MEPPC  O13   21   2.708   2.446   6.859
    1MEPPC  O14   22   2.514   2.607   6.876
    1MEPPC  O12   23   2.746   2.683   6.919
    1MEPPC  O11   24   2.679   2.632   6.688
    1MEPPC   C1   25   2.814   2.636   6.641
    1MEPPC   HA   26   2.878   2.555   6.682
    1MEPPC   HB   27   2.860   2.734   6.667
    1MEPPC   C2   28   2.814   2.621   6.488
    1MEPPC   HS   29   2.757   2.530   6.460
    1MEPPC  O21   30   2.948   2.622   6.436
    1MEPPC  C21   31   2.999   2.502   6.418
    1MEPPC  O22   32   2.957   2.400   6.468
    1MEPPC  C22   33   3.112   2.496   6.317
    1MEPPC  H2R   34   3.212   2.514   6.358
    1MEPPC  H2S   35   3.105   2.560   6.230
    1MEPPC   C3   36   2.741   2.738   6.421
    1MEPPC   HX   37   2.647   2.761   6.475
    1MEPPC   HY   38   2.808   2.828   6.433
    1MEPPC  O31   39   2.712   2.698   6.285
    1MEPPC  C31   40   2.745   2.789   6.195
    1MEPPC  O32   41   2.791   2.898   6.221
    1MEPPC  C32   42   2.713   2.744   6.053
    1MEPPC  H2X   43   2.608   2.770   6.038
    1MEPPC  H2Y   44   2.719   2.634   6.045
    1MEPPC  C23   45   3.089   2.361   6.261
    1MEPPC  H3R   46   2.993   2.359   6.224
    1MEPPC  H3S   47   3.110   2.277   6.328
    1MEPPC  C24   48   3.155   2.330   6.138
    1MEPPC  H4R   49   3.170   2.229   6.101
    1MEPPC  H4S   50   3.241   2.364   6.183
    1MEPPC  C25   51   3.185   2.408   6.033
    1MEPPC  H5R   52   3.212   2.518   6.061
    1MEPPC  C26   53   3.125   2.385   5.930
    1MEPPC  H6R   54   3.175   2.480   5.902
    1MEPPC  C27   55   3.004   2.304   5.849
    1MEPPC  H7R   56   3.018   2.201   5.887
    1MEPPC  H7S   57   3.033   2.295   5.753
    1MEPPC  C28   58   2.838   2.340   5.830
    1MEPPC  H8R   59   2.797   2.438   5.868
    1MEPPC  C29   60   2.722   2.350   5.753
    1MEPPC  H9R   61   2.628   2.382   5.808
    1MEPPC C210   62   2.683   2.287   5.631
    1MEPPC H10R   63   2.697   2.179   5.616
    1MEPPC H10S   64   2.774   2.315   5.600
    1MEPPC C211   65   2.633   2.391   5.533
    1MEPPC H11R   66   2.609   2.490   5.577
    1MEPPC C212   67   2.636   2.380   5.399
    1MEPPC H12R   68   2.587   2.460   5.344
    1MEPPC C213   69   2.689   2.264   5.317
    1MEPPC H13R   70   2.636   2.268   5.221
    1MEPPC H13S   71   2.657   2.172   5.370
    1MEPPC C214   72   2.830   2.231   5.276
    1MEPPC H14R   73   2.863   2.130   5.303
    1MEPPC C215   74   2.923   2.315   5.237
    1MEPPC H15R   75   3.028   2.280   5.228
    1MEPPC C216   76   2.905   2.463   5.225
    1MEPPC H16R   77   3.012   2.483   5.216
    1MEPPC H16S   78   2.876   2.519   5.315
    1MEPPC C217   79   2.810   2.522   5.124
    1MEPPC H17R   80   2.720   2.568   5.162
    1MEPPC C218   81   2.829   2.517   4.995
    1MEPPC H18R   82   2.756   2.536   4.916
    1MEPPC C219   83   2.946   2.451   4.950
    1MEPPC H19R   84   2.912   2.364   4.889
    1MEPPC H19S   85   3.008   2.416   5.030
    1MEPPC C220   86   3.036   2.539   4.882
    1MEPPC H20R   87   3.022   2.477   4.793
    1MEPPC H20S   88   3.034   2.647   4.887
    1MEPPC H20T   89   3.138   2.518   4.851
    1MEPPC  C33   90   2.799   2.803   5.939
    1MEPPC  H3X   91   2.895   2.758   5.957
    1MEPPC  H3Y   92   2.830   2.909   5.943
    1MEPPC  C34   93   2.741   2.773   5.801
    1MEPPC  H4X   94   2.710   2.667   5.788
    1MEPPC  H4Y   95   2.818   2.799   5.725
    1MEPPC  C35   96   2.624   2.864   5.781
    1MEPPC  H5X   97   2.670   2.955   5.819
    1MEPPC  H5Y   98   2.534   2.836   5.840
    1MEPPC  C36   99   2.602   2.906   5.640
    1MEPPC  H6X  100   2.699   2.930   5.592
    1MEPPC  H6Y  101   2.541   2.998   5.635
    1MEPPC  C37  102   2.528   2.798   5.567
    1MEPPC  H7X  103   2.436   2.774   5.626
    1MEPPC  H7Y  104   2.593   2.708   5.563
    1MEPPC  C38  105   2.490   2.852   5.430
    1MEPPC  H8X  106   2.439   2.951   5.445
    1MEPPC  H8Y  107   2.417   2.783   5.384
    1MEPPC  C39  108   2.609   2.873   5.337
    1MEPPC  H9X  109   2.694   2.807   5.365
    1MEPPC  H9Y  110   2.644   2.979   5.345
    1MEPPC C310  111   2.568   2.843   5.194
    1MEPPC H10X  112   2.478   2.904   5.168
    1MEPPC H10Y  113   2.539   2.736   5.186
    1MEPPC C311  114   2.678   2.875   5.094
    1MEPPC H11X  115   2.761   2.803   5.101
    1MEPPC H11Y  116   2.719   2.976   5.114
    1MEPPC C312  117   2.620   2.870   4.954
    1MEPPC H12X  118   2.559   2.961   4.944
    1MEPPC H12Y  119   2.552   2.785   4.946
    1MEPPC C313  120   2.728   2.859   4.849
    1MEPPC H13X  121   2.684   2.844   4.747
    1MEPPC H13Y  122   2.798   2.776   4.872
    1MEPPC C314  123   2.804   2.985   4.846
    1MEPPC H14X  124   2.870   3.002   4.935
    1MEPPC H14Y  125   2.856   3.006   4.756
    1MEPPC H14Z  126   2.729   3.065   4.835
  10.00000  10.00000  10.00000
