Split from step5_input.gro (molecule=OOOTG)
167
    1OOOTG   C1    1   2.790   0.675   6.731
    1OOOTG   HA    2   2.730   0.744   6.792
    1OOOTG   HB    3   2.897   0.703   6.739
    1OOOTG  O11    4   2.751   0.680   6.592
    1OOOTG  O12    5   2.855   0.881   6.580
    1OOOTG  C11    6   2.786   0.793   6.533
    1OOOTG  C12    7   2.720   0.802   6.396
    1OOOTG  H2P    8   2.754   0.896   6.353
    1OOOTG  H2Q    9   2.610   0.806   6.408
    1OOOTG   C2   10   2.773   0.532   6.786
    1OOOTG   HS   11   2.829   0.514   6.880
    1OOOTG  O21   12   2.828   0.448   6.689
    1OOOTG  C21   13   2.952   0.469   6.645
    1OOOTG  O22   14   3.039   0.534   6.698
    1OOOTG  C22   15   2.972   0.378   6.526
    1OOOTG  H2R   16   2.903   0.304   6.569
    1OOOTG  H2S   17   3.077   0.348   6.515
    1OOOTG   C3   18   2.625   0.489   6.805
    1OOOTG   HX   19   2.622   0.384   6.844
    1OOOTG   HY   20   2.581   0.558   6.881
    1OOOTG  O31   21   2.554   0.502   6.681
    1OOOTG  C31   22   2.430   0.456   6.674
    1OOOTG  O32   23   2.370   0.395   6.761
    1OOOTG  C32   24   2.369   0.493   6.540
    1OOOTG  H2X   25   2.359   0.604   6.538
    1OOOTG  H2Y   26   2.267   0.450   6.530
    1OOOTG  C13   27   2.757   0.691   6.297
    1OOOTG  H3P   28   2.708   0.716   6.200
    1OOOTG  H3Q   29   2.716   0.594   6.331
    1OOOTG  C14   30   2.908   0.680   6.271
    1OOOTG  H4P   31   2.953   0.634   6.363
    1OOOTG  H4Q   32   2.955   0.780   6.263
    1OOOTG  C15   33   2.942   0.597   6.145
    1OOOTG  H5P   34   2.891   0.498   6.152
    1OOOTG  H5Q   35   3.052   0.580   6.142
    1OOOTG  C16   36   2.903   0.664   6.012
    1OOOTG  H6P   37   2.950   0.764   6.007
    1OOOTG  H6Q   38   2.792   0.675   6.006
    1OOOTG  C17   39   2.947   0.583   5.889
    1OOOTG  H7P   40   2.909   0.480   5.905
    1OOOTG  H7Q   41   3.057   0.573   5.881
    1OOOTG  C18   42   2.885   0.631   5.756
    1OOOTG  H8P   43   2.775   0.629   5.772
    1OOOTG  H8Q   44   2.910   0.555   5.679
    1OOOTG  C19   45   2.922   0.769   5.708
    1OOOTG  H9P   46   2.983   0.829   5.777
    1OOOTG C110   47   2.882   0.822   5.591
    1OOOTG H10P   48   2.912   0.925   5.566
    1OOOTG C111   49   2.795   0.754   5.489
    1OOOTG H11P   50   2.691   0.760   5.524
    1OOOTG H11Q   51   2.817   0.646   5.479
    1OOOTG C112   52   2.804   0.820   5.352
    1OOOTG H12P   53   2.782   0.929   5.354
    1OOOTG H12Q   54   2.728   0.772   5.285
    1OOOTG C113   55   2.940   0.795   5.291
    1OOOTG H13P   56   3.025   0.840   5.345
    1OOOTG H13Q   57   2.939   0.850   5.194
    1OOOTG C114   58   2.961   0.643   5.279
    1OOOTG H14P   59   2.865   0.589   5.260
    1OOOTG H14Q   60   3.008   0.602   5.372
    1OOOTG C115   61   3.055   0.607   5.167
    1OOOTG H15P   62   3.082   0.502   5.177
    1OOOTG H15Q   63   3.141   0.672   5.181
    1OOOTG C116   64   2.984   0.615   5.034
    1OOOTG H16P   65   2.970   0.713   5.080
    1OOOTG H16Q   66   2.896   0.548   5.031
    1OOOTG C117   67   2.962   0.718   4.928
    1OOOTG H17P   68   2.852   0.745   4.942
    1OOOTG H17Q   69   3.028   0.810   4.933
    1OOOTG C118   70   2.986   0.644   4.804
    1OOOTG H18P   71   3.051   0.722   4.773
    1OOOTG H18Q   72   3.078   0.617   4.755
    1OOOTG H18O   73   2.900   0.622   4.740
    1OOOTG  C23   74   2.894   0.379   6.396
    1OOOTG  H3R   75   2.956   0.444   6.334
    1OOOTG  H3S   76   2.790   0.411   6.420
    1OOOTG  C24   77   2.885   0.248   6.318
    1OOOTG  H4R   78   2.815   0.250   6.233
    1OOOTG  H4S   79   2.839   0.170   6.382
    1OOOTG  C25   80   3.021   0.217   6.257
    1OOOTG  H5R   81   3.075   0.168   6.330
    1OOOTG  H5S   82   3.091   0.300   6.237
    1OOOTG  C26   83   3.013   0.101   6.164
    1OOOTG  H6R   84   2.949   0.026   6.206
    1OOOTG  H6S   85   3.103   0.045   6.158
    1OOOTG  C27   86   2.942   0.124   6.039
    1OOOTG  H7R   87   2.835   0.131   6.067
    1OOOTG  H7S   88   2.947   0.032   5.983
    1OOOTG  C28   89   2.987   0.253   5.981
    1OOOTG  H8R   90   2.992   0.335   6.053
    1OOOTG  H8S   91   2.919   0.277   5.905
    1OOOTG  C29   92   3.112   0.257   5.915
    1OOOTG  H9R   93   3.191   0.237   5.980
    1OOOTG C210   94   3.136   0.277   5.789
    1OOOTG H10R   95   3.222   0.236   5.748
    1OOOTG C211   96   3.050   0.299   5.678
    1OOOTG H11R   97   3.090   0.372   5.608
    1OOOTG H11S   98   2.949   0.327   5.707
    1OOOTG C212   99   3.049   0.160   5.628
    1OOOTG H12R  100   3.006   0.098   5.706
    1OOOTG H12S  101   3.136   0.094   5.613
    1OOOTG C213  102   2.967   0.171   5.506
    1OOOTG H13R  103   2.864   0.208   5.501
    1OOOTG H13S  104   2.972   0.072   5.477
    1OOOTG C214  105   3.028   0.169   5.380
    1OOOTG H14R  106   3.038   0.277   5.391
    1OOOTG H14S  107   3.122   0.107   5.392
    1OOOTG C215  108   2.939   0.118   5.267
    1OOOTG H15R  109   2.936   0.015   5.295
    1OOOTG H15S  110   2.970   0.093   5.168
    1OOOTG C216  111   2.811   0.182   5.216
    1OOOTG H16R  112   2.773   0.276   5.258
    1OOOTG H16S  113   2.750   0.123   5.283
    1OOOTG C217  114   2.764   0.151   5.067
    1OOOTG H17R  115   2.671   0.203   5.075
    1OOOTG H17S  116   2.740   0.048   5.040
    1OOOTG C218  117   2.836   0.169   4.933
    1OOOTG H18R  118   2.914   0.094   4.939
    1OOOTG H18S  119   2.813   0.168   4.827
    1OOOTG H18T  120   2.864   0.276   4.928
    1OOOTG  C33  121   2.460   0.453   6.425
    1OOOTG  H3X  122   2.564   0.490   6.437
    1OOOTG  H3Y  123   2.419   0.501   6.333
    1OOOTG  C34  124   2.467   0.305   6.397
    1OOOTG  H4X  125   2.365   0.263   6.391
    1OOOTG  H4Y  126   2.518   0.251   6.480
    1OOOTG  C35  127   2.550   0.291   6.268
    1OOOTG  H5X  128   2.574   0.188   6.237
    1OOOTG  H5Y  129   2.649   0.335   6.284
    1OOOTG  C36  130   2.492   0.352   6.144
    1OOOTG  H6X  131   2.501   0.462   6.141
    1OOOTG  H6Y  132   2.384   0.326   6.138
    1OOOTG  C37  133   2.566   0.297   6.026
    1OOOTG  H7X  134   2.498   0.309   5.940
    1OOOTG  H7Y  135   2.600   0.193   6.047
    1OOOTG  C38  136   2.661   0.384   5.953
    1OOOTG  H8X  137   2.738   0.403   6.030
    1OOOTG  H8Y  138   2.602   0.475   5.929
    1OOOTG  C39  139   2.717   0.326   5.825
    1OOOTG  H9X  140   2.752   0.221   5.838
    1OOOTG C310  141   2.699   0.357   5.696
    1OOOTG H10X  142   2.758   0.310   5.619
    1OOOTG C311  143   2.618   0.457   5.629
    1OOOTG H11X  144   2.683   0.536   5.591
    1OOOTG H11Y  145   2.566   0.492   5.718
    1OOOTG C312  146   2.526   0.406   5.512
    1OOOTG H12X  147   2.434   0.360   5.543
    1OOOTG H12Y  148   2.575   0.338   5.438
    1OOOTG C313  149   2.478   0.513   5.423
    1OOOTG H13X  150   2.554   0.588   5.441
    1OOOTG H13Y  151   2.437   0.597   5.450
    1OOOTG C314  152   2.330   0.532   5.378
    1OOOTG H14X  153   2.269   0.623   5.404
    1OOOTG H14Y  154   2.231   0.497   5.413
    1OOOTG C315  155   2.394   0.518   5.249
    1OOOTG H15X  156   2.483   0.448   5.236
    1OOOTG H15Y  157   2.418   0.620   5.217
    1OOOTG C316  158   2.309   0.437   5.185
    1OOOTG H16X  159   2.208   0.466   5.220
    1OOOTG H16Y  160   2.332   0.345   5.246
    1OOOTG C317  161   2.323   0.423   5.035
    1OOOTG H17X  162   2.219   0.416   4.995
    1OOOTG H17Y  163   2.375   0.329   5.018
    1OOOTG C318  164   2.367   0.529   4.939
    1OOOTG H18X  165   2.424   0.488   4.857
    1OOOTG H18Y  166   2.272   0.552   4.886
    1OOOTG H18Z  167   2.405   0.625   4.973
  10.00000  10.00000  10.00000
