Split from step5_input.gro (molecule=PAPC)
134
    1PAPC     N    1   0.729   0.881   6.998
    1PAPC   C12    2   0.745   0.915   6.851
    1PAPC  H12A    3   0.758   0.821   6.799
    1PAPC  H12B    4   0.835   0.971   6.834
    1PAPC   C13    5   0.620   0.779   7.014
    1PAPC  H13A    6   0.631   0.695   6.945
    1PAPC  H13B    7   0.606   0.750   7.117
    1PAPC  H13C    8   0.524   0.824   6.984
    1PAPC   C14    9   0.860   0.832   7.051
    1PAPC  H14A   10   0.911   0.764   6.983
    1PAPC  H14B   11   0.927   0.917   7.065
    1PAPC  H14C   12   0.848   0.784   7.147
    1PAPC   C15   13   0.688   1.003   7.074
    1PAPC  H15A   14   0.739   1.090   7.037
    1PAPC  H15B   15   0.580   1.019   7.059
    1PAPC  H15C   16   0.704   0.991   7.180
    1PAPC   C11   17   0.627   0.985   6.780
    1PAPC  H11A   18   0.665   1.018   6.680
    1PAPC  H11B   19   0.597   1.078   6.832
    1PAPC     P   20   0.448   0.867   6.634
    1PAPC   O13   21   0.393   0.991   6.575
    1PAPC   O14   22   0.365   0.744   6.639
    1PAPC   O12   23   0.514   0.897   6.774
    1PAPC   O11   24   0.582   0.838   6.564
    1PAPC    C1   25   0.657   0.731   6.616
    1PAPC    HA   26   0.755   0.761   6.657
    1PAPC    HB   27   0.603   0.653   6.678
    1PAPC    C2   28   0.692   0.661   6.497
    1PAPC    HS   29   0.773   0.597   6.536
    1PAPC   O21   30   0.744   0.750   6.397
    1PAPC   C21   31   0.867   0.785   6.388
    1PAPC   O22   32   0.957   0.754   6.466
    1PAPC   C22   33   0.883   0.875   6.263
    1PAPC   H2R   34   0.796   0.943   6.263
    1PAPC   H2S   35   0.974   0.937   6.277
    1PAPC    C3   36   0.557   0.587   6.456
    1PAPC    HX   37   0.501   0.513   6.514
    1PAPC    HY   38   0.604   0.517   6.393
    1PAPC   O31   39   0.457   0.656   6.391
    1PAPC   C31   40   0.407   0.575   6.305
    1PAPC   O32   41   0.430   0.456   6.299
    1PAPC   C32   42   0.321   0.667   6.229
    1PAPC   H2X   43   0.311   0.764   6.277
    1PAPC   H2Y   44   0.244   0.618   6.276
    1PAPC   C23   45   0.889   0.801   6.126
    1PAPC   H3R   46   0.796   0.750   6.104
    1PAPC   H3S   47   0.964   0.721   6.128
    1PAPC   C24   48   0.905   0.894   6.004
    1PAPC   H4R   49   0.998   0.953   6.021
    1PAPC   H4S   50   0.819   0.964   6.006
    1PAPC   C25   51   0.907   0.821   5.872
    1PAPC   H5R   52   0.929   0.713   5.877
    1PAPC   C26   53   0.879   0.869   5.749
    1PAPC   H6R   54   0.876   0.797   5.666
    1PAPC   C27   55   0.839   1.007   5.709
    1PAPC   H7R   56   0.850   1.017   5.598
    1PAPC   H7S   57   0.909   1.080   5.755
    1PAPC   C28   58   0.698   1.033   5.754
    1PAPC   H8R   59   0.693   1.078   5.854
    1PAPC   C29   60   0.583   1.008   5.689
    1PAPC   H9R   61   0.490   1.029   5.744
    1PAPC  C210   62   0.561   0.949   5.551
    1PAPC  H10R   63   0.453   0.923   5.542
    1PAPC  H10S   64   0.616   0.853   5.537
    1PAPC  C211   65   0.594   1.051   5.445
    1PAPC  H11R   66   0.559   1.151   5.471
    1PAPC  C212   67   0.656   1.044   5.327
    1PAPC  H12R   68   0.666   1.137   5.269
    1PAPC  C213   69   0.718   0.929   5.254
    1PAPC  H13R   70   0.709   0.835   5.311
    1PAPC  H13S   71   0.826   0.955   5.253
    1PAPC  C214   72   0.666   0.921   5.112
    1PAPC  H14R   73   0.720   0.992   5.046
    1PAPC  C215   74   0.569   0.842   5.056
    1PAPC  H15R   75   0.554   0.852   4.948
    1PAPC  C216   76   0.480   0.734   5.118
    1PAPC  H16R   77   0.396   0.775   5.175
    1PAPC  H16S   78   0.554   0.701   5.186
    1PAPC  C217   79   0.420   0.590   5.069
    1PAPC  H17R   80   0.354   0.605   4.983
    1PAPC  H17S   81   0.398   0.520   5.147
    1PAPC  C218   82   0.510   0.502   4.994
    1PAPC  H18R   83   0.571   0.456   5.044
    1PAPC  H18S   84   0.576   0.589   5.009
    1PAPC  C219   85   0.559   0.352   4.948
    1PAPC  H19R   86   0.574   0.268   5.018
    1PAPC  H19S   87   0.672   0.341   4.925
    1PAPC  C220   88   0.514   0.316   4.818
    1PAPC  H20R   89   0.423   0.367   4.782
    1PAPC  H20S   90   0.540   0.217   4.788
    1PAPC  H20T   91   0.594   0.362   4.758
    1PAPC   C33   92   0.242   0.651   6.106
    1PAPC   H3X   93   0.137   0.688   6.102
    1PAPC   H3Y   94   0.235   0.549   6.077
    1PAPC   C34   95   0.322   0.671   6.001
    1PAPC   H4X   96   0.407   0.600   6.015
    1PAPC   H4Y   97   0.364   0.771   6.004
    1PAPC   C35   98   0.242   0.633   5.883
    1PAPC   H5X   99   0.146   0.685   5.863
    1PAPC   H5Y  100   0.212   0.523   5.880
    1PAPC   C36  101   0.345   0.686   5.786
    1PAPC   H6X  102   0.278   0.646   5.707
    1PAPC   H6Y  103   0.390   0.602   5.822
    1PAPC   C37  104   0.518   0.689   5.788
    1PAPC   H7X  105   0.540   0.717   5.892
    1PAPC   H7Y  106   0.516   0.765   5.711
    1PAPC   C38  107   0.660   0.597   5.750
    1PAPC   H8X  108   0.690   0.532   5.827
    1PAPC   H8Y  109   0.743   0.665   5.742
    1PAPC   C39  110   0.695   0.491   5.633
    1PAPC   H9X  111   0.653   0.575   5.585
    1PAPC   H9Y  112   0.631   0.408   5.593
    1PAPC  C310  113   0.828   0.434   5.590
    1PAPC  H10X  114   0.811   0.341   5.531
    1PAPC  H10Y  115   0.870   0.388   5.680
    1PAPC  C311  116   0.913   0.537   5.513
    1PAPC  H11X  117   1.015   0.525   5.550
    1PAPC  H11Y  118   0.871   0.638   5.540
    1PAPC  C312  119   0.914   0.525   5.357
    1PAPC  H12X  120   0.842   0.601   5.324
    1PAPC  H12Y  121   0.908   0.423   5.321
    1PAPC  C313  122   1.029   0.523   5.253
    1PAPC  H13X  123   1.114   0.481   5.307
    1PAPC  H13Y  124   1.025   0.608   5.328
    1PAPC  C314  125   1.042   0.561   5.071
    1PAPC  H14X  126   0.963   0.580   5.009
    1PAPC  H14Y  127   1.096   0.483   5.033
    1PAPC  C315  128   1.095   0.696   4.971
    1PAPC  H15X  129   1.203   0.716   4.963
    1PAPC  H15Y  130   1.081   0.804   4.997
    1PAPC  C316  131   1.025   0.735   4.846
    1PAPC  H16X  132   0.921   0.754   4.833
    1PAPC  H16Y  133   1.049   0.638   4.803
    1PAPC  H16Z  134   1.072   0.828   4.803
  10.00000  10.00000  10.00000
