Split from step5_input.gro (molecule=POPS)
127
    1POPS     N    1   2.946   1.136   6.618
    1POPS   HN1    2   3.021   1.155   6.550
    1POPS   HN2    3   2.961   1.049   6.674
    1POPS   HN3    4   2.854   1.120   6.572
    1POPS   C12    5   2.931   1.249   6.713
    1POPS  H12A    6   3.028   1.268   6.756
    1POPS   C13    7   2.835   1.214   6.828
    1POPS  O13A    8   2.766   1.108   6.817
    1POPS  O13B    9   2.833   1.291   6.928
    1POPS   C11   10   2.875   1.372   6.636
    1POPS  H11A   11   2.768   1.356   6.612
    1POPS  H11B   12   2.932   1.387   6.542
    1POPS     P   13   2.873   1.635   6.661
    1POPS   O13   14   3.002   1.660   6.591
    1POPS   O14   15   2.824   1.718   6.772
    1POPS   O12   16   2.885   1.488   6.716
    1POPS   O11   17   2.761   1.621   6.550
    1POPS    C1   18   2.624   1.629   6.591
    1POPS    HA   19   2.600   1.733   6.622
    1POPS    HB   20   2.606   1.561   6.678
    1POPS    C2   21   2.526   1.587   6.478
    1POPS    HS   22   2.426   1.574   6.525
    1POPS   O21   23   2.575   1.464   6.423
    1POPS   C21   24   2.486   1.376   6.383
    1POPS   O22   25   2.366   1.396   6.372
    1POPS   C22   26   2.559   1.244   6.356
    1POPS   H2R   27   2.489   1.183   6.296
    1POPS   H2S   28   2.575   1.192   6.453
    1POPS    C3   29   2.511   1.696   6.367
    1POPS    HX   30   2.470   1.788   6.414
    1POPS    HY   31   2.434   1.661   6.293
    1POPS   O31   32   2.635   1.734   6.304
    1POPS   C31   33   2.668   1.661   6.200
    1POPS   O32   34   2.597   1.578   6.145
    1POPS   C32   35   2.808   1.696   6.155
    1POPS   H2X   36   2.853   1.770   6.225
    1POPS   H2Y   37   2.806   1.741   6.053
    1POPS   C23   38   2.694   1.266   6.280
    1POPS   H3R   39   2.767   1.310   6.352
    1POPS   H3S   40   2.677   1.340   6.199
    1POPS   C24   41   2.757   1.143   6.213
    1POPS   H4R   42   2.781   1.071   6.293
    1POPS   H4S   43   2.855   1.173   6.169
    1POPS   C25   44   2.673   1.073   6.105
    1POPS   H5R   45   2.573   1.047   6.147
    1POPS   H5S   46   2.724   0.977   6.079
    1POPS   C26   47   2.646   1.152   5.974
    1POPS   H6R   48   2.604   1.252   5.999
    1POPS   H6S   49   2.567   1.094   5.921
    1POPS   C27   50   2.763   1.165   5.875
    1POPS   H7R   51   2.820   1.069   5.877
    1POPS   H7S   52   2.833   1.245   5.909
    1POPS   C28   53   2.722   1.192   5.727
    1POPS   H8R   54   2.655   1.111   5.690
    1POPS   H8S   55   2.816   1.185   5.667
    1POPS   C29   56   2.663   1.330   5.711
    1POPS   H91   57   2.734   1.410   5.738
    1POPS  C210   58   2.545   1.372   5.661
    1POPS  H101   59   2.521   1.479   5.660
    1POPS  C211   60   2.432   1.295   5.602
    1POPS  H11R   61   2.340   1.297   5.665
    1POPS  H11S   62   2.460   1.188   5.591
    1POPS  C212   63   2.401   1.370   5.470
    1POPS  H12R   64   2.361   1.470   5.490
    1POPS  H12S   65   2.316   1.330   5.414
    1POPS  C213   66   2.511   1.367   5.363
    1POPS  H13R   67   2.542   1.262   5.345
    1POPS  H13S   68   2.599   1.426   5.395
    1POPS  C214   69   2.458   1.425   5.232
    1POPS  H14R   70   2.462   1.536   5.240
    1POPS  H14S   71   2.352   1.397   5.214
    1POPS  C215   72   2.539   1.376   5.111
    1POPS  H15R   73   2.557   1.267   5.112
    1POPS  H15S   74   2.638   1.428   5.121
    1POPS  C216   75   2.463   1.413   4.982
    1POPS  H16R   76   2.479   1.519   5.012
    1POPS  H16S   77   2.354   1.425   4.986
    1POPS  C217   78   2.515   1.358   4.837
    1POPS  H17R   79   2.492   1.251   4.829
    1POPS  H17S   80   2.626   1.361   4.848
    1POPS  C218   81   2.475   1.419   4.692
    1POPS  H18R   82   2.562   1.442   4.624
    1POPS  H18S   83   2.470   1.529   4.677
    1POPS  H18T   84   2.368   1.441   4.681
    1POPS   C33   85   2.889   1.567   6.152
    1POPS   H3X   86   2.850   1.501   6.071
    1POPS   H3Y   87   2.879   1.511   6.248
    1POPS   C34   88   3.035   1.598   6.130
    1POPS   H4X   89   3.071   1.663   6.214
    1POPS   H4Y   90   3.048   1.655   6.036
    1POPS   C35   91   3.119   1.472   6.128
    1POPS   H5X   92   3.057   1.386   6.093
    1POPS   H5Y   93   3.152   1.449   6.232
    1POPS   C36   94   3.240   1.487   6.036
    1POPS   H6X   95   3.302   1.402   6.065
    1POPS   H6Y   96   3.298   1.579   6.056
    1POPS   C37   97   3.203   1.478   5.888
    1POPS   H7X   98   3.137   1.564   5.863
    1POPS   H7Y   99   3.149   1.383   5.867
    1POPS   C38  100   3.321   1.491   5.793
    1POPS   H8X  101   3.401   1.420   5.823
    1POPS   H8Y  102   3.365   1.592   5.809
    1POPS   C39  103   3.276   1.476   5.644
    1POPS   H9X  104   3.362   1.502   5.580
    1POPS   H9Y  105   3.200   1.555   5.628
    1POPS  C310  106   3.211   1.340   5.598
    1POPS  H10X  107   3.130   1.309   5.667
    1POPS  H10Y  108   3.271   1.249   5.601
    1POPS  C311  109   3.179   1.332   5.448
    1POPS  H11X  110   3.175   1.224   5.419
    1POPS  H11Y  111   3.258   1.382   5.387
    1POPS  C312  112   3.053   1.403   5.412
    1POPS  H12X  113   3.075   1.512   5.430
    1POPS  H12Y  114   2.972   1.371   5.480
    1POPS  C313  115   3.016   1.382   5.266
    1POPS  H13X  116   2.962   1.286   5.253
    1POPS  H13Y  117   3.110   1.375   5.205
    1POPS  C314  118   2.933   1.502   5.220
    1POPS  H14X  119   2.991   1.594   5.246
    1POPS  H14Y  120   2.839   1.504   5.278
    1POPS  C315  121   2.905   1.508   5.070
    1POPS  H15X  122   2.828   1.589   5.057
    1POPS  H15Y  123   2.861   1.413   5.034
    1POPS  C316  124   3.029   1.546   4.990
    1POPS  H16X  125   3.047   1.654   4.999
    1POPS  H16Y  126   3.018   1.523   4.882
    1POPS  H16Z  127   3.118   1.493   5.030
  10.00000  10.00000  10.00000
