Split from step5_input.gro (molecule=PSM)
127
    1PSM      N    1   3.199   3.323   6.941
    1PSM    C15    2   3.156   3.328   6.799
    1PSM   H15A    3   3.174   3.429   6.764
    1PSM   H15B    4   3.213   3.260   6.736
    1PSM   H15C    5   3.050   3.313   6.786
    1PSM    C14    6   3.244   3.186   6.963
    1PSM   H14A    7   3.320   3.161   6.890
    1PSM   H14B    8   3.292   3.171   7.059
    1PSM   H14C    9   3.167   3.114   6.946
    1PSM    C13   10   3.319   3.410   6.957
    1PSM   H13A   11   3.298   3.511   6.922
    1PSM   H13B   12   3.349   3.420   7.060
    1PSM   H13C   13   3.403   3.372   6.899
    1PSM    C12   14   3.087   3.358   7.040
    1PSM   H12A   15   3.003   3.294   7.019
    1PSM   H12B   16   3.123   3.335   7.139
    1PSM    C11   17   3.030   3.500   7.041
    1PSM   H11A   18   2.944   3.510   7.111
    1PSM   H11B   19   3.110   3.571   7.073
    1PSM      P   20   2.970   3.678   6.873
    1PSM    O13   21   2.865   3.751   6.946
    1PSM    O14   22   3.107   3.733   6.871
    1PSM    O11   23   2.918   3.645   6.729
    1PSM    O12   24   2.980   3.527   6.913
    1PSM    C1S   25   3.014   3.667   6.630
    1PSM    H1S   26   2.959   3.691   6.539
    1PSM    H1T   27   3.083   3.753   6.652
    1PSM     NF   28   3.167   3.603   6.490
    1PSM    HNF   29   3.165   3.622   6.391
    1PSM    C2S   30   3.070   3.551   6.559
    1PSM    H2S   31   3.119   3.486   6.629
    1PSM    C3S   32   2.973   3.491   6.464
    1PSM    H3S   33   2.949   3.564   6.386
    1PSM     O3   34   2.852   3.469   6.529
    1PSM    HO3   35   2.859   3.532   6.603
    1PSM    C4S   36   3.028   3.372   6.401
    1PSM    H4S   37   3.106   3.325   6.462
    1PSM    C5S   38   3.008   3.336   6.273
    1PSM    H5S   39   2.959   3.395   6.196
    1PSM    C6S   40   3.060   3.215   6.212
    1PSM    H6S   41   3.131   3.163   6.282
    1PSM    H6T   42   2.976   3.150   6.188
    1PSM    C7S   43   3.108   3.231   6.071
    1PSM    H7S   44   3.198   3.208   6.117
    1PSM    H7T   45   3.129   3.145   6.007
    1PSM    C8S   46   3.095   3.356   5.987
    1PSM    H8S   47   3.090   3.456   6.026
    1PSM    H8T   48   3.171   3.377   5.908
    1PSM    C9S   49   3.021   3.310   5.879
    1PSM    H9S   50   3.081   3.224   5.834
    1PSM    H9T   51   2.922   3.277   5.915
    1PSM   C10S   52   3.020   3.418   5.782
    1PSM   H10S   53   2.955   3.500   5.823
    1PSM   H10T   54   3.114   3.469   5.750
    1PSM   C11S   55   2.967   3.318   5.688
    1PSM   H11S   56   2.872   3.264   5.698
    1PSM   H11T   57   2.900   3.392   5.695
    1PSM   C12S   58   3.046   3.285   5.565
    1PSM   H12S   59   3.138   3.233   5.597
    1PSM   H12T   60   2.979   3.216   5.510
    1PSM   C13S   61   3.089   3.393   5.469
    1PSM   H13S   62   3.013   3.436   5.405
    1PSM   H13T   63   3.148   3.477   5.511
    1PSM   C14S   64   3.148   3.346   5.346
    1PSM   H14S   65   3.153   3.424   5.267
    1PSM   H14T   66   3.236   3.343   5.403
    1PSM   C15S   67   3.144   3.209   5.299
    1PSM   H15S   68   3.172   3.137   5.377
    1PSM   H15T   69   3.038   3.193   5.273
    1PSM   C16S   70   3.237   3.200   5.179
    1PSM   H16S   71   3.183   3.107   5.150
    1PSM   H16T   72   3.216   3.274   5.100
    1PSM   C17S   73   3.399   3.182   5.181
    1PSM   H17S   74   3.453   3.255   5.226
    1PSM   H17T   75   3.421   3.097   5.245
    1PSM   C18S   76   3.498   3.187   5.055
    1PSM   H18S   77   3.595   3.235   5.078
    1PSM   H18T   78   3.532   3.087   5.025
    1PSM   H18U   79   3.454   3.233   4.967
    1PSM    C1F   80   3.263   3.661   6.535
    1PSM     OF   81   3.302   3.674   6.648
    1PSM    C2F   82   3.315   3.706   6.418
    1PSM    H2F   83   3.320   3.788   6.478
    1PSM    H2G   84   3.313   3.781   6.339
    1PSM    C3F   85   3.379   3.584   6.402
    1PSM    H3F   86   3.449   3.522   6.464
    1PSM    H3G   87   3.478   3.624   6.417
    1PSM    C4F   88   3.309   3.548   6.260
    1PSM    H4F   89   3.224   3.485   6.278
    1PSM    H4G   90   3.395   3.486   6.274
    1PSM    C5F   91   3.307   3.622   6.102
    1PSM    H5F   92   3.255   3.710   6.136
    1PSM    H5G   93   3.255   3.565   6.022
    1PSM    C6F   94   3.398   3.726   6.019
    1PSM    H6F   95   3.435   3.642   5.961
    1PSM    H6G   96   3.440   3.813   6.063
    1PSM    C7F   97   3.421   3.808   5.888
    1PSM    H7F   98   3.519   3.862   5.881
    1PSM    H7G   99   3.352   3.895   5.895
    1PSM    C8F  100   3.433   3.725   5.763
    1PSM    H8F  101   3.348   3.653   5.771
    1PSM    H8G  102   3.520   3.658   5.754
    1PSM    C9F  103   3.423   3.828   5.651
    1PSM    H9F  104   3.518   3.880   5.631
    1PSM    H9G  105   3.352   3.910   5.680
    1PSM   C10F  106   3.370   3.758   5.531
    1PSM   H10F  107   3.303   3.677   5.564
    1PSM   H10G  108   3.451   3.699   5.484
    1PSM   C11F  109   3.302   3.851   5.434
    1PSM   H11F  110   3.350   3.949   5.420
    1PSM   H11G  111   3.201   3.879   5.463
    1PSM   C12F  112   3.302   3.781   5.303
    1PSM   H12F  113   3.282   3.674   5.313
    1PSM   H12G  114   3.397   3.792   5.251
    1PSM   C13F  115   3.199   3.825   5.212
    1PSM   H13F  116   3.229   3.928   5.193
    1PSM   H13G  117   3.099   3.862   5.234
    1PSM   C14F  118   3.173   3.719   5.108
    1PSM   H14F  119   3.142   3.614   5.127
    1PSM   H14G  120   3.257   3.698   5.041
    1PSM   C15F  121   3.069   3.793   5.037
    1PSM   H15F  122   2.982   3.844   5.086
    1PSM   H15G  123   3.043   3.757   4.940
    1PSM   C16F  124   3.142   3.880   4.973
    1PSM   H16F  125   3.228   3.910   5.016
    1PSM   H16G  126   3.188   3.825   4.886
    1PSM   H16H  127   3.096   3.977   4.967
  10.00000  10.00000  10.00000
