Split from step5_input.gro (molecule=SAPC)
140
    1SAPC     N    1   0.098   0.300   6.773
    1SAPC   C12    2   0.223   0.232   6.778
    1SAPC  H12A    3   0.299   0.310   6.765
    1SAPC  H12B    4   0.234   0.170   6.689
    1SAPC   C13    5   0.043   0.372   6.890
    1SAPC  H13A    6   0.032   0.300   6.969
    1SAPC  H13B    7   0.113   0.451   6.913
    1SAPC  H13C    8  -0.052   0.423   6.871
    1SAPC   C14    9   0.150   0.419   6.690
    1SAPC  H14A   10   0.193   0.422   6.588
    1SAPC  H14B   11   0.082   0.388   6.624
    1SAPC  H14C   12   0.099   0.512   6.712
    1SAPC   C15   13  -0.002   0.185   6.747
    1SAPC  H15A   14   0.002   0.137   6.649
    1SAPC  H15B   15   0.005   0.102   6.817
    1SAPC  H15C   16  -0.107   0.214   6.749
    1SAPC   C11   17   0.242   0.156   6.905
    1SAPC  H11A   18   0.228   0.226   6.989
    1SAPC  H11B   19   0.351   0.131   6.897
    1SAPC     P   20   0.214  -0.096   6.891
    1SAPC   O13   21   0.336  -0.111   6.971
    1SAPC   O14   22   0.117  -0.208   6.889
    1SAPC   O12   23   0.150   0.044   6.920
    1SAPC   O11   24   0.257  -0.070   6.745
    1SAPC    C1   25   0.317  -0.178   6.677
    1SAPC    HA   26   0.421  -0.150   6.646
    1SAPC    HB   27   0.324  -0.276   6.728
    1SAPC    C2   28   0.228  -0.205   6.560
    1SAPC    HS   29   0.284  -0.284   6.505
    1SAPC   O21   30   0.199  -0.085   6.493
    1SAPC   C21   31   0.296  -0.070   6.415
    1SAPC   O22   32   0.401  -0.125   6.419
    1SAPC   C22   33   0.279   0.036   6.327
    1SAPC   H2R   34   0.190   0.081   6.371
    1SAPC   H2S   35   0.320   0.111   6.390
    1SAPC    C3   36   0.090  -0.261   6.573
    1SAPC    HX   37   0.035  -0.207   6.652
    1SAPC    HY   38   0.118  -0.365   6.604
    1SAPC   O31   39   0.038  -0.246   6.436
    1SAPC   C31   40  -0.081  -0.244   6.389
    1SAPC   O32   41  -0.184  -0.227   6.454
    1SAPC   C32   42  -0.078  -0.302   6.241
    1SAPC   H2X   43  -0.143  -0.391   6.228
    1SAPC   H2Y   44   0.020  -0.316   6.197
    1SAPC   C23   45   0.334   0.037   6.160
    1SAPC   H3R   46   0.282  -0.058   6.180
    1SAPC   H3S   47   0.434   0.021   6.154
    1SAPC   C24   48   0.304   0.146   5.996
    1SAPC   H4R   49   0.215   0.206   5.960
    1SAPC   H4S   50   0.228   0.123   5.911
    1SAPC   C25   51   0.387   0.189   5.919
    1SAPC   H5R   52   0.420   0.252   5.999
    1SAPC   C26   53   0.421   0.164   5.794
    1SAPC   H6R   54   0.507   0.215   5.767
    1SAPC   C27   55   0.391   0.081   5.676
    1SAPC   H7R   56   0.427  -0.020   5.684
    1SAPC   H7S   57   0.485   0.094   5.639
    1SAPC   C28   58   0.262   0.039   5.613
    1SAPC   H8R   59   0.190  -0.021   5.666
    1SAPC   C29   60   0.214   0.105   5.517
    1SAPC   H9R   61   0.107   0.112   5.507
    1SAPC  C210   62   0.293   0.217   5.480
    1SAPC  H10R   63   0.392   0.250   5.513
    1SAPC  H10S   64   0.367   0.154   5.431
    1SAPC  C211   65   0.209   0.312   5.404
    1SAPC  H11R   66   0.145   0.386   5.456
    1SAPC  C212   67   0.258   0.339   5.286
    1SAPC  H12R   68   0.214   0.423   5.230
    1SAPC  C213   69   0.383   0.278   5.231
    1SAPC  H13R   70   0.450   0.216   5.291
    1SAPC  H13S   71   0.449   0.360   5.222
    1SAPC  C214   72   0.359   0.216   5.102
    1SAPC  H14R   73   0.324   0.287   5.026
    1SAPC  C215   74   0.361   0.086   5.077
    1SAPC  H15R   75   0.331   0.056   4.976
    1SAPC  C216   76   0.388  -0.024   5.175
    1SAPC  H16R   77   0.292  -0.075   5.202
    1SAPC  H16S   78   0.434   0.011   5.270
    1SAPC  C217   79   0.482  -0.123   5.111
    1SAPC  H17R   80   0.511  -0.197   5.189
    1SAPC  H17S   81   0.574  -0.073   5.073
    1SAPC  C218   82   0.424  -0.203   4.994
    1SAPC  H18R   83   0.416  -0.136   4.904
    1SAPC  H18S   84   0.321  -0.236   5.018
    1SAPC  C219   85   0.526  -0.320   4.980
    1SAPC  H19R   86   0.482  -0.408   5.031
    1SAPC  H19S   87   0.621  -0.288   5.026
    1SAPC  C220   88   0.573  -0.359   4.844
    1SAPC  H20R   89   0.483  -0.417   4.825
    1SAPC  H20S   90   0.629  -0.444   4.806
    1SAPC  H20T   91   0.591  -0.269   4.783
    1SAPC   C33   92  -0.159  -0.235   6.145
    1SAPC   H3X   93  -0.132  -0.141   6.126
    1SAPC   H3Y   94  -0.251  -0.218   6.200
    1SAPC   C34   95  -0.176  -0.266   6.003
    1SAPC   H4X   96  -0.236  -0.174   5.997
    1SAPC   H4Y   97  -0.217  -0.365   5.987
    1SAPC   C35   98  -0.115  -0.202   5.889
    1SAPC   H5X   99  -0.031  -0.223   5.956
    1SAPC   H5Y  100  -0.116  -0.094   5.871
    1SAPC   C36  101  -0.163  -0.280   5.772
    1SAPC   H6X  102  -0.261  -0.250   5.738
    1SAPC   H6Y  103  -0.171  -0.388   5.803
    1SAPC   C37  104  -0.056  -0.256   5.670
    1SAPC   H7X  105  -0.011  -0.324   5.727
    1SAPC   H7Y  106   0.018  -0.175   5.679
    1SAPC   C38  107  -0.036  -0.348   5.556
    1SAPC   H8X  108  -0.050  -0.459   5.573
    1SAPC   H8Y  109   0.062  -0.323   5.510
    1SAPC   C39  110  -0.124  -0.291   5.466
    1SAPC   H9X  111  -0.211  -0.272   5.532
    1SAPC   H9Y  112  -0.162  -0.377   5.410
    1SAPC  C310  113  -0.055  -0.166   5.400
    1SAPC  H10X  114   0.031  -0.201   5.338
    1SAPC  H10Y  115  -0.016  -0.091   5.470
    1SAPC  C311  116  -0.148  -0.087   5.310
    1SAPC  H11X  117  -0.217  -0.036   5.379
    1SAPC  H11Y  118  -0.207  -0.147   5.240
    1SAPC  C312  119  -0.102  -0.004   5.200
    1SAPC  H12X  120  -0.049   0.073   5.255
    1SAPC  H12Y  121  -0.193   0.034   5.150
    1SAPC  C313  122  -0.044  -0.074   5.082
    1SAPC  H13X  123  -0.125  -0.147   5.055
    1SAPC  H13Y  124   0.055  -0.115   5.107
    1SAPC  C314  125  -0.050  -0.002   4.953
    1SAPC  H14X  126  -0.066   0.101   4.957
    1SAPC  H14Y  127  -0.155  -0.009   4.920
    1SAPC  C315  128   0.078  -0.024   4.867
    1SAPC  H15X  129   0.066  -0.123   4.820
    1SAPC  H15Y  130   0.165  -0.054   4.926
    1SAPC  C316  131   0.109   0.095   4.767
    1SAPC  H16X  132   0.163   0.173   4.825
    1SAPC  H16Y  133   0.019   0.142   4.719
    1SAPC  C317  134   0.200   0.072   4.650
    1SAPC  H17X  135   0.163  -0.009   4.584
    1SAPC  H17Y  136   0.286   0.034   4.710
    1SAPC  C318  137   0.237   0.199   4.567
    1SAPC  H18X  138   0.153   0.250   4.518
    1SAPC  H18Y  139   0.306   0.174   4.483
    1SAPC  H18Z  140   0.293   0.271   4.631
  10.00000  10.00000  10.00000
