Split from step5_input.gro (molecule=SDPC)
142
    1SDPC     N    1   2.060   2.443   7.059
    1SDPC   C12    2   1.927   2.497   7.008
    1SDPC  H12A    3   1.848   2.429   7.038
    1SDPC  H12B    4   1.907   2.593   7.056
    1SDPC   C13    5   2.048   2.387   7.195
    1SDPC  H13A    6   1.995   2.454   7.260
    1SDPC  H13B    7   1.998   2.291   7.197
    1SDPC  H13C    8   2.148   2.376   7.237
    1SDPC   C14    9   2.115   2.335   6.973
    1SDPC  H14A   10   2.222   2.323   6.990
    1SDPC  H14B   11   2.106   2.362   6.866
    1SDPC  H14C   12   2.068   2.241   6.992
    1SDPC   C15   13   2.160   2.556   7.060
    1SDPC  H15A   14   2.261   2.520   7.079
    1SDPC  H15B   15   2.165   2.601   6.960
    1SDPC  H15C   16   2.134   2.635   7.129
    1SDPC   C11   17   1.912   2.525   6.855
    1SDPC  H11A   18   1.822   2.587   6.840
    1SDPC  H11B   19   1.895   2.428   6.802
    1SDPC     P   20   2.094   2.555   6.668
    1SDPC   O13   21   2.134   2.414   6.685
    1SDPC   O14   22   2.194   2.654   6.628
    1SDPC   O12   23   2.023   2.598   6.803
    1SDPC   O11   24   1.976   2.558   6.563
    1SDPC    C1   25   1.893   2.672   6.543
    1SDPC    HA   26   1.797   2.657   6.597
    1SDPC    HB   27   1.939   2.767   6.580
    1SDPC    C2   28   1.864   2.692   6.392
    1SDPC    HS   29   1.795   2.780   6.381
    1SDPC   O21   30   1.805   2.576   6.334
    1SDPC   C21   31   1.679   2.558   6.358
    1SDPC   O22   32   1.609   2.618   6.437
    1SDPC   C22   33   1.630   2.446   6.268
    1SDPC   H2R   34   1.530   2.414   6.303
    1SDPC   H2S   35   1.621   2.487   6.165
    1SDPC    C3   36   1.992   2.724   6.311
    1SDPC    HX   37   2.077   2.670   6.360
    1SDPC    HY   38   2.012   2.833   6.315
    1SDPC   O31   39   1.975   2.679   6.174
    1SDPC   C31   40   2.082   2.689   6.098
    1SDPC   O32   41   2.188   2.740   6.128
    1SDPC   C32   42   2.048   2.622   5.965
    1SDPC   H2X   43   2.009   2.521   5.988
    1SDPC   H2Y   44   1.965   2.682   5.922
    1SDPC   C23   45   1.732   2.331   6.266
    1SDPC   H3R   46   1.763   2.292   6.365
    1SDPC   H3S   47   1.822   2.369   6.215
    1SDPC   C24   48   1.659   2.233   6.182
    1SDPC   H4R   49   1.595   2.162   6.239
    1SDPC   C25   50   1.694   2.204   6.057
    1SDPC   H5R   51   1.628   2.130   6.006
    1SDPC   C26   52   1.809   2.255   5.971
    1SDPC   H6R   53   1.785   2.358   5.939
    1SDPC   H6S   54   1.801   2.197   5.876
    1SDPC   C27   55   1.954   2.248   6.033
    1SDPC   H7R   56   1.970   2.328   6.104
    1SDPC   C28   57   2.068   2.169   6.020
    1SDPC   H8R   58   2.162   2.191   6.069
    1SDPC   C29   59   2.094   2.054   5.934
    1SDPC   H9R   60   2.023   1.980   5.949
    1SDPC   H9S   61   2.039   2.098   5.855
    1SDPC  C210   62   2.211   1.962   5.900
    1SDPC  H10R   63   2.193   1.858   5.938
    1SDPC  C211   64   2.293   1.973   5.790
    1SDPC  H11R   65   2.350   1.882   5.765
    1SDPC  C212   66   2.284   2.084   5.681
    1SDPC  H12R   67   2.385   2.126   5.692
    1SDPC  H12S   68   2.210   2.157   5.717
    1SDPC  C213   69   2.263   2.086   5.526
    1SDPC  H13R   70   2.343   2.029   5.476
    1SDPC  C214   71   2.163   2.130   5.440
    1SDPC  H14R   72   2.170   2.083   5.340
    1SDPC  C215   73   2.024   2.199   5.465
    1SDPC  H15R   74   2.026   2.286   5.398
    1SDPC  H15S   75   2.036   2.232   5.569
    1SDPC  C216   76   1.878   2.138   5.462
    1SDPC  H16R   77   1.845   2.074   5.544
    1SDPC  C217   78   1.775   2.138   5.380
    1SDPC  H17R   79   1.701   2.055   5.391
    1SDPC  C218   80   1.777   2.207   5.252
    1SDPC  H18R   81   1.815   2.307   5.275
    1SDPC  H18S   82   1.674   2.206   5.213
    1SDPC  C219   83   1.872   2.135   5.166
    1SDPC  H19R   84   1.845   2.028   5.156
    1SDPC  C220   85   1.982   2.183   5.107
    1SDPC  H20R   86   2.058   2.116   5.069
    1SDPC  C221   87   2.047   2.314   5.103
    1SDPC  H21R   88   1.990   2.387   5.161
    1SDPC  H21S   89   2.146   2.296   5.150
    1SDPC  C222   90   2.067   2.356   4.957
    1SDPC  H22R   91   2.132   2.286   4.899
    1SDPC  H22S   92   2.117   2.455   4.957
    1SDPC  H22T   93   1.970   2.364   4.903
    1SDPC   C33   94   2.166   2.613   5.865
    1SDPC   H3X   95   2.247   2.550   5.906
    1SDPC   H3Y   96   2.206   2.716   5.850
    1SDPC   C34   97   2.128   2.557   5.726
    1SDPC   H4X   98   2.215   2.570   5.657
    1SDPC   H4Y   99   2.107   2.448   5.732
    1SDPC   C35  100   2.006   2.623   5.663
    1SDPC   H5X  101   2.023   2.732   5.652
    1SDPC   H5Y  102   1.916   2.608   5.727
    1SDPC   C36  103   1.978   2.561   5.527
    1SDPC   H6X  104   2.074   2.549   5.472
    1SDPC   H6Y  105   1.935   2.458   5.540
    1SDPC   C37  106   1.886   2.645   5.440
    1SDPC   H7X  107   1.783   2.647   5.482
    1SDPC   H7Y  108   1.924   2.750   5.438
    1SDPC   C38  109   1.887   2.589   5.299
    1SDPC   H8X  110   1.991   2.564   5.268
    1SDPC   H8Y  111   1.824   2.499   5.293
    1SDPC   C39  112   1.833   2.681   5.194
    1SDPC   H9X  113   1.727   2.694   5.215
    1SDPC   H9Y  114   1.883   2.781   5.208
    1SDPC  C310  115   1.845   2.612   5.057
    1SDPC  H10X  116   1.949   2.577   5.045
    1SDPC  H10Y  117   1.778   2.527   5.045
    1SDPC  C311  118   1.811   2.696   4.942
    1SDPC  H11X  119   1.715   2.749   4.968
    1SDPC  H11Y  120   1.802   2.662   4.836
    1SDPC  C312  121   1.926   2.787   4.950
    1SDPC  H12X  122   1.885   2.852   4.878
    1SDPC  H12Y  123   1.891   2.851   5.031
    1SDPC  C313  124   2.088   2.750   4.940
    1SDPC  H13X  125   2.077   2.686   4.848
    1SDPC  H13Y  126   2.115   2.688   5.026
    1SDPC  C314  127   2.230   2.842   4.920
    1SDPC  H14X  128   2.286   2.875   5.009
    1SDPC  H14Y  129   2.239   2.941   4.869
    1SDPC  C315  130   2.324   2.797   4.824
    1SDPC  H15X  131   2.270   2.805   4.735
    1SDPC  H15Y  132   2.414   2.862   4.802
    1SDPC  C316  133   2.318   2.658   4.880
    1SDPC  H16X  134   2.232   2.597   4.856
    1SDPC  H16Y  135   2.351   2.673   4.987
    1SDPC  C317  136   2.397   2.552   4.826
    1SDPC  H17X  137   2.468   2.527   4.904
    1SDPC  H17Y  138   2.434   2.644   4.780
    1SDPC  C318  139   2.371   2.432   4.725
    1SDPC  H18X  140   2.283   2.373   4.743
    1SDPC  H18Y  141   2.462   2.388   4.682
    1SDPC  H18Z  142   2.362   2.442   4.616
  10.00000  10.00000  10.00000
