Split from step5_input.gro (molecule=SSM)
133
    1SSM      N    1   1.561   3.238   7.123
    1SSM    C15    2   1.618   3.339   7.218
    1SSM   H15A    3   1.663   3.422   7.163
    1SSM   H15B    4   1.695   3.294   7.278
    1SSM   H15C    5   1.542   3.378   7.283
    1SSM    C14    6   1.517   3.121   7.206
    1SSM   H14A    7   1.516   3.031   7.145
    1SSM   H14B    8   1.416   3.136   7.244
    1SSM   H14C    9   1.582   3.107   7.291
    1SSM    C13   10   1.440   3.293   7.057
    1SSM   H13A   11   1.398   3.220   6.987
    1SSM   H13B   12   1.462   3.382   7.000
    1SSM   H13C   13   1.364   3.313   7.131
    1SSM    C12   14   1.671   3.198   7.025
    1SSM   H12A   15   1.759   3.172   7.082
    1SSM   H12B   16   1.696   3.284   6.963
    1SSM    C11   17   1.647   3.084   6.923
    1SSM   H11A   18   1.608   2.994   6.974
    1SSM   H11B   19   1.745   3.056   6.877
    1SSM      P   20   1.511   3.044   6.700
    1SSM    O13   21   1.560   2.906   6.720
    1SSM    O14   22   1.365   3.063   6.679
    1SSM    O11   23   1.588   3.117   6.582
    1SSM    O12   24   1.556   3.131   6.825
    1SSM    C1S   25   1.588   3.261   6.574
    1SSM    H1S   26   1.681   3.299   6.622
    1SSM    H1T   27   1.503   3.309   6.628
    1SSM     NF   28   1.455   3.332   6.370
    1SSM    HNF   29   1.438   3.280   6.288
    1SSM    C2S   30   1.587   3.315   6.428
    1SSM    H2S   31   1.632   3.418   6.432
    1SSM    C3S   32   1.672   3.222   6.339
    1SSM    H3S   33   1.618   3.130   6.310
    1SSM     O3   34   1.800   3.188   6.391
    1SSM    HO3   35   1.798   3.223   6.481
    1SSM    C4S   36   1.685   3.297   6.214
    1SSM    H4S   37   1.640   3.260   6.122
    1SSM    C5S   38   1.751   3.409   6.208
    1SSM    H5S   39   1.806   3.454   6.293
    1SSM    C6S   40   1.752   3.471   6.079
    1SSM    H6S   41   1.841   3.433   6.029
    1SSM    H6T   42   1.756   3.573   6.116
    1SSM    C7S   43   1.637   3.503   5.989
    1SSM    H7S   44   1.571   3.577   6.038
    1SSM    H7T   45   1.592   3.404   5.968
    1SSM    C8S   46   1.683   3.564   5.860
    1SSM    H8S   47   1.768   3.499   5.846
    1SSM    H8T   48   1.726   3.667   5.866
    1SSM    C9S   49   1.576   3.555   5.753
    1SSM    H9S   50   1.607   3.608   5.662
    1SSM    H9T   51   1.498   3.622   5.797
    1SSM   C10S   52   1.507   3.417   5.725
    1SSM   H10S   53   1.421   3.439   5.659
    1SSM   H10T   54   1.463   3.389   5.824
    1SSM   C11S   55   1.578   3.285   5.676
    1SSM   H11S   56   1.520   3.204   5.728
    1SSM   H11T   57   1.680   3.276   5.717
    1SSM   C12S   58   1.563   3.232   5.527
    1SSM   H12S   59   1.457   3.238   5.495
    1SSM   H12T   60   1.612   3.134   5.514
    1SSM   C13S   61   1.637   3.316   5.429
    1SSM   H13S   62   1.724   3.315   5.498
    1SSM   H13T   63   1.573   3.408   5.430
    1SSM   C14S   64   1.695   3.292   5.284
    1SSM   H14S   65   1.602   3.275   5.228
    1SSM   H14T   66   1.767   3.208   5.287
    1SSM   C15S   67   1.761   3.406   5.196
    1SSM   H15S   68   1.853   3.457   5.232
    1SSM   H15T   69   1.685   3.486   5.184
    1SSM   C16S   70   1.802   3.376   5.057
    1SSM   H16S   71   1.714   3.365   4.992
    1SSM   H16T   72   1.875   3.291   5.059
    1SSM   C17S   73   1.877   3.489   4.996
    1SSM   H17S   74   1.970   3.474   5.056
    1SSM   H17T   75   1.848   3.595   5.015
    1SSM   C18S   76   1.896   3.455   4.847
    1SSM   H18S   77   1.801   3.428   4.804
    1SSM   H18T   78   1.977   3.379   4.838
    1SSM   H18U   79   1.933   3.537   4.781
    1SSM    C1F   80   1.359   3.406   6.422
    1SSM     OF   81   1.370   3.470   6.526
    1SSM    C2F   82   1.231   3.397   6.351
    1SSM    H2F   83   1.160   3.472   6.393
    1SSM    H2G   84   1.196   3.292   6.368
    1SSM    C3F   85   1.238   3.411   6.198
    1SSM    H3F   86   1.314   3.346   6.153
    1SSM    H3G   87   1.258   3.519   6.180
    1SSM    C4F   88   1.102   3.381   6.141
    1SSM    H4F   89   1.079   3.426   6.041
    1SSM    H4G   90   1.048   3.436   6.218
    1SSM    C5F   91   1.056   3.238   6.141
    1SSM    H5F   92   0.948   3.224   6.111
    1SSM    H5G   93   1.072   3.186   6.237
    1SSM    C6F   94   1.129   3.168   6.035
    1SSM    H6F   95   1.233   3.150   6.072
    1SSM    H6G   96   1.136   3.218   5.937
    1SSM    C7F   97   1.049   3.047   6.019
    1SSM    H7F   98   0.939   3.032   6.019
    1SSM    H7G   99   1.084   3.010   6.119
    1SSM    C8F  100   1.099   2.973   5.906
    1SSM    H8F  101   1.059   2.870   5.916
    1SSM    H8G  102   1.155   2.920   5.981
    1SSM    C9F  103   1.189   3.045   5.768
    1SSM    H9F  104   1.186   3.150   5.759
    1SSM    H9G  105   1.085   3.031   5.751
    1SSM   C10F  106   1.328   2.989   5.657
    1SSM   H10F  107   1.364   2.880   5.665
    1SSM   H10G  108   1.430   3.013   5.684
    1SSM   C11F  109   1.350   2.942   5.518
    1SSM   H11F  110   1.321   3.034   5.464
    1SSM   H11G  111   1.296   2.845   5.509
    1SSM   C12F  112   1.471   2.875   5.465
    1SSM   H12F  113   1.465   2.763   5.460
    1SSM   H12G  114   1.557   2.890   5.530
    1SSM   C13F  115   1.471   2.943   5.330
    1SSM   H13F  116   1.470   3.054   5.341
    1SSM   H13G  117   1.385   2.922   5.262
    1SSM   C14F  118   1.593   2.890   5.275
    1SSM   H14F  119   1.565   2.784   5.265
    1SSM   H14G  120   1.670   2.889   5.355
    1SSM   C15F  121   1.638   2.956   5.146
    1SSM   H15F  122   1.720   2.890   5.118
    1SSM   H15G  123   1.680   3.053   5.177
    1SSM   C16F  124   1.532   2.971   5.032
    1SSM   H16F  125   1.449   3.033   5.070
    1SSM   H16G  126   1.488   2.874   5.008
    1SSM   C17F  127   1.574   3.031   4.895
    1SSM   H17F  128   1.632   3.124   4.914
    1SSM   H17G  129   1.484   3.050   4.833
    1SSM   C18F  130   1.662   2.939   4.815
    1SSM   H18F  131   1.628   2.835   4.793
    1SSM   H18G  132   1.728   2.933   4.901
    1SSM   H18H  133   1.729   2.979   4.735
  10.00000  10.00000  10.00000
