Grunge ROck MAChoS
    9
    1ETO     C1    1   0.044   0.031   0.000
    1ETO     O1    2   0.131  -0.081   0.000
    1ETO    HO1    3   0.220  -0.046  -0.000
    1ETO    H11    4   0.065   0.092   0.090
    1ETO    H12    5   0.065   0.092  -0.090
    1ETO     C2    6  -0.103  -0.014  -0.000
    1ETO    H21    7  -0.170   0.075   0.000
    1ETO    H22    8  -0.125  -0.075   0.090
    1ETO    H23    9  -0.125  -0.075  -0.090
   0.00000   0.00000   0.00000
