Cyclohexane box
 1911
    1CHEX    R1    1   1.683   3.035   4.958  0.2514 -0.0253 -0.2184
    1CHEX    R2    2   1.672   3.084   4.682  0.2578  0.0644  0.1979
    1CHEX    R3    3   1.458   3.200   4.817  0.0876  0.1148 -0.5940
    2CHEX    R1    4   3.002   3.305   0.573 -0.1613  0.0123  0.1118
    2CHEX    R2    5   3.246   3.466   0.532 -0.2964 -0.2703  0.4333
    2CHEX    R3    6   3.159   3.354   0.290  0.0421  0.2124 -0.0280
    3CHEX    R1    7   1.304   3.590   1.835 -0.1965 -0.3296  0.1381
    3CHEX    R2    8   1.284   3.870   1.714 -0.1118  0.3179 -0.0097
    3CHEX    R3    9   1.497   3.700   1.718  0.1844  0.0831  0.3266
    4CHEX    R1   10   1.613   1.724   2.312  0.0581  0.2127 -0.2312
    4CHEX    R2   11   1.495   1.904   2.529  0.2799  0.0095 -0.3178
    4CHEX    R3   12   1.730   1.801   2.599  0.1728 -0.0015  0.0462
    5CHEX    R1   13   3.494   0.142   1.612 -0.3292 -0.1037 -0.0235
    5CHEX    R2   14   3.545  -0.064   1.382 -0.0079 -0.0750  0.0572
    5CHEX    R3   15   3.284  -0.000   1.520 -0.1188 -0.0392 -0.1629
    6CHEX    R1   16   0.808   3.257   2.804  0.3219  0.2099  0.0400
    6CHEX    R2   17   1.002   3.259   3.013  0.1550 -0.1386  0.1017
    6CHEX    R3   18   0.856   3.009   2.957 -0.2718  0.2534 -0.0138
    7CHEX    R1   19   2.308   1.324   1.180 -0.0495  0.1077  0.1238
    7CHEX    R2   20   2.342   1.038   1.069 -0.1307 -0.2125 -0.0345
    7CHEX    R3   21   2.079   1.112   1.145  0.1012 -0.0336  0.0153
    8CHEX    R1   22   4.791   4.273   4.153  0.4051 -0.4249 -0.1498
    8CHEX    R2   23   5.039   4.102   4.073 -0.2768  0.1143  0.3040
    8CHEX    R3   24   4.969   4.357   3.981  0.2535 -0.2605  0.5185
    9CHEX    R1   25   2.523   2.468   2.553  0.0709 -0.2207  0.1116
    9CHEX    R2   26   2.533   2.144   2.547 -0.1238 -0.0355 -0.3075
    9CHEX    R3   27   2.505   2.258   2.294 -0.0088 -0.0198  0.2897
   10CHEX    R1   28   2.076   4.257   1.606  0.1288 -0.3203  0.3538
   10CHEX    R2   29   2.306   4.482   1.553  0.1849 -0.0040 -0.1119
   10CHEX    R3   30   2.348   4.189   1.615  0.1330 -0.1529 -0.1192
   11CHEX    R1   31   0.164   3.468   4.514 -0.1659 -0.0664  0.1011
   11CHEX    R2   32   0.349   3.395   4.303  0.3609 -0.2050  0.1826
   11CHEX    R3   33   0.069   3.310   4.314  0.3014  0.0744  0.3196
   12CHEX    R1   34   4.938   1.720   3.482  0.0523 -0.1563  0.1661
   12CHEX    R2   35   4.997   1.685   3.768  0.2751 -0.1117  0.1518
   12CHEX    R3   36   4.679   1.721   3.649  0.0397  0.1233  0.4182
   13CHEX    R1   37   3.537   0.409   2.448 -0.0576  0.0107  0.0603
   13CHEX    R2   38   3.605   0.273   2.725 -0.0425 -0.4108 -0.0316
   13CHEX    R3   39   3.766   0.248   2.512 -0.2357  0.4712  0.2912
   14CHEX    R1   40   2.320   2.105   1.543  0.2890 -0.0260  0.1126
   14CHEX    R2   41   2.392   2.208   1.809 -0.2173 -0.1353 -0.0440
   14CHEX    R3   42   2.386   2.408   1.640  0.1611 -0.0851 -0.0411
   15CHEX    R1   43   1.638   0.662   4.233 -0.1990 -0.0115  0.0509
   15CHEX    R2   44   1.846   0.867   4.176 -0.0143 -0.1796  0.0191
   15CHEX    R3   45   1.690   0.876   4.399  0.0717  0.0782 -0.0138
   16CHEX    R1   46   0.149   3.689   2.288 -0.0544  0.3665 -0.4251
   16CHEX    R2   47   0.355   3.935   2.220  0.0815 -0.1437 -0.0612
   16CHEX    R3   48   0.035   3.941   2.307  0.1493  0.3518 -0.2311
   17CHEX    R1   49   0.946   0.234   3.711 -0.3644  0.0763  0.2891
   17CHEX    R2   50   0.669   0.328   3.698  0.1009 -0.0101 -0.4223
   17CHEX    R3   51   0.924   0.474   3.816 -0.0802 -0.0851 -0.3082
   18CHEX    R1   52   3.706   1.314   3.962  0.3394 -0.3184 -0.1656
   18CHEX    R2   53   3.484   1.379   4.174  0.0827 -0.3318  0.4161
   18CHEX    R3   54   3.764   1.385   4.229 -0.1053  0.1601 -0.1503
   19CHEX    R1   55   0.764   3.022   4.470  0.0162 -0.0592 -0.2697
   19CHEX    R2   56   0.852   2.813   4.384 -0.2198  0.0351  0.1050
   19CHEX    R3   57   0.635   3.013   4.216 -0.4973 -0.1040 -0.1439
   20CHEX    R1   58   0.175   0.003   2.702  0.0659 -0.1908  0.1079
   20CHEX    R2   59  -0.095   0.112   2.789 -0.3177 -0.1528  0.0993
   20CHEX    R3   60   0.028  -0.140   2.944  0.0182  0.1192 -0.2011
   21CHEX    R1   61   2.086   0.228   0.769  0.0686  0.4133  0.1609
   21CHEX    R2   62   1.971  -0.019   0.838 -0.2213  0.1007  0.2082
   21CHEX    R3   63   2.188  -0.030   0.633 -0.3508  0.4710 -0.0583
   22CHEX    R1   64   1.500   0.164   1.967  0.0652  0.1767  0.0696
   22CHEX    R2   65   1.258   0.064   2.121  0.2505 -0.0874 -0.0418
   22CHEX    R3   66   1.411  -0.116   1.988 -0.0407  0.0403 -0.4723
   23CHEX    R1   67   1.224   1.044   2.783 -0.2888  0.4621  0.3674
   23CHEX    R2   68   1.418   1.138   2.579 -0.0867  0.4679  0.1531
   23CHEX    R3   69   1.151   1.089   2.500  0.2056  0.0911  0.1342
   24CHEX    R1   70   0.545   1.339   3.290 -0.0794  0.0554  0.0206
   24CHEX    R2   71   0.321   1.453   3.169  0.5980  0.2352 -0.0047
   24CHEX    R3   72   0.340   1.388   3.477 -0.0139  0.0558  0.0701
   25CHEX    R1   73   2.526   1.455   4.678 -0.1433 -0.0932 -0.0831
   25CHEX    R2   74   2.380   1.244   4.631 -0.0354 -0.0345  0.0449
   25CHEX    R3   75   2.654   1.200   4.644 -0.2628  0.0693  0.1513
   26CHEX    R1   76   4.447   4.654   0.430 -0.2169 -0.2902 -0.5128
   26CHEX    R2   77   4.606   4.576   0.217  0.2305 -0.1587 -0.0049
   26CHEX    R3   78   4.484   4.853   0.213  0.1203 -0.5751  0.2336
   27CHEX    R1   79   1.237   3.593   3.286  0.0663  0.0291 -0.2604
   27CHEX    R2   80   1.508   3.520   3.407  0.0723  0.2434  0.1767
   27CHEX    R3   81   1.239   3.635   3.492 -0.1388 -0.0109 -0.0206
   28CHEX    R1   82   0.417   0.026   0.732  0.3065 -0.2765 -0.1062
   28CHEX    R2   83   0.292  -0.068   0.952 -0.0535  0.2939 -0.1695
   28CHEX    R3   84   0.151   0.099   0.745  0.0165  0.2696 -0.0257
   29CHEX    R1   85   2.226   4.195   1.157  0.2468  0.1674 -0.4408
   29CHEX    R2   86   2.276   4.044   0.939 -0.0396 -0.3475 -0.0838
   29CHEX    R3   87   2.303   3.965   1.228  0.1466 -0.3136 -0.1269
   30CHEX    R1   88   1.149   2.108   1.842  0.3337  0.2704  0.2082
   30CHEX    R2   89   1.094   1.845   1.823 -0.4172 -0.0584 -0.3966
   30CHEX    R3   90   1.374   1.939   1.795 -0.1330 -0.1146  0.1449
   31CHEX    R1   91   2.586   2.840   4.750 -0.0026 -0.1280  0.1226
   31CHEX    R2   92   2.611   2.711   4.978 -0.4106 -0.2170 -0.0270
   31CHEX    R3   93   2.424   2.629   4.822 -0.1380  0.0308 -0.0479
   32CHEX    R1   94   4.816   1.349   1.953 -0.0206  0.0361  0.1610
   32CHEX    R2   95   4.609   1.210   1.995  0.3002 -0.4516 -0.0470
   32CHEX    R3   96   4.828   1.063   1.825 -0.1468  0.0037  0.2536
   33CHEX    R1   97   2.534   3.143   0.335  0.0386 -0.4264  0.3661
   33CHEX    R2   98   2.730   3.208   0.162 -0.0829 -0.1577  0.0705
   33CHEX    R3   99   2.652   3.411   0.334 -0.5328  0.0121 -0.0426
   34CHEX    R1  100   0.097   0.436   3.574  0.2045  0.2244 -0.0424
   34CHEX    R2  101  -0.113   0.347   3.769  0.0848  0.2177  0.1912
   34CHEX    R3  102   0.165   0.270   3.782 -0.1698  0.2089  0.1963
   35CHEX    R1  103   1.568   1.398   3.172 -0.0605 -0.1507 -0.1537
   35CHEX    R2  104   1.297   1.265   3.172  0.0712 -0.2996  0.2381
   35CHEX    R3  105   1.526   1.133   3.062 -0.0756  0.0359 -0.0179
   36CHEX    R1  106   4.379   4.502   3.201  0.2470  0.1802 -0.0998
   36CHEX    R2  107   4.571   4.730   3.142  0.3850 -0.5393  0.1012
   36CHEX    R3  108   4.365   4.695   2.961 -0.2154  0.4124 -0.1024
   37CHEX    R1  109   4.886   2.131   3.185  0.0484  0.1952  0.2801
   37CHEX    R2  110   4.856   2.435   3.177 -0.3421  0.2567  0.1869
   37CHEX    R3  111   5.018   2.295   3.013 -0.1702  0.2035  0.2687
   38CHEX    R1  112   3.537   4.853   2.247  0.2018  0.2749 -0.5803
   38CHEX    R2  113   3.508   5.042   2.074  0.1399 -0.4399 -0.5266
   38CHEX    R3  114   3.701   4.808   1.998 -0.2333 -0.1652 -0.1225
   39CHEX    R1  115   2.692   3.612   1.950  0.1937  0.1098 -0.0976
   39CHEX    R2  116   2.537   3.844   1.881 -0.2361 -0.4803  0.2139
   39CHEX    R3  117   2.421   3.621   2.018 -0.1055  0.0347  0.0988
   40CHEX    R1  118   1.753   0.747   2.395  0.3333 -0.0693 -0.3818
   40CHEX    R2  119   1.484   0.780   2.319  0.4059  0.1048 -0.2439
   40CHEX    R3  120   1.632   0.960   2.171 -0.2796  0.0666 -0.2039
   41CHEX    R1  121   1.120   2.477   4.316 -0.2075  0.4357  0.0666
   41CHEX    R2  122   1.242   2.336   4.087  0.0110  0.1129  0.1053
   41CHEX    R3  123   0.985   2.240   4.249 -0.0098  0.1010  0.3690
   42CHEX    R1  124   0.543   3.800   4.944  0.2152 -0.1748  0.1879
   42CHEX    R2  125   0.317   3.962   4.832  0.0147 -0.1370  0.3858
   42CHEX    R3  126   0.246   3.812   5.048 -0.1704 -0.4836  0.3363
   43CHEX    R1  127   0.539   1.265   2.647 -0.1267  0.0535  0.1699
   43CHEX    R2  128   0.689   1.269   2.448 -0.0132 -0.0303 -0.1186
   43CHEX    R3  129   0.693   1.038   2.601 -0.2313 -0.2019  0.3337
   44CHEX    R1  130   3.089   4.002   3.371 -0.2721  0.3051 -0.2164
   44CHEX    R2  131   3.368   4.047   3.410  0.3116  0.0280 -0.4132
   44CHEX    R3  132   3.143   3.977   3.623 -0.0617 -0.1356  0.1516
   45CHEX    R1  133   2.039   1.204   0.716 -0.1586 -0.1933  0.0989
   45CHEX    R2  134   1.893   1.054   0.548 -0.5954 -0.1300 -0.0893
   45CHEX    R3  135   2.158   1.206   0.437  0.4299 -0.0741 -0.3507
   46CHEX    R1  136   2.327   4.056   2.562  0.1694  0.1761  0.1405
   46CHEX    R2  137   2.502   3.896   2.381  0.0438 -0.1532  0.1953
   46CHEX    R3  138   2.378   3.774   2.545  0.0147 -0.1452 -0.1041
   47CHEX    R1  139   2.638   4.347   0.812  0.0719 -0.0537  0.1780
   47CHEX    R2  140   2.869   4.545   0.850  0.2054  0.1079  0.1692
   47CHEX    R3  141   2.663   4.570   0.615  0.0889 -0.1990 -0.4725
   48CHEX    R1  142   4.439   1.479   1.652 -0.3608 -0.2377  0.0122
   48CHEX    R2  143   4.449   1.480   1.340  0.0666  0.1557  0.2823
   48CHEX    R3  144   4.488   1.234   1.496 -0.1574 -0.1518  0.2056
   49CHEX    R1  145   2.899   4.254   4.549  0.2398  0.6692  0.4743
   49CHEX    R2  146   3.116   4.305   4.392  0.0815  0.0605 -0.2788
   49CHEX    R3  147   3.020   4.453   4.670  0.3199 -0.0109  0.0055
   50CHEX    R1  148   0.536   3.476   2.423 -0.1049 -0.0680 -0.4807
   50CHEX    R2  149   0.336   3.417   2.625 -0.2097 -0.1326  0.2550
   50CHEX    R3  150   0.524   3.570   2.729  0.1482  0.0181 -0.2664
   51CHEX    R1  151   2.480   1.540   0.240 -0.4343 -0.1764 -0.6694
   51CHEX    R2  152   2.761   1.564   0.119 -0.0683  0.1730 -0.2246
   51CHEX    R3  153   2.600   1.312   0.115 -0.2253 -0.1242 -0.0709
   52CHEX    R1  154   4.134   3.154   2.206 -0.0178 -0.3578  0.2291
   52CHEX    R2  155   4.202   3.030   1.954 -0.0781 -0.1924  0.1218
   52CHEX    R3  156   4.103   2.897   2.121  0.0372  0.2340  0.0775
   53CHEX    R1  157   3.845   2.101   4.948  0.1077 -0.2371  0.3469
   53CHEX    R2  158   3.850   2.174   5.197 -0.0900  0.2086 -0.0088
   53CHEX    R3  159   3.622   2.228   5.096 -0.4497  0.0683  0.0003
   54CHEX    R1  160   0.483   4.419   2.532  0.1686  0.3389  0.1206
   54CHEX    R2  161   0.200   4.493   2.613  0.0498  0.1289  0.1086
   54CHEX    R3  162   0.360   4.661   2.417  0.2734  0.3917  0.0839
   55CHEX    R1  163   1.005   3.220   0.943 -0.3733 -0.2901  0.2125
   55CHEX    R2  164   1.053   2.942   1.066 -0.2872 -0.2622 -0.3393
   55CHEX    R3  165   0.842   3.103   1.107 -0.1538 -0.1869 -0.1628
   56CHEX    R1  166   2.135   3.754   0.115  0.2630 -0.2557 -0.2948
   56CHEX    R2  167   2.144   4.028   0.127 -0.0778 -0.4790 -0.0545
   56CHEX    R3  168   2.199   3.889  -0.117 -0.0256  0.0897  0.1992
   57CHEX    R1  169   4.792   4.871   3.672  0.0204  0.2262 -0.1337
   57CHEX    R2  170   4.892   4.873   3.449 -0.2421 -0.1956  0.2133
   57CHEX    R3  171   4.834   4.576   3.580  0.0428  0.1244 -0.0322
   58CHEX    R1  172   1.943   4.549   1.151  0.2403 -0.1535 -0.0536
   58CHEX    R2  173   1.761   4.702   1.320  0.1630 -0.0942  0.4090
   58CHEX    R3  174   1.753   4.478   1.378 -0.1280 -0.4567 -0.0556
   59CHEX    R1  175   3.098   4.932   2.421 -0.1341  0.4000 -0.5092
   59CHEX    R2  176   3.117   4.632   2.400 -0.0087 -0.0068  0.2316
   59CHEX    R3  177   2.863   4.775   2.388 -0.1481 -0.0317 -0.4388
   60CHEX    R1  178   4.362   3.967   3.047 -0.0819  0.0388  0.0056
   60CHEX    R2  179   4.313   3.792   2.882 -0.1224 -0.0524  0.2844
   60CHEX    R3  180   4.609   3.824   2.978  0.1090  0.2360 -0.0846
   61CHEX    R1  181   4.288   1.204   0.174 -0.2150  0.2560  0.1890
   61CHEX    R2  182   4.437   0.975   0.293  0.2967  0.5020  0.0963
   61CHEX    R3  183   4.577   1.210   0.134 -0.2477  0.0863 -0.0647
   62CHEX    R1  184   4.488   3.079   4.784  0.2769 -0.3376 -0.0941
   62CHEX    R2  185   4.723   3.170   4.635  0.3112  0.0527  0.1228
   62CHEX    R3  186   4.475   3.338   4.736 -0.0303 -0.2401  0.3127
   63CHEX    R1  187   4.712   2.546   0.819  0.2846 -0.0501 -0.1649
   63CHEX    R2  188   4.483   2.577   0.678  0.1583 -0.3202  0.1843
   63CHEX    R3  189   4.523   2.371   0.840  0.3241  0.2079 -0.1595
   64CHEX    R1  190   2.729   1.411   1.515  0.2228  0.4340  0.1229
   64CHEX    R2  191   2.845   1.158   1.697  0.0963  0.2112  0.1217
   64CHEX    R3  192   2.897   1.197   1.398 -0.0998  0.0510  0.0168
   65CHEX    R1  193   3.208   4.358   3.934 -0.4940 -0.4355  0.3630
   65CHEX    R2  194   3.487   4.292   3.846  0.0242 -0.0062 -0.3445
   65CHEX    R3  195   3.401   4.506   4.039 -0.2198 -0.0376 -0.2535
   66CHEX    R1  196   3.314   3.952   2.850  0.0462 -0.5361 -0.0343
   66CHEX    R2  197   3.317   4.178   2.657 -0.2734  0.0095  0.4834
   66CHEX    R3  198   3.442   4.190   2.941  0.2636  0.1343 -0.0354
   67CHEX    R1  199   4.079   4.267   2.930 -0.1891 -0.1816  0.1787
   67CHEX    R2  200   3.872   4.435   2.922  0.2599 -0.0771 -0.6282
   67CHEX    R3  201   3.837   4.221   2.760 -0.0990 -0.0284  0.0325
   68CHEX    R1  202   3.173   2.319   4.070  0.0125  0.2347 -0.1327
   68CHEX    R2  203   3.346   2.546   3.996  0.1458  0.2989 -0.2452
   68CHEX    R3  204   3.280   2.349   3.799  0.0804 -0.4573 -0.4078
   69CHEX    R1  205   0.480   2.516   0.462  0.1344 -0.4287  0.0415
   69CHEX    R2  206   0.299   2.275   0.370 -0.1174  0.1648  0.1973
   69CHEX    R3  207   0.405   2.461   0.188  0.2499  0.4291  0.0743
   70CHEX    R1  208   1.610   2.945   2.036  0.0650  0.1001  0.1037
   70CHEX    R2  209   1.731   3.065   1.860  0.0018  0.0086 -0.1514
   70CHEX    R3  210   1.456   3.102   1.874  0.0698  0.0575 -0.3766
   71CHEX    R1  211   0.286   1.445   2.255  0.1024 -0.5234  0.0276
   71CHEX    R2  212   0.341   1.587   2.455  0.1433  0.0581  0.0597
   71CHEX    R3  213   0.078   1.678   2.319 -0.1041  0.1993  0.1803
   72CHEX    R1  214   1.970   3.149   1.411 -0.1845 -0.4328  0.0019
   72CHEX    R2  215   2.166   3.131   1.607 -0.1960 -0.2779  0.0567
   72CHEX    R3  216   2.195   2.959   1.354  0.0571 -0.1755 -0.1076
   73CHEX    R1  217   0.003   3.995   3.261 -0.1148  0.0406 -0.0172
   73CHEX    R2  218   0.221   3.916   3.433  0.0660 -0.4517  0.2071
   73CHEX    R3  219   0.225   4.169   3.310  0.3809  0.1390 -0.3910
   74CHEX    R1  220   3.209   2.063   0.949  0.2286 -0.1803  0.2906
   74CHEX    R2  221   2.961   2.255   0.800 -0.1379 -0.0316 -0.0265
   74CHEX    R3  222   3.014   2.090   1.057  0.1900 -0.2764  0.1639
   75CHEX    R1  223   2.988   2.710   0.626 -0.0380  0.4080  0.2201
   75CHEX    R2  224   2.756   2.876   0.648  0.3882 -0.3646 -0.1017
   75CHEX    R3  225   2.947   2.899   0.394  0.0422  0.0715 -0.0803
   76CHEX    R1  226   2.197   0.611   4.022 -0.6520 -0.3083  0.0911
   76CHEX    R2  227   2.011   0.378   4.042 -0.4487  0.3305  0.1219
   76CHEX    R3  228   1.953   0.572   3.857  0.3429  0.0034  0.0323
   77CHEX    R1  229   0.088   2.301   4.313  0.2846 -0.0658  0.6042
   77CHEX    R2  230   0.149   2.433   4.592 -0.0083  0.3318 -0.0559
   77CHEX    R3  231   0.017   2.135   4.517 -0.1734 -0.2836  0.1499
   78CHEX    R1  232   1.759   1.920   3.978  0.1327  0.2535  0.5191
   78CHEX    R2  233   1.908   2.045   3.765  0.2159 -0.1411  0.1312
   78CHEX    R3  234   2.004   1.856   4.030  0.1389  0.0230 -0.0047
   79CHEX    R1  235   0.573   2.054   3.738 -0.0301 -0.0985  0.0213
   79CHEX    R2  236   0.563   1.808   3.885  0.2413 -0.1947 -0.0144
   79CHEX    R3  237   0.720   2.039   3.992  0.1968  0.0551  0.1528
   80CHEX    R1  238   1.188   1.492   3.951  0.1506 -0.0549  0.2178
   80CHEX    R2  239   1.416   1.630   4.051 -0.1765  0.1769 -0.0457
   80CHEX    R3  240   1.282   1.834   3.920  0.2663 -0.4935 -0.0744
   81CHEX    R1  241   3.668   4.152   1.158  0.1164 -0.3075  0.5287
   81CHEX    R2  242   3.807   4.192   0.903  0.0057  0.3057 -0.3110
   81CHEX    R3  243   3.749   3.918   0.981  0.0823 -0.0674 -0.2651
   82CHEX    R1  244   3.799   1.892   3.371 -0.0768 -0.0703 -0.1087
   82CHEX    R2  245   3.881   2.081   3.540  0.3725  0.0532  0.1137
   82CHEX    R3  246   3.590   2.051   3.456 -0.0520 -0.3078 -0.2004
   83CHEX    R1  247   4.328   0.331   2.102  0.1932  0.0852 -0.0868
   83CHEX    R2  248   4.103   0.177   2.199 -0.0241  0.1477  0.1242
   83CHEX    R3  249   4.349   0.049   2.069 -0.0728  0.2967 -0.0444
   84CHEX    R1  250   3.438   0.960   3.308 -0.2277 -0.1010  0.6513
   84CHEX    R2  251   3.177   0.877   3.232 -0.0829  0.0784  0.6372
   84CHEX    R3  252   3.353   0.697   3.368  0.2914 -0.1775 -0.0539
   85CHEX    R1  253   0.388   1.904   2.001  0.2265  0.0512  0.3745
   85CHEX    R2  254   0.469   2.065   2.221 -0.2392  0.2382 -0.0146
   85CHEX    R3  255   0.621   1.851   2.114 -0.2042 -0.3337 -0.0393
   86CHEX    R1  256   4.406   0.237   0.730 -0.0617  0.1525  0.0293
   86CHEX    R2  257   4.265  -0.038   0.759  0.0129  0.1261 -0.0170
   86CHEX    R3  258   4.554   0.016   0.701 -0.2045  0.2075  0.2543
   87CHEX    R1  259   2.372   3.535   3.134  0.1533  0.0884  0.1901
   87CHEX    R2  260   2.538   3.597   2.954 -0.0025  0.0440 -0.3682
   87CHEX    R3  261   2.397   3.423   2.850 -0.4832  0.1997 -0.0019
   88CHEX    R1  262   1.896   2.023   4.794 -0.2793 -0.0614 -0.0228
   88CHEX    R2  263   1.792   2.253   4.854  0.0132 -0.5748  0.0632
   88CHEX    R3  264   1.855   2.089   5.056  0.3328 -0.3423 -0.2152
   89CHEX    R1  265   4.894   1.243   3.537  0.3415 -0.0862 -0.0690
   89CHEX    R2  266   4.689   1.185   3.642  0.2355 -0.6006  0.0665
   89CHEX    R3  267   4.980   1.241   3.821 -0.3464 -0.3560 -0.2233
   90CHEX    R1  268   0.679   2.518   4.119 -0.1105  0.0780 -0.1500
   90CHEX    R2  269   0.491   2.586   4.252  0.2132  0.7627 -0.0876
   90CHEX    R3  270   0.462   2.390   4.023 -0.2061  0.1753  0.1409
   91CHEX    R1  271   1.333   1.411   4.629 -0.0423  0.0942 -0.1329
   91CHEX    R2  272   1.142   1.383   4.782 -0.0219  0.2415  0.1118
   91CHEX    R3  273   1.269   1.615   4.840  0.0277 -0.3980 -0.1778
   92CHEX    R1  274   1.209   1.830   3.118 -0.2618  0.2618 -0.1619
   92CHEX    R2  275   1.403   1.685   2.909 -0.1924 -0.2425  0.5042
   92CHEX    R3  276   1.135   1.798   2.827 -0.3444 -0.0694  0.4849
   93CHEX    R1  277   4.821   3.965   4.588 -0.2596  0.5199 -0.0713
   93CHEX    R2  278   4.769   3.703   4.751 -0.0372  0.2009 -0.0364
   93CHEX    R3  279   4.632   3.926   4.794 -0.1361  0.2359  0.4354
   94CHEX    R1  280   1.007   2.313   3.705 -0.1365 -0.1027  0.4324
   94CHEX    R2  281   0.884   2.252   3.443 -0.0876 -0.0498 -0.5727
   94CHEX    R3  282   0.761   2.476   3.618 -0.2710  0.0902 -0.1124
   95CHEX    R1  283   0.989   4.669   2.031  0.4063 -0.1792  0.0345
   95CHEX    R2  284   1.046   4.464   2.161  0.1759  0.0519 -0.1266
   95CHEX    R3  285   0.807   4.575   2.249  0.0561  0.1312 -0.0771
   96CHEX    R1  286   1.558   0.406   3.792  0.0546  0.6919  0.2457
   96CHEX    R2  287   1.490   0.408   3.527 -0.4730  0.1933  0.5634
   96CHEX    R3  288   1.371   0.201   3.643  0.0545 -0.0541 -0.1441
   97CHEX    R1  289   2.383   0.115   2.491 -0.0751  0.3707  0.1089
   97CHEX    R2  290   2.205   0.015   2.727 -0.0245  0.0730 -0.1307
   97CHEX    R3  291   2.537  -0.019   2.733  0.1580 -0.2403  0.2478
   98CHEX    R1  292   1.750   2.997   1.006 -0.5962  0.1142 -0.2184
   98CHEX    R2  293   1.531   3.227   0.964 -0.1898 -0.2817 -0.2688
   98CHEX    R3  294   1.659   3.164   0.775 -0.0188  0.0953  0.1531
   99CHEX    R1  295   4.429   0.560   1.201 -0.1511 -0.5430  0.1045
   99CHEX    R2  296   4.403   0.874   1.164 -0.4610  0.2149 -0.4612
   99CHEX    R3  297   4.176   0.701   1.155  0.1682  0.0933 -0.0631
  100CHEX    R1  298   2.416   1.641   3.998 -0.0639  0.2798 -0.1687
  100CHEX    R2  299   2.465   1.464   4.256 -0.1440 -0.5040 -0.0890
  100CHEX    R3  300   2.507   1.356   4.023  0.0042 -0.3650 -0.1350
  101CHEX    R1  301   3.444   0.822   2.827  0.0596  0.1540  0.1741
  101CHEX    R2  302   3.677   0.740   2.729 -0.1712 -0.3700  0.1094
  101CHEX    R3  303   3.596   1.044   2.833  0.3785 -0.1459  0.1128
  102CHEX    R1  304   3.188   1.240   2.856 -0.0001 -0.2859 -0.4206
  102CHEX    R2  305   3.299   1.395   2.644  0.0515 -0.2274 -0.3752
  102CHEX    R3  306   3.014   1.429   2.693 -0.4903 -0.0607  0.0485
  103CHEX    R1  307   0.679   0.148   4.155  0.0714  0.3376 -0.0665
  103CHEX    R2  308   0.423   0.022   4.324 -0.2604 -0.1135 -0.0238
  103CHEX    R3  309   0.423   0.241   4.127  0.1035  0.1106 -0.0645
  104CHEX    R1  310   4.436   0.632   4.705  0.2275  0.0667 -0.1994
  104CHEX    R2  311   4.261   0.819   4.847 -0.0101 -0.1397 -0.0159
  104CHEX    R3  312   4.468   0.603   4.950  0.0638  0.3164 -0.2634
  105CHEX    R1  313   2.980   1.798   0.533  0.4515  0.1985  0.0451
  105CHEX    R2  314   3.220   2.027   0.440  0.3742  0.4140  0.2450
  105CHEX    R3  315   2.992   1.894   0.285  0.2221 -0.0581 -0.3162
  106CHEX    R1  316   3.410   2.432   0.821 -0.0444 -0.4664  0.0007
  106CHEX    R2  317   3.534   2.195   0.698  0.0397 -0.0337  0.3068
  106CHEX    R3  318   3.409   2.420   0.535 -0.4602 -0.2031  0.2615
  107CHEX    R1  319   2.472   3.466   1.577 -0.1416  0.1116 -0.4260
  107CHEX    R2  320   2.477   3.573   1.333 -0.1585 -0.4853 -0.0407
  107CHEX    R3  321   2.695   3.713   1.470  0.3238 -0.0693  0.0460
  108CHEX    R1  322   1.074   1.070   4.124  0.1530  0.2525  0.1473
  108CHEX    R2  323   1.224   0.892   4.332 -0.2345 -0.1038  0.1730
  108CHEX    R3  324   1.357   1.118   4.165 -0.1340 -0.1267 -0.1058
  109CHEX    R1  325   1.121   0.572   2.447  0.0767 -0.1312  0.2083
  109CHEX    R2  326   0.982   0.283   2.467 -0.1779  0.2379  0.0242
  109CHEX    R3  327   1.081   0.456   2.715  0.0205  0.1989 -0.1442
  110CHEX    R1  328   1.255   0.582   1.230 -0.1313 -0.0740  0.0205
  110CHEX    R2  329   1.003   0.626   1.026  0.2247 -0.5835  0.0100
  110CHEX    R3  330   1.145   0.846   1.137 -0.3458 -0.1094  0.5562
  111CHEX    R1  331   4.500   4.418   0.903 -0.1768  0.2086  0.0474
  111CHEX    R2  332   4.610   4.205   0.725  0.0125  0.0899  0.0612
  111CHEX    R3  333   4.350   4.286   0.695  0.2146 -0.2497  0.1242
  112CHEX    R1  334   1.616   0.604   0.002 -0.1034  0.0700 -0.0641
  112CHEX    R2  335   1.796   0.607  -0.200  0.2890  0.3519  0.2691
  112CHEX    R3  336   1.480   0.639  -0.254 -0.2920  0.0754  0.1976
  113CHEX    R1  337   2.153   2.048   0.405  0.1955 -0.0055 -0.3228
  113CHEX    R2  338   2.118   1.792   0.465 -0.5552 -0.0912 -0.1338
  113CHEX    R3  339   1.869   1.944   0.486 -0.3760 -0.1774 -0.3606
  114CHEX    R1  340   3.818   2.753   2.507 -0.3454 -0.2140 -0.1467
  114CHEX    R2  341   3.676   2.974   2.360 -0.1731 -0.2789 -0.2096
  114CHEX    R3  342   3.544   2.777   2.557  0.2588 -0.1018 -0.0753
  115CHEX    R1  343   2.905   4.919   1.768 -0.4154  0.0169 -0.2661
  115CHEX    R2  344   2.838   5.065   1.988  0.2050 -0.2365 -0.2602
  115CHEX    R3  345   3.100   4.920   1.985  0.0690  0.1669  0.0365
  116CHEX    R1  346   3.215   0.724   4.466 -0.1414  0.3509 -0.0481
  116CHEX    R2  347   2.999   0.911   4.521 -0.5336  0.1808 -0.0719
  116CHEX    R3  348   2.939   0.707   4.307  0.0842 -0.2830 -0.1812
  117CHEX    R1  349   4.602   0.724   2.063  0.2774  0.2155  0.0013
  117CHEX    R2  350   4.477   0.662   2.336  0.2450 -0.3222 -0.0980
  117CHEX    R3  351   4.575   0.891   2.308 -0.0102 -0.1220 -0.2576
  118CHEX    R1  352   4.172   0.232   0.150  0.0185  0.2001  0.6305
  118CHEX    R2  353   3.887   0.357   0.145  0.3243 -0.0240 -0.4274
  118CHEX    R3  354   3.983   0.244   0.381  0.3189  0.0199 -0.2512
  119CHEX    R1  355   3.018   0.755   1.643 -0.0870  0.1481 -0.2090
  119CHEX    R2  356   3.121   0.785   1.381  0.1174  0.0648 -0.0012
  119CHEX    R3  357   3.307   0.714   1.587  0.0117 -0.5580 -0.4262
  120CHEX    R1  358   2.756   2.112   3.042  0.1137 -0.1390  0.1014
  120CHEX    R2  359   2.904   1.972   2.808 -0.2814 -0.1420 -0.1183
  120CHEX    R3  360   2.992   2.229   2.948  0.1715  0.1313  0.1279
  121CHEX    R1  361   2.145   4.431   3.987 -0.0177  0.0453  0.1700
  121CHEX    R2  362   1.991   4.242   4.040  0.1635 -0.1644 -0.0620
  121CHEX    R3  363   1.828   4.423   3.879  0.1212  0.2211 -0.1350
  122CHEX    R1  364   1.974   1.436   1.825 -0.2074 -0.0923 -0.0008
  122CHEX    R2  365   2.223   1.369   1.662  0.0845  0.3622  0.0062
  122CHEX    R3  366   2.199   1.574   1.859 -0.0389  0.1929  0.0989
  123CHEX    R1  367   0.334   2.771   1.597 -0.0668  0.0412  0.1015
  123CHEX    R2  368   0.239   2.924   1.809  0.1473  0.2510  0.3122
  123CHEX    R3  369   0.498   2.806   1.837 -0.0795  0.3879  0.1797
  124CHEX    R1  370   0.016   3.280   2.056  0.0070 -0.3126 -0.1488
  124CHEX    R2  371   0.210   3.227   2.287  0.0033  0.2054  0.0453
  124CHEX    R3  372   0.060   3.035   2.213 -0.0191  0.0304  0.1697
  125CHEX    R1  373   3.653   3.076   3.906  0.3130 -0.2643 -0.2787
  125CHEX    R2  374   3.659   2.847   3.992  0.0353  0.1466  0.2648
  125CHEX    R3  375   3.441   2.962   3.847  0.1320  0.0028  0.2913
  126CHEX    R1  376   2.278   0.991   3.812  0.4514 -0.0143 -0.1917
  126CHEX    R2  377   2.063   1.158   3.913 -0.0528 -0.1743 -0.0680
  126CHEX    R3  378   2.061   0.996   3.647 -0.1783 -0.1425  0.3061
  127CHEX    R1  379   1.805   4.931   4.090  0.0812 -0.3781  0.0637
  127CHEX    R2  380   1.578   4.998   4.094 -0.0493  0.1328  0.1884
  127CHEX    R3  381   1.728   5.105   4.356  0.0800 -0.3072 -0.0811
  128CHEX    R1  382   1.860   4.252   2.623  0.2759  0.1034  0.0821
  128CHEX    R2  383   1.651   4.276   2.405  0.0893 -0.2934  0.2959
  128CHEX    R3  384   1.607   4.214   2.674  0.2225  0.2671  0.1650
  129CHEX    R1  385   3.917   1.133   0.702  0.1827  0.3203  0.0085
  129CHEX    R2  386   3.736   1.283   0.551  0.1378  0.0561 -0.0474
  129CHEX    R3  387   4.023   1.192   0.492  0.4643  0.1064 -0.0485
  130CHEX    R1  388   0.546   3.792   0.701  0.0391 -0.1170 -0.1148
  130CHEX    R2  389   0.535   3.904   0.395 -0.0220 -0.2821 -0.2161
  130CHEX    R3  390   0.541   4.061   0.600 -0.1783 -0.1482 -0.0807
  131CHEX    R1  391   3.969   4.340   3.385 -0.0648 -0.0085  0.1375
  131CHEX    R2  392   3.781   4.144   3.261 -0.1540  0.0406  0.0077
  131CHEX    R3  393   4.001   4.020   3.352 -0.2330  0.1356 -0.0830
  132CHEX    R1  394   1.283   2.124   0.484 -0.0290 -0.2067 -0.0806
  132CHEX    R2  395   1.499   2.068   0.603 -0.0894 -0.0654 -0.1251
  132CHEX    R3  396   1.457   1.893   0.372  0.0442 -0.0235 -0.1462
  133CHEX    R1  397   4.237   1.739   2.087 -0.0697  0.3233  0.2352
  133CHEX    R2  398   4.559   1.709   2.063 -0.0023 -0.0455 -0.1992
  133CHEX    R3  399   4.382   1.855   1.872 -0.3088 -0.0773 -0.2277
  134CHEX    R1  400   2.559   0.580   2.380  0.2094 -0.1352 -0.0579
  134CHEX    R2  401   2.798   0.342   2.453 -0.2551 -0.0178 -0.1608
  134CHEX    R3  402   2.703   0.556   2.628 -0.1494  0.3026  0.5386
  135CHEX    R1  403   3.881   0.454   4.048  0.1470 -0.0172 -0.0392
  135CHEX    R2  404   4.052   0.217   3.975  0.3756 -0.2006  0.0188
  135CHEX    R3  405   3.797   0.291   3.823 -0.0551 -0.5016  0.0414
  136CHEX    R1  406   4.046   4.664   4.385 -0.4153 -0.0560 -0.2924
  136CHEX    R2  407   3.821   4.727   4.452 -0.0732  0.0954  0.1844
  136CHEX    R3  408   3.889   4.761   4.162  0.1266 -0.0289 -0.1649
  137CHEX    R1  409   2.050   1.112   3.022  0.0023 -0.0288 -0.0185
  137CHEX    R2  410   2.003   0.952   3.234 -0.2280 -0.3198 -0.0929
  137CHEX    R3  411   2.251   1.071   3.238  0.2546  0.1862  0.3608
  138CHEX    R1  412   3.285   4.483   3.265  0.3736 -0.4538 -0.1117
  138CHEX    R2  413   3.511   4.609   3.213 -0.3019 -0.2787 -0.0346
  138CHEX    R3  414   3.382   4.552   3.504  0.2545  0.1013 -0.0213
  139CHEX    R1  415   1.441   1.438   1.542 -0.1222  0.1126  0.1057
  139CHEX    R2  416   1.681   1.384   1.418  0.3926 -0.0116 -0.0856
  139CHEX    R3  417   1.681   1.607   1.563 -0.1437  0.1694 -0.3077
  140CHEX    R1  418   0.767   3.551   0.300  0.0515 -0.0640  0.3858
  140CHEX    R2  419   0.992   3.713   0.385  0.0448 -0.1629  0.0093
  140CHEX    R3  420   0.860   3.551   0.554 -0.0520 -0.3273 -0.0459
  141CHEX    R1  421   0.424   4.388   4.645 -0.4491 -0.1988  0.2726
  141CHEX    R2  422   0.432   4.525   4.411  0.1532  0.0461 -0.0382
  141CHEX    R3  423   0.200   4.330   4.463  0.7233  0.1558 -0.4417
  142CHEX    R1  424   2.175   3.295   2.337  0.5699  0.5733 -0.3560
  142CHEX    R2  425   2.186   3.133   2.119  0.4349  0.2603 -0.2478
  142CHEX    R3  426   1.916   3.131   2.267  0.2324  0.1130  0.0170
  143CHEX    R1  427   1.741   1.499   0.357 -0.0164 -0.1937 -0.0028
  143CHEX    R2  428   1.651   1.592   0.047 -0.1678  0.0380  0.0758
  143CHEX    R3  429   1.470   1.446   0.240  0.3987  0.0629  0.4165
  144CHEX    R1  430   2.659   2.189   0.115  0.0841  0.2961  0.0271
  144CHEX    R2  431   2.530   1.962   0.046  0.2792 -0.1340 -0.2384
  144CHEX    R3  432   2.326   2.171   0.051  0.0900 -0.0009 -0.0717
  145CHEX    R1  433   4.196   3.395   0.983 -0.0995 -0.2310  0.2257
  145CHEX    R2  434   3.985   3.287   0.919  0.1624  0.2532  0.3822
  145CHEX    R3  435   4.182   3.279   0.708  0.1010  0.1765  0.2426
  146CHEX    R1  436   4.170   3.588   1.620 -0.0345 -0.0659 -0.0284
  146CHEX    R2  437   4.203   3.843   1.445  0.3274  0.1915  0.4920
  146CHEX    R3  438   4.046   3.646   1.331  0.1755  0.1947  0.2413
  147CHEX    R1  439   3.177   1.182   1.052 -0.0254  0.2000  0.5799
  147CHEX    R2  440   3.422   0.960   1.071  0.4594  0.1972  0.4487
  147CHEX    R3  441   3.473   1.268   1.040  0.4322 -0.3908  0.3824
  148CHEX    R1  442   0.119   0.600   0.146  0.0013 -0.2721  0.0814
  148CHEX    R2  443   0.065   0.806   0.322  0.1369 -0.3631  0.5123
  148CHEX    R3  444  -0.098   0.813   0.105 -0.1978 -0.0570 -0.0398
  149CHEX    R1  445   0.073   4.257   1.000  0.1449  0.0932 -0.0580
  149CHEX    R2  446   0.189   4.359   1.159 -0.1159  0.1393 -0.0165
  149CHEX    R3  447   0.285   4.356   0.873 -0.3284 -0.1283  0.0882
  150CHEX    R1  448   4.240   2.799   2.795  0.3221  0.1766  0.0634
  150CHEX    R2  449   4.336   3.054   2.643 -0.0941  0.3886 -0.4481
  150CHEX    R3  450   4.252   2.827   2.556 -0.1045 -0.0892 -0.1118
  151CHEX    R1  451   4.761   0.981   4.652 -0.0060 -0.3539  0.2122
  151CHEX    R2  452   4.611   0.875   4.413  0.0946  0.0031 -0.0746
  151CHEX    R3  453   4.530   1.125   4.517 -0.1651  0.2747  0.2137
  152CHEX    R1  454   1.673   0.029   0.572  0.1962  0.1409  0.0197
  152CHEX    R2  455   1.815  -0.061   0.395 -0.0368 -0.0579 -0.2415
  152CHEX    R3  456   1.644  -0.230   0.449  0.1333  0.2183 -0.1491
  153CHEX    R1  457   3.021   0.260   2.834 -0.2998 -0.4626 -0.4778
  153CHEX    R2  458   3.201   0.407   2.747 -0.4820  0.3631 -0.4246
  153CHEX    R3  459   3.062   0.547   2.965 -0.1993 -0.1154 -0.0263
  154CHEX    R1  460   2.815   3.250   1.314 -0.0851 -0.2099  0.2434
  154CHEX    R2  461   2.751   3.185   1.056 -0.1431  0.2297  0.0800
  154CHEX    R3  462   2.617   3.050   1.314 -0.4557 -0.0740 -0.2019
  155CHEX    R1  463   0.217   1.821   0.826  0.1901  0.3311 -0.0096
  155CHEX    R2  464   0.285   1.523   0.847 -0.0910 -0.5390 -0.1353
  155CHEX    R3  465   0.038   1.626   0.707  0.1610 -0.2258 -0.4259
  156CHEX    R1  466   1.040   4.557   3.848 -0.4661 -0.3217  0.0155
  156CHEX    R2  467   0.932   4.681   4.081  0.2984  0.1785 -0.4299
  156CHEX    R3  468   1.156   4.811   3.901 -0.0586 -0.1059 -0.2191
  157CHEX    R1  469   0.080   0.894   1.436 -0.0519  0.0033  0.0232
  157CHEX    R2  470  -0.143   0.927   1.301 -0.1239 -0.0853  0.2543
  157CHEX    R3  471  -0.135   0.678   1.439  0.1901  0.0365 -0.0825
  158CHEX    R1  472   0.651   0.814   1.196 -0.1595  0.0674 -0.0224
  158CHEX    R2  473   0.755   1.053   1.294  0.1933  0.2606 -0.3197
  158CHEX    R3  474   0.847   0.824   1.422  0.0612 -0.0213 -0.2414
  159CHEX    R1  475   2.042   2.496   0.190  0.0182 -0.4103  0.0746
  159CHEX    R2  476   1.977   2.709  -0.022 -0.1124 -0.2521 -0.0005
  159CHEX    R3  477   2.136   2.775   0.227 -0.3526 -0.4764 -0.4974
  160CHEX    R1  478   4.780   3.660   2.637  0.1386 -0.0128  0.0597
  160CHEX    R2  479   4.602   3.440   2.720 -0.1475  0.1290  0.0811
  160CHEX    R3  480   4.829   3.365   2.620 -0.0716  0.0918  0.1593
  161CHEX    R1  481   4.489   0.523   3.139 -0.1682  0.2724  0.2469
  161CHEX    R2  482   4.741   0.425   3.074 -0.4615  0.2068 -0.1956
  161CHEX    R3  483   4.675   0.288   3.285 -0.3026  0.0655  0.2507
  162CHEX    R1  484   3.447   0.348   4.844  0.0200  0.2364  0.0332
  162CHEX    R2  485   3.443   0.645   5.002  0.0741  0.2654  0.0845
  162CHEX    R3  486   3.567   0.635   4.778  0.2210 -0.5816  0.1491
  163CHEX    R1  487   1.693   0.168   3.167  0.1269 -0.1149  0.2259
  163CHEX    R2  488   1.671  -0.016   2.943  0.1079  0.1593  0.0936
  163CHEX    R3  489   1.896   0.154   3.017  0.0278 -0.0313 -0.1174
  164CHEX    R1  490   0.901   4.412   2.617  0.3495 -0.2507 -0.3994
  164CHEX    R2  491   0.787   4.268   2.856  0.3503  0.0236 -0.3095
  164CHEX    R3  492   0.916   4.536   2.910 -0.3158  0.3527  0.2766
  165CHEX    R1  493   1.121   1.853   1.323 -0.0415  0.0213 -0.1293
  165CHEX    R2  494   0.857   1.947   1.280  0.0617 -0.1011 -0.1001
  165CHEX    R3  495   1.070   2.110   1.380 -0.2676 -0.1870 -0.0289
  166CHEX    R1  496   4.934   3.612   1.738  0.0132  0.0430  0.0508
  166CHEX    R2  497   5.118   3.803   1.853 -0.2125 -0.2775 -0.0390
  166CHEX    R3  498   4.841   3.891   1.870  0.2027  0.0431  0.2933
  167CHEX    R1  499   2.992   0.783   0.947 -0.0202 -0.1277 -0.3658
  167CHEX    R2  500   2.805   0.585   1.047 -0.0440 -0.0819  0.4009
  167CHEX    R3  501   2.771   0.896   1.079 -0.2413  0.0232  0.3627
  168CHEX    R1  502   3.965   3.645   4.448 -0.2970  0.2910 -0.1041
  168CHEX    R2  503   4.061   3.532   4.704 -0.3698  0.3763  0.2326
  168CHEX    R3  504   4.021   3.777   4.720  0.5285 -0.0828 -0.0369
  169CHEX    R1  505   0.894   1.011   0.746  0.0465 -0.1874  0.3880
  169CHEX    R2  506   0.658   1.130   0.792  0.2047 -0.2641  0.0231
  169CHEX    R3  507   0.866   1.306   0.621 -0.2045 -0.4352  0.0149
  170CHEX    R1  508   2.876   2.102   3.460  0.1990  0.4146 -0.4326
  170CHEX    R2  509   3.119   1.994   3.595 -0.2614 -0.6560 -0.1107
  170CHEX    R3  510   2.890   2.019   3.739  0.0609  0.2454  0.0659
  171CHEX    R1  511   1.266   3.160   0.526  0.1362 -0.1673 -0.3435
  171CHEX    R2  512   1.175   3.296   0.288  0.2125 -0.0215 -0.3476
  171CHEX    R3  513   1.436   3.183   0.309 -0.1011  0.1399 -0.0157
  172CHEX    R1  514   3.668   2.070   2.561 -0.3668  0.2847 -0.3807
  172CHEX    R2  515   3.544   2.357   2.576 -0.2116 -0.0166  0.1204
  172CHEX    R3  516   3.395   2.113   2.482 -0.2458 -0.1809 -0.0242
  173CHEX    R1  517   3.192   3.069   1.469  0.1128  0.2353  0.2303
  173CHEX    R2  518   3.347   2.795   1.491  0.4500  0.1175  0.0443
  173CHEX    R3  519   3.040   2.849   1.488  0.2375  0.2182  0.4072
  174CHEX    R1  520   1.706   0.924   0.925  0.1183 -0.0741  0.1322
  174CHEX    R2  521   1.517   0.841   0.734  0.2988 -0.1485 -0.1013
  174CHEX    R3  522   1.636   0.692   0.949  0.3431 -0.1356  0.0708
  175CHEX    R1  523   0.591   0.633   4.105  0.1274 -0.1375 -0.0553
  175CHEX    R2  524   0.671   0.846   4.254 -0.0017 -0.0445 -0.1243
  175CHEX    R3  525   0.801   0.642   4.289 -0.1523 -0.1419 -0.1523
  176CHEX    R1  526   4.642   2.746   3.028  0.0962 -0.3510  0.4604
  176CHEX    R2  527   4.891   2.871   3.084 -0.2941 -0.1377 -0.1746
  176CHEX    R3  528   4.703   2.997   2.889 -0.0299  0.0568  0.0643
  177CHEX    R1  529   1.614   1.612   3.609 -0.1482  0.1054  0.2619
  177CHEX    R2  530   1.488   1.327   3.599 -0.0092  0.4021 -0.1509
  177CHEX    R3  531   1.752   1.364   3.677 -0.0888  0.0739 -0.3632
  178CHEX    R1  532   4.142   0.880   1.577 -0.0717 -0.0542 -0.1067
  178CHEX    R2  533   4.328   0.641   1.626  0.3238  0.0614  0.1072
  178CHEX    R3  534   4.388   0.891   1.717  0.2399 -0.0083  0.2775
  179CHEX    R1  535   4.838   0.100   0.097 -0.1222 -0.1230  0.1640
  179CHEX    R2  536   4.898   0.261   0.307 -0.3540 -0.3700  0.0465
  179CHEX    R3  537   4.642   0.300   0.212  0.1007 -0.4233  0.0573
  180CHEX    R1  538   2.518   2.559   2.959 -0.2689  0.0739  0.3840
  180CHEX    R2  539   2.335   2.324   2.936 -0.4556 -0.2497  0.0449
  180CHEX    R3  540   2.345   2.470   3.175  0.1613  0.3750 -0.0424
  181CHEX    R1  541   2.489   2.627   1.291  0.1490  0.2512  0.2788
  181CHEX    R2  542   2.465   2.370   1.146 -0.0391 -0.1531 -0.3583
  181CHEX    R3  543   2.217   2.538   1.165  0.0882  0.0782 -0.2210
  182CHEX    R1  544   3.818   4.162   4.459  0.0554  0.1974  0.0789
  182CHEX    R2  545   3.612   4.270   4.596  0.0194  0.0781 -0.2025
  182CHEX    R3  546   3.629   4.235   4.270 -0.1090  0.2067 -0.5012
  183CHEX    R1  547   3.703   4.734   4.880  0.2621 -0.2985 -0.4534
  183CHEX    R2  548   3.893   4.973   4.813  0.5033  0.0509  0.4512
  183CHEX    R3  549   3.752   4.915   5.078  0.1984  0.2030  0.0535
  184CHEX    R1  550   4.169   2.038   4.492  0.4565 -0.4308  0.4050
  184CHEX    R2  551   4.287   2.167   4.660 -0.1029  0.1451  0.1011
  184CHEX    R3  552   4.206   2.291   4.404  0.1591  0.3031  0.1929
  185CHEX    R1  553   2.254   4.301   4.528 -0.0591  0.0381 -0.1804
  185CHEX    R2  554   2.248   4.083   4.372  0.2685 -0.3172 -0.0993
  185CHEX    R3  555   2.501   4.198   4.403 -0.1612  0.4491 -0.1188
  186CHEX    R1  556   0.811   4.608   1.286 -0.1715  0.4583 -0.0599
  186CHEX    R2  557   0.541   4.633   1.267 -0.1434 -0.3497  0.1068
  186CHEX    R3  558   0.713   4.735   1.522  0.0562  0.0402  0.0506
  187CHEX    R1  559   3.723   2.653   1.224 -0.1609  0.3720  0.3559
  187CHEX    R2  560   3.628   2.771   1.004 -0.1475  0.0598 -0.1372
  187CHEX    R3  561   3.775   2.920   1.135 -0.1217 -0.1419 -0.0261
  188CHEX    R1  562   0.887   0.289   0.451  0.1791 -0.1245 -0.1126
  188CHEX    R2  563   0.897   0.303   0.715  0.2255 -0.0794  0.1048
  188CHEX    R3  564   0.833   0.082   0.585  0.0351  0.0612 -0.1354
  189CHEX    R1  565   0.445   0.958   3.021 -0.0184  0.2072 -0.3168
  189CHEX    R2  566   0.204   0.985   3.214  0.1686  0.4588  0.2912
  189CHEX    R3  567   0.315   0.708   3.168 -0.1110  0.2236  0.2295
  190CHEX    R1  568   4.080   1.638   0.402 -0.2417 -0.0859  0.5833
  190CHEX    R2  569   4.197   1.838   0.199  0.0510 -0.5173 -0.0839
  190CHEX    R3  570   4.353   1.639   0.301 -0.0242 -0.2571 -0.5243
  191CHEX    R1  571   4.692   4.430   1.290 -0.0191 -0.1473  0.1956
  191CHEX    R2  572   4.678   4.368   1.557  0.1589  0.3032  0.1644
  191CHEX    R3  573   4.642   4.151   1.321  0.0096  0.2490  0.0440
  192CHEX    R1  574   4.362   0.093   1.204 -0.0743  0.5182 -0.1449
  192CHEX    R2  575   4.542  -0.118   1.168  0.3893 -0.1259  0.1214
  192CHEX    R3  576   4.507  -0.110   1.425 -0.0952 -0.1159 -0.2461
  193CHEX    R1  577   4.631   1.235   0.873 -0.1704  0.0367 -0.1985
  193CHEX    R2  578   4.358   1.158   0.775 -0.3815  0.0272  0.1028
  193CHEX    R3  579   4.543   1.341   0.616 -0.1596  0.3627  0.4306
  194CHEX    R1  580   2.634   4.653   1.275  0.0550  0.0265 -0.1914
  194CHEX    R2  581   2.650   4.897   1.384  0.0444 -0.3214 -0.4771
  194CHEX    R3  582   2.917   4.783   1.300  0.1215 -0.3733 -0.1928
  195CHEX    R1  583   3.567   0.848   0.530 -0.3032  0.2166  0.1801
  195CHEX    R2  584   3.388   0.645   0.631 -0.2862 -0.2506  0.0974
  195CHEX    R3  585   3.657   0.569   0.554 -0.0232  0.2365  0.0565
  196CHEX    R1  586   4.193   0.200   1.606  0.3591  0.2685 -0.1145
  196CHEX    R2  587   3.981   0.005   1.489 -0.3634 -0.2386  0.2004
  196CHEX    R3  588   3.981   0.077   1.765 -0.2298 -0.1339 -0.2728
  197CHEX    R1  589   3.401   1.784   3.930  0.0323 -0.1807  0.0073
  197CHEX    R2  590   3.630   1.792   3.842 -0.4072  0.2779  0.2737
  197CHEX    R3  591   3.626   2.026   4.007 -0.0857 -0.4246 -0.1232
  198CHEX    R1  592   0.567   0.597   0.716  0.3245  0.2472  0.2525
  198CHEX    R2  593   0.408   0.467   0.878 -0.0552  0.2450 -0.0845
  198CHEX    R3  594   0.267   0.558   0.619  0.0134 -0.0454  0.2814
  199CHEX    R1  595   3.672   2.633   3.561 -0.0206  0.5415 -0.1078
  199CHEX    R2  596   3.784   2.440   3.808 -0.0888 -0.0417  0.0452
  199CHEX    R3  597   3.971   2.503   3.589  0.0516  0.2960 -0.2807
  200CHEX    R1  598   3.013   2.597   2.693 -0.0414 -0.2542 -0.3884
  200CHEX    R2  599   2.982   2.345   2.515  0.0202 -0.2165 -0.3240
  200CHEX    R3  600   3.135   2.554   2.450 -0.1190 -0.3897  0.1777
  201CHEX    R1  601   1.132   2.813   4.706  0.1034  0.2348  0.2537
  201CHEX    R2  602   1.030   2.906   4.935  0.0919 -0.1421 -0.3692
  201CHEX    R3  603   0.824   2.735   4.829  0.0850  0.2818 -0.4487
  202CHEX    R1  604   0.972   4.071   0.667  0.2613  0.4670  0.3037
  202CHEX    R2  605   1.083   4.287   0.847 -0.0190  0.2204 -0.1299
  202CHEX    R3  606   1.228   4.052   0.705 -0.0614  0.1490  0.3397
  203CHEX    R1  607   4.320   4.952   3.459 -0.0682 -0.4033  0.2324
  203CHEX    R2  608   4.447   5.116   3.654  0.0179 -0.1527  0.0249
  203CHEX    R3  609   4.157   5.137   3.545 -0.2144  0.0898  0.1299
  204CHEX    R1  610   1.678   4.915   4.861 -0.0276 -0.0354  0.2309
  204CHEX    R2  611   1.522   5.117   5.058 -0.3722  0.0962  0.0205
  204CHEX    R3  612   1.468   5.116   4.781 -0.1259  0.4687  0.1059
  205CHEX    R1  613   4.286   3.272   4.339 -0.1104 -0.0064 -0.0229
  205CHEX    R2  614   4.076   3.109   4.497 -0.0123 -0.2200  0.2165
  205CHEX    R3  615   4.007   3.249   4.237 -0.0910 -0.0467 -0.0922
  206CHEX    R1  616   0.107   0.356   4.449  0.1070  0.5157 -0.0416
  206CHEX    R2  617  -0.036   0.564   4.550 -0.1876 -0.1426  0.2745
  206CHEX    R3  618  -0.059   0.388   4.704  0.4816  0.3004  0.1890
  207CHEX    R1  619   3.562   0.902   4.070 -0.0651  0.2456 -0.1819
  207CHEX    R2  620   3.804   0.900   4.102  0.0455  0.2628  0.1497
  207CHEX    R3  621   3.661   0.883   4.340  0.0568 -0.2185  0.0661
  208CHEX    R1  622   1.578   4.460   4.895 -0.0815 -0.0179  0.1049
  208CHEX    R2  623   1.478   4.239   4.872  0.1565  0.3096  0.2415
  208CHEX    R3  624   1.723   4.231   5.019 -0.0199 -0.1842  0.1545
  209CHEX    R1  625   1.070   4.723   0.886 -0.0217 -0.4402 -0.1424
  209CHEX    R2  626   1.182   4.923   1.067 -0.0377  0.0793  0.3707
  209CHEX    R3  627   1.247   4.894   0.747 -0.2794  0.1665 -0.1587
  210CHEX    R1  628   4.093   1.591   4.004  0.0013  0.0194 -0.0826
  210CHEX    R2  629   4.210   1.727   4.196 -0.3456 -0.5285 -0.1889
  210CHEX    R3  630   3.956   1.747   4.223  0.0686 -0.1512 -0.0746
  211CHEX    R1  631   3.877   3.374   1.899  0.2170  0.0862 -0.1448
  211CHEX    R2  632   3.622   3.356   2.083 -0.1548 -0.0728  0.0136
  211CHEX    R3  633   3.616   3.510   1.845 -0.1410  0.1294  0.2738
  212CHEX    R1  634   3.072   2.593   1.081 -0.0487  0.2270  0.1581
  212CHEX    R2  635   3.134   2.898   1.048  0.0666 -0.2289  0.0801
  212CHEX    R3  636   2.840   2.760   1.066 -0.0930 -0.2422 -0.0603
  213CHEX    R1  637   2.120   2.809   2.513  0.2127 -0.4573  0.3101
  213CHEX    R2  638   1.872   2.677   2.513 -0.0958  0.1482  0.2981
  213CHEX    R3  639   2.106   2.599   2.693  0.3064 -0.2865 -0.2556
  214CHEX    R1  640   4.531   2.322   2.849 -0.0140 -0.0914 -0.0741
  214CHEX    R2  641   4.753   2.417   2.664  0.2107  0.1827 -0.1875
  214CHEX    R3  642   4.506   2.481   2.623  0.1850 -0.0887 -0.3574
  215CHEX    R1  643   4.466   2.200   1.277 -0.5166 -0.1091  0.0688
  215CHEX    R2  644   4.614   2.444   1.344  0.0951  0.2587 -0.0743
  215CHEX    R3  645   4.746   2.240   1.190  0.1019  0.2111  0.0884
  216CHEX    R1  646   0.694   3.309   3.381 -0.0864 -0.3531 -0.1171
  216CHEX    R2  647   0.824   3.521   3.510  0.0587 -0.0654 -0.0969
  216CHEX    R3  648   0.993   3.256   3.545  0.0671 -0.0683  0.6761
  217CHEX    R1  649   3.256   4.218   1.992  0.1719 -0.3141 -0.0070
  217CHEX    R2  650   3.335   4.433   2.011  0.0426 -0.2018  0.0963
  217CHEX    R3  651   3.286   4.287   2.245 -0.0930  0.1823  0.0824
  218CHEX    R1  652   2.327   0.978   0.022 -0.2139 -0.2393 -0.1486
  218CHEX    R2  653   2.270   0.684  -0.038 -0.2964  0.0199  0.3236
  218CHEX    R3  654   2.525   0.809  -0.061 -0.0243  0.0160 -0.1759
  219CHEX    R1  655   4.138   1.849   1.283  0.1477  0.2012 -0.0502
  219CHEX    R2  656   4.155   1.945   1.502  0.0066 -0.4333 -0.3692
  219CHEX    R3  657   4.034   1.702   1.519  0.4311 -0.4464 -0.1519
  220CHEX    R1  658   1.615   2.994   4.237 -0.1580 -0.0757 -0.0587
  220CHEX    R2  659   1.361   2.850   4.277 -0.5933  0.1202 -0.0107
  220CHEX    R3  660   1.385   3.120   4.325 -0.1787 -0.1778 -0.4026
  221CHEX    R1  661   4.023   1.405   2.378 -0.0956  0.1665  0.0353
  221CHEX    R2  662   3.780   1.436   2.609 -0.0259  0.5511 -0.1958
  221CHEX    R3  663   3.905   1.184   2.505 -0.0090  0.2516  0.1430
  222CHEX    R1  664   2.882   4.890   3.106 -0.4662  0.1663  0.3307
  222CHEX    R2  665   2.845   4.692   2.848  0.2053  0.0102 -0.3916
  222CHEX    R3  666   2.821   4.561   3.101  0.1020  0.0855  0.0999
  223CHEX    R1  667   0.240   0.960   4.834 -0.0138 -0.0470 -0.0269
  223CHEX    R2  668   0.398   1.150   4.999 -0.0475 -0.2684 -0.0413
  223CHEX    R3  669   0.155   1.211   4.882 -0.0137 -0.0538  0.1358
  224CHEX    R1  670   0.076   0.259   1.165 -0.1618  0.0625  0.2195
  224CHEX    R2  671   0.005   0.537   1.073  0.2989 -0.0727  0.5249
  224CHEX    R3  672  -0.189   0.328   0.997 -0.2138 -0.3213 -0.1378
  225CHEX    R1  673   2.853   4.159   2.329 -0.0618  0.0112  0.5028
  225CHEX    R2  674   2.971   3.925   2.146 -0.0221 -0.1761 -0.3208
  225CHEX    R3  675   2.946   3.923   2.436 -0.0433  0.1719  0.2529
  226CHEX    R1  676   0.551   4.031   4.327 -0.1749 -0.1677  0.2546
  226CHEX    R2  677   0.316   3.892   4.368 -0.1208  0.0453  0.2296
  226CHEX    R3  678   0.588   3.769   4.452 -0.0051  0.2910  0.0140
  227CHEX    R1  679   0.309   3.827   1.437 -0.1872  0.1093 -0.3132
  227CHEX    R2  680   0.074   4.068   1.498  0.1576 -0.1904 -0.0307
  227CHEX    R3  681   0.353   4.082   1.488 -0.0804 -0.0228 -0.0454
  228CHEX    R1  682   1.926   4.549   3.066 -0.3639  0.3396  0.0533
  228CHEX    R2  683   1.790   4.621   3.290 -0.0094 -0.4828 -0.3704
  228CHEX    R3  684   1.672   4.527   3.013  0.4279 -0.5325 -0.2805
  229CHEX    R1  685   1.854   2.566   3.511  0.0754 -0.2067  0.0211
  229CHEX    R2  686   1.641   2.793   3.561  0.0126  0.3214  0.0815
  229CHEX    R3  687   1.953   2.840   3.604 -0.5029 -0.2388 -0.4331
  230CHEX    R1  688   0.057   1.313   0.392 -0.1651 -0.2132  0.0355
  230CHEX    R2  689   0.305   1.412   0.381  0.1894  0.0359  0.3557
  230CHEX    R3  690   0.256   1.189   0.555  0.1064  0.0918  0.1461
  231CHEX    R1  691   3.326   2.993   0.638 -0.2232  0.1460 -0.4770
  231CHEX    R2  692   3.564   3.168   0.513  0.0662 -0.2446 -0.2643
  231CHEX    R3  693   3.507   3.168   0.812 -0.0227 -0.1058  0.4931
  232CHEX    R1  694   1.238   0.262   4.088  0.1039 -0.4384 -0.0480
  232CHEX    R2  695   1.333   0.366   4.367  0.1804  0.3543  0.0022
  232CHEX    R3  696   1.067   0.294   4.290 -0.4119  0.2003 -0.0159
  233CHEX    R1  697   4.184   4.286   1.205 -0.0682  0.4879  0.6862
  233CHEX    R2  698   4.213   4.309   1.487 -0.1088  0.2110 -0.2738
  233CHEX    R3  699   4.051   4.493   1.403 -0.5935  0.2085  0.1922
  234CHEX    R1  700   2.784   3.000   2.563  0.1490  0.3701  0.0926
  234CHEX    R2  701   2.588   2.942   2.367 -0.3151  0.3497  0.0275
  234CHEX    R3  702   2.542   3.018   2.640  0.0786  0.1659 -0.4231
  235CHEX    R1  703   4.074   3.184   1.503 -0.0441 -0.1255  0.3741
  235CHEX    R2  704   4.167   2.907   1.486  0.0234  0.0776 -0.5112
  235CHEX    R3  705   4.258   3.105   1.330  0.0319 -0.4472 -0.0054
  236CHEX    R1  706   3.630   1.562   1.794 -0.1904  0.1612 -0.3452
  236CHEX    R2  707   3.854   1.483   1.968  0.0012 -0.0877 -0.3812
  236CHEX    R3  708   3.614   1.548   2.080 -0.2541  0.3272 -0.0116
  237CHEX    R1  709   0.303   2.811   0.726  0.2823  0.2540 -0.1847
  237CHEX    R2  710   0.240   2.931   0.485 -0.3917  0.4444  0.1997
  237CHEX    R3  711   0.043   2.815   0.583 -0.3163  0.6265  0.1692
  238CHEX    R1  712   0.838   0.742   2.906 -0.0554 -0.1443 -0.1697
  238CHEX    R2  713   0.733   0.518   2.992  0.0841 -0.0289  0.0711
  238CHEX    R3  714   0.771   0.722   3.196 -0.2359 -0.2935 -0.0728
  239CHEX    R1  715   1.123   0.681   3.441  0.0647 -0.3898  0.0833
  239CHEX    R2  716   1.187   0.564   3.165  0.1607  0.3474  0.1289
  239CHEX    R3  717   1.197   0.828   3.217 -0.2623 -0.0744 -0.0303
  240CHEX    R1  718   0.436   0.324   3.294  0.2777 -0.0765 -0.1033
  240CHEX    R2  719   0.390   0.183   3.056  0.3125 -0.0708  0.3355
  240CHEX    R3  720   0.161   0.208   3.186  0.0372  0.0025 -0.3852
  241CHEX    R1  721   1.001   4.292   3.370  0.1499 -0.3641  0.2294
  241CHEX    R2  722   1.009   4.001   3.365  0.2163  0.2328  0.3248
  241CHEX    R3  723   1.140   4.165   3.555 -0.2057  0.8113 -0.0012
  242CHEX    R1  724   4.152   0.601   2.811 -0.1297 -0.3523 -0.0106
  242CHEX    R2  725   4.101   0.615   2.511 -0.3424 -0.1033  0.0816
  242CHEX    R3  726   4.187   0.862   2.625  0.2262 -0.1359  0.4202
  243CHEX    R1  727   2.366   0.086   4.046  0.0463  0.0092 -0.1286
  243CHEX    R2  728   2.440  -0.094   3.814 -0.0088 -0.0260 -0.2664
  243CHEX    R3  729   2.385   0.193   3.738 -0.2758 -0.1106  0.4116
  244CHEX    R1  730   4.943   1.951   0.397  0.2342  0.1053  0.0058
  244CHEX    R2  731   4.672   1.960   0.258  0.1646  0.1725  0.1677
  244CHEX    R3  732   4.845   1.727   0.198  0.3028  0.0125 -0.0861
  245CHEX    R1  733   1.878   2.474   3.091  0.2214 -0.1050 -0.0948
  245CHEX    R2  734   1.621   2.507   3.152  0.1154  0.1537  0.1228
  245CHEX    R3  735   1.667   2.611   2.917 -0.3548 -0.4870  0.1920
  246CHEX    R1  736   0.488   0.692   3.605  0.2021  0.0268 -0.2256
  246CHEX    R2  737   0.235   0.846   3.651 -0.2299  0.0322  0.2783
  246CHEX    R3  738   0.462   0.916   3.802 -0.0082  0.1420  0.1604
  247CHEX    R1  739   2.076   3.685   1.545  0.0341  0.1522 -0.1271
  247CHEX    R2  740   1.951   3.513   1.733 -0.0685  0.6054 -0.2530
  247CHEX    R3  741   1.955   3.817   1.719  0.1357 -0.0409 -0.1741
  248CHEX    R1  742   1.765   0.264   1.054  0.1446 -0.0994  0.1647
  248CHEX    R2  743   1.601   0.018   1.056  0.1003  0.0342 -0.4093
  248CHEX    R3  744   1.526   0.265   0.907  0.5920  0.0917  0.2813
  249CHEX    R1  745   4.624   2.985   4.180  0.1628  0.0266  0.0708
  249CHEX    R2  746   4.474   3.160   3.932 -0.2909  0.0321  0.0926
  249CHEX    R3  747   4.740   3.079   3.873 -0.2418 -0.0153 -0.0152
  250CHEX    R1  748   0.940   1.661   0.888  0.2033 -0.3760 -0.2586
  250CHEX    R2  749   0.738   1.541   0.998  0.0651 -0.0107 -0.0233
  250CHEX    R3  750   0.647   1.786   0.953 -0.3631 -0.0107  0.0219
  251CHEX    R1  751   4.150   2.150   3.957 -0.1563  0.1748  0.0669
  251CHEX    R2  752   4.334   1.971   3.816  0.2950 -0.0956  0.1374
  251CHEX    R3  753   4.348   2.261   3.750  0.1304  0.0962 -0.1587
  252CHEX    R1  754   4.092   1.123   1.937 -0.1380 -0.4545  0.0687
  252CHEX    R2  755   4.130   0.812   2.088 -0.1207 -0.2734  0.2908
  252CHEX    R3  756   4.197   1.078   2.168  0.4125 -0.2196 -0.0974
  253CHEX    R1  757   0.101   0.640   4.079 -0.0341  0.0514  0.1826
  253CHEX    R2  758   0.223   0.852   4.299  0.2709 -0.1807  0.2897
  253CHEX    R3  759   0.006   0.905   4.110  0.4761  0.2561  0.0664
  254CHEX    R1  760   1.552   2.660   0.269  0.2936  0.0822 -0.3115
  254CHEX    R2  761   1.268   2.579   0.136 -0.2816  0.1863 -0.1716
  254CHEX    R3  762   1.528   2.424   0.256 -0.0034  0.0846 -0.2123
  255CHEX    R1  763   3.269   3.208   2.272  0.0296 -0.2093 -0.0175
  255CHEX    R2  764   3.150   2.955   2.294  0.0890  0.2257  0.2609
  255CHEX    R3  765   3.323   3.002   2.110  0.1082  0.2803  0.3719
  256CHEX    R1  766   4.868   4.416   3.032  0.4453 -0.2113  0.0524
  256CHEX    R2  767   4.617   4.271   2.896  0.1220  0.0059  0.0428
  256CHEX    R3  768   4.876   4.181   2.851 -0.0338  0.3437 -0.1101
  257CHEX    R1  769   2.995   1.297   0.453 -0.0020  0.2263  0.0381
  257CHEX    R2  770   3.038   1.055   0.596 -0.3300  0.4066 -0.0903
  257CHEX    R3  771   3.262   1.131   0.433 -0.3349 -0.4738 -0.0199
  258CHEX    R1  772   1.977   4.901   2.310  0.0767  0.0901 -0.1628
  258CHEX    R2  773   1.789   4.777   2.496  0.0451  0.4420  0.6161
  258CHEX    R3  774   1.791   4.684   2.234  0.1268  0.1468  0.0404
  259CHEX    R1  775   3.828   0.959   1.187  0.0032 -0.2358  0.1382
  259CHEX    R2  776   3.757   0.744   0.980 -0.3090  0.2524 -0.1249
  259CHEX    R3  777   3.722   0.694   1.286  0.4803  0.4594 -0.2755
  260CHEX    R1  778   3.723   4.121   0.271  0.1234  0.1944  0.3724
  260CHEX    R2  779   3.730   4.302   0.053  0.2208  0.3149  0.1222
  260CHEX    R3  780   3.660   4.007   0.017 -0.1466  0.0692  0.1159
  261CHEX    R1  781   2.319   2.422   0.636  0.0057  0.3014 -0.0127
  261CHEX    R2  782   2.578   2.466   0.695 -0.3361 -0.2070  0.1242
  261CHEX    R3  783   2.459   2.510   0.428  0.0813 -0.4193  0.1953
  262CHEX    R1  784   0.838   1.065   1.797 -0.0450  0.1242 -0.0365
  262CHEX    R2  785   0.878   1.168   2.045  0.0704  0.1951  0.0536
  262CHEX    R3  786   1.077   1.239   1.794  0.0437 -0.0115 -0.3061
  263CHEX    R1  787   2.210   4.503   3.496 -0.2839 -0.0390 -0.3663
  263CHEX    R2  788   2.277   4.207   3.620 -0.1913 -0.0159 -0.0916
  263CHEX    R3  789   2.021   4.254   3.522  0.1342  0.1317  0.3604
  264CHEX    R1  790   3.600   1.399   3.327  0.1053  0.1559  0.0871
  264CHEX    R2  791   3.502   1.603   3.465 -0.3948 -0.1280  0.1078
  264CHEX    R3  792   3.461   1.538   3.175 -0.0021 -0.0295  0.3903
  265CHEX    R1  793   1.199   1.053   0.157 -0.1401 -0.1311  0.2886
  265CHEX    R2  794   1.471   1.031   0.292  0.5434  0.3913  0.4199
  265CHEX    R3  795   1.211   1.058   0.402  0.2080 -0.7805 -0.1272
  266CHEX    R1  796   4.698   0.567   0.578 -0.4940  0.1341  0.0396
  266CHEX    R2  797   4.525   0.708   0.781 -0.2223  0.3833 -0.1907
  266CHEX    R3  798   4.774   0.838   0.709  0.2024 -0.1090  0.4986
  267CHEX    R1  799   4.456   4.095   0.330 -0.4935 -0.0323  0.1089
  267CHEX    R2  800   4.178   4.074   0.323 -0.1052  0.3362 -0.2012
  267CHEX    R3  801   4.334   4.147   0.113 -0.2342 -0.2999 -0.1232
  268CHEX    R1  802   3.662   3.627   2.852  0.1326  0.0258 -0.5854
  268CHEX    R2  803   3.780   3.603   3.150 -0.1554  0.1838  0.2419
  268CHEX    R3  804   3.894   3.800   2.942 -0.2878 -0.1310 -0.1551
  269CHEX    R1  805   3.394   3.425   4.118  0.1051  0.0402 -0.4285
  269CHEX    R2  806   3.235   3.190   4.184 -0.1277  0.1699  0.1007
  269CHEX    R3  807   3.206   3.435   4.355  0.0286  0.5359 -0.2472
  270CHEX    R1  808   4.467   0.204   4.137 -0.2343 -0.3373 -0.1814
  270CHEX    R2  809   4.421   0.480   4.078  0.0368  0.3874 -0.3242
  270CHEX    R3  810   4.600   0.414   4.266 -0.0209 -0.3157  0.2440
  271CHEX    R1  811   4.709   2.735   4.644  0.2268 -0.0493 -0.5274
  271CHEX    R2  812   4.612   2.472   4.718  0.3809 -0.0992  0.3154
  271CHEX    R3  813   4.663   2.581   4.427  0.1391 -0.1445 -0.0509
  272CHEX    R1  814   4.767   0.231   1.555 -0.1198  0.4329 -0.1289
  272CHEX    R2  815   4.760   0.060   1.832  0.2337 -0.0174  0.0772
  272CHEX    R3  816   4.658   0.292   1.792  0.1139  0.0737 -0.0745
  273CHEX    R1  817   3.404   3.218   2.709  0.0506  0.2436 -0.1924
  273CHEX    R2  818   3.207   2.996   2.772  0.1007 -0.0436  0.1366
  273CHEX    R3  819   3.111   3.253   2.716  0.1462  0.1627 -0.0081
  274CHEX    R1  820   0.273   3.275   0.749 -0.0170  0.0989 -0.4441
  274CHEX    R2  821   0.443   3.357   0.526 -0.3443 -0.1538 -0.0105
  274CHEX    R3  822   0.551   3.285   0.798  0.3136  0.2719 -0.0434
  275CHEX    R1  823   3.991   1.495   3.553  0.0382 -0.4186 -0.0996
  275CHEX    R2  824   4.167   1.698   3.424  0.4366 -0.0133 -0.0893
  275CHEX    R3  825   4.281   1.538   3.620  0.1010 -0.1172  0.2169
  276CHEX    R1  826   3.711   1.039   1.655 -0.0609  0.3282 -0.0391
  276CHEX    R2  827   3.856   1.226   1.563 -0.0608 -0.3017  0.4709
  276CHEX    R3  828   3.555   1.152   1.461  0.2360 -0.1471 -0.0407
  277CHEX    R1  829   3.901   2.228   1.263  0.2947  0.1825  0.0187
  277CHEX    R2  830   3.831   2.301   1.020 -0.1531  0.0732 -0.1243
  277CHEX    R3  831   4.131   2.411   1.087 -0.3367  0.1326 -0.3516
  278CHEX    R1  832   1.774   3.857   2.352 -0.5438  0.1428 -0.0209
  278CHEX    R2  833   1.941   3.703   2.196 -0.4588 -0.2261 -0.2656
  278CHEX    R3  834   1.908   3.587   2.454  0.7441  0.4426 -0.1184
  279CHEX    R1  835   4.864   3.084   0.157  0.0521  0.3053  0.3152
  279CHEX    R2  836   5.012   3.301   0.286  0.3264  0.1056  0.2675
  279CHEX    R3  837   4.966   3.277   0.025  0.2229 -0.1439 -0.1686
  280CHEX    R1  838   2.193   0.409   3.321  0.0225  0.1323 -0.0316
  280CHEX    R2  839   2.236   0.616   3.533  0.0753 -0.4068  0.1670
  280CHEX    R3  840   1.973   0.578   3.430 -0.1005  0.0395 -0.0685
  281CHEX    R1  841   0.123   4.710   0.519  0.1471 -0.2676 -0.0577
  281CHEX    R2  842  -0.066   4.659   0.745 -0.2753  0.4853 -0.2372
  281CHEX    R3  843  -0.027   4.468   0.544  0.2226 -0.2242 -0.2472
  282CHEX    R1  844   1.413   3.889   3.812 -0.1280 -0.2476  0.3070
  282CHEX    R2  845   1.629   3.737   3.775 -0.5726 -0.0693  0.2464
  282CHEX    R3  846   1.602   4.025   3.909  0.0090  0.3950 -0.0700
  283CHEX    R1  847   2.395   4.719   3.061 -0.3067 -0.0597  0.2673
  283CHEX    R2  848   2.357   4.987   3.138 -0.0899  0.3902 -0.1530
  283CHEX    R3  849   2.497   4.803   3.334 -0.2062  0.1917 -0.1243
  284CHEX    R1  850   1.099   2.557   1.264 -0.2693 -0.4900  0.0157
  284CHEX    R2  851   1.349   2.682   1.225 -0.1156  0.0970  0.3408
  284CHEX    R3  852   1.271   2.489   1.474 -0.0551 -0.1080  0.2783
  285CHEX    R1  853   2.492   4.582   2.380 -0.2032 -0.5910  0.3807
  285CHEX    R2  854   2.500   4.502   2.649 -0.5491 -0.0610  0.3679
  285CHEX    R3  855   2.236   4.559   2.523  0.2622 -0.1846 -0.3590
  286CHEX    R1  856   4.646   1.560   4.020 -0.2154  0.1721  0.1962
  286CHEX    R2  857   4.497   1.383   4.125  0.0837  0.3125  0.0229
  286CHEX    R3  858   4.796   1.337   4.194  0.2465 -0.0495  0.0410
  287CHEX    R1  859   1.103   3.596   2.667  0.4170  0.0426  0.0595
  287CHEX    R2  860   1.311   3.644   2.861 -0.1341 -0.1634  0.0947
  287CHEX    R3  861   1.140   3.863   2.845  0.0318  0.2913 -0.3307
  288CHEX    R1  862   4.038   4.604   0.975 -0.0413 -0.0265 -0.2296
  288CHEX    R2  863   3.977   4.826   1.109 -0.0341  0.1558 -0.2163
  288CHEX    R3  864   3.764   4.654   1.051  0.4949  0.0062  0.0722
  289CHEX    R1  865   4.266   0.546   0.434 -0.0310 -0.4088  0.0224
  289CHEX    R2  866   4.069   0.717   0.308 -0.2240 -0.0306  0.2169
  289CHEX    R3  867   4.135   0.713   0.618  0.1945  0.1601 -0.2466
  290CHEX    R1  868   3.320   1.814   2.863 -0.5470  0.1493  0.0886
  290CHEX    R2  869   3.265   1.962   3.132  0.2215  0.1055 -0.3084
  290CHEX    R3  870   3.488   2.065   2.996 -0.0244  0.2469  0.0204
  291CHEX    R1  871   1.933   0.382   0.305 -0.4642 -0.0644 -0.0577
  291CHEX    R2  872   1.993   0.668   0.353  0.1306  0.1634 -0.1027
  291CHEX    R3  873   1.818   0.538   0.513  0.2524  0.1285 -0.1898
  292CHEX    R1  874   0.481   2.786   1.150 -0.3685  0.1966  0.1108
  292CHEX    R2  875   0.700   2.624   1.015  0.1474 -0.0192 -0.5154
  292CHEX    R3  876   0.578   2.517   1.276 -0.4714 -0.5770  0.3045
  293CHEX    R1  877   2.348   1.517   3.022  0.3408  0.2358 -0.1987
  293CHEX    R2  878   2.410   1.811   2.899 -0.1308 -0.4373 -0.1069
  293CHEX    R3  879   2.605   1.585   2.879 -0.1392 -0.2227 -0.2458
  294CHEX    R1  880   4.420   0.165   4.789 -0.0208  0.1301  0.2564
  294CHEX    R2  881   4.430   0.031   4.534 -0.4211  0.1556  0.0682
  294CHEX    R3  882   4.670  -0.041   4.705  0.3052 -0.0625  0.3213
  295CHEX    R1  883   3.067   1.911   2.300 -0.1163  0.0386 -0.1758
  295CHEX    R2  884   3.235   1.941   2.070  0.0877  0.0636  0.1766
  295CHEX    R3  885   3.281   1.725   2.297  0.6181  0.0088 -0.1282
  296CHEX    R1  886   3.257   1.166   1.821 -0.0438 -0.5508  0.1223
  296CHEX    R2  887   3.216   1.419   1.855 -0.1477 -0.2715  0.0857
  296CHEX    R3  888   3.261   1.240   2.076  0.0083  0.2983 -0.1687
  297CHEX    R1  889   4.785   4.542   2.006 -0.0607 -0.1353  0.3458
  297CHEX    R2  890   4.935   4.405   2.236 -0.2323 -0.0638 -0.2262
  297CHEX    R3  891   4.781   4.273   2.044 -0.3068  0.1165  0.2390
  298CHEX    R1  892   2.102   0.447   2.698  0.1294 -0.1047  0.0032
  298CHEX    R2  893   2.299   0.552   2.850  0.2057 -0.3107 -0.0639
  298CHEX    R3  894   2.095   0.732   2.730  0.1991  0.1330  0.0382
  299CHEX    R1  895   4.624   2.226   4.109  0.2525  0.0211 -0.1883
  299CHEX    R2  896   4.594   1.992   4.296 -0.0618  0.2592  0.1126
  299CHEX    R3  897   4.741   1.967   4.066 -0.0098 -0.4669  0.2223
  300CHEX    R1  898   3.000   1.935   4.180  0.4440 -0.3735 -0.1283
  300CHEX    R2  899   2.768   1.788   4.284  0.2044 -0.2380  0.1121
  300CHEX    R3  900   2.842   1.720   4.026  0.4976  0.2442 -0.1043
  301CHEX    R1  901   2.766   4.030   4.044 -0.1751  0.1729  0.5608
  301CHEX    R2  902   2.538   3.819   4.036 -0.1691 -0.1427 -0.3817
  301CHEX    R3  903   2.489   4.095   3.971  0.3125 -0.3078 -0.2554
  302CHEX    R1  904   4.439   3.775   0.735  0.0642 -0.0830  0.0589
  302CHEX    R2  905   4.425   3.816   1.051 -0.0668 -0.1114  0.2286
  302CHEX    R3  906   4.219   3.889   0.934 -0.2928 -0.1837 -0.0994
  303CHEX    R1  907   4.257   0.167   2.601  0.4240  0.1997 -0.0270
  303CHEX    R2  908   4.395   0.183   2.855  0.2363  0.1438 -0.1503
  303CHEX    R3  909   4.431   0.337   2.583  0.1446  0.2567  0.0078
  304CHEX    R1  910   1.095   2.101   4.644 -0.0792 -0.1160  0.3759
  304CHEX    R2  911   1.344   2.113   4.832  0.3176  0.3991  0.2482
  304CHEX    R3  912   1.113   2.325   4.747 -0.0667  0.2136 -0.0117
  305CHEX    R1  913   1.159   4.929   1.606 -0.0263  0.1883 -0.0900
  305CHEX    R2  914   1.437   4.975   1.545 -0.0197 -0.0053 -0.4579
  305CHEX    R3  915   1.196   5.173   1.477  0.1698 -0.0292 -0.1281
  306CHEX    R1  916   0.290   1.274   4.478  0.4543 -0.2403 -0.1880
  306CHEX    R2  917   0.569   1.327   4.535 -0.0098  0.3994  0.3742
  306CHEX    R3  918   0.427   1.219   4.311 -0.0113 -0.1860 -0.1452
  307CHEX    R1  919   2.535   1.515   2.153  0.1419  0.2015 -0.1143
  307CHEX    R2  920   2.691   1.614   2.388  0.3096  0.0963  0.2232
  307CHEX    R3  921   2.806   1.379   2.233  0.2843  0.1955 -0.0072
  308CHEX    R1  922   4.000   2.099   0.618  0.0535  0.4410  0.1982
  308CHEX    R2  923   4.203   2.014   0.831  0.1268  0.2162  0.3326
  308CHEX    R3  924   3.936   1.906   0.848  0.6061  0.0354  0.0963
  309CHEX    R1  925   0.348   0.028   0.237 -0.0771 -0.2729 -0.2236
  309CHEX    R2  926   0.459   0.262   0.335 -0.0207 -0.2845  0.1397
  309CHEX    R3  927   0.593   0.083   0.179  0.1590  0.2236  0.4537
  310CHEX    R1  928   4.409   1.265   2.535 -0.0212  0.1484 -0.1248
  310CHEX    R2  929   4.416   1.517   2.563 -0.1981 -0.0428 -0.3233
  310CHEX    R3  930   4.535   1.403   2.365 -0.2098  0.2238 -0.0731
  311CHEX    R1  931   2.391   2.626   3.642  0.4294 -0.1516 -0.4699
  311CHEX    R2  932   2.178   2.443   3.772 -0.2278 -0.0873 -0.0252
  311CHEX    R3  933   2.310   2.707   3.895  0.1267 -0.3625  0.1774
  312CHEX    R1  934   2.643   0.999   0.449 -0.1074  0.0544 -0.2488
  312CHEX    R2  935   2.521   0.932   0.692  0.0076  0.0862 -0.1723
  312CHEX    R3  936   2.409   0.816   0.456 -0.4609 -0.1249 -0.4985
  313CHEX    R1  937   3.615   3.366   4.519 -0.2947  0.3179 -0.0407
  313CHEX    R2  938   3.434   3.167   4.657 -0.0110  0.1843 -0.3612
  313CHEX    R3  939   3.600   3.069   4.420 -0.3362 -0.0398  0.2129
  314CHEX    R1  940   1.654   3.320   2.777  0.1428 -0.5121 -0.3895
  314CHEX    R2  941   1.943   3.341   2.813  0.2328  0.1313  0.1466
  314CHEX    R3  942   1.786   3.115   2.717  0.2382  0.2257  0.2419
  315CHEX    R1  943   2.666   0.318   3.112  0.0343  0.1139 -0.3275
  315CHEX    R2  944   2.676   0.247   3.388 -0.4841  0.0316 -0.2962
  315CHEX    R3  945   2.608   0.541   3.270  0.0660 -0.0639  0.0390
  316CHEX    R1  946   0.929   3.984   4.709 -0.2804  0.1389 -0.2406
  316CHEX    R2  947   1.194   3.840   4.656 -0.0077  0.1795  0.0792
  316CHEX    R3  948   1.054   3.833   4.923 -0.3337  0.0471  0.2889
  317CHEX    R1  949   2.563   4.852   0.907 -0.0331 -0.2559  0.3908
  317CHEX    R2  950   2.610   5.134   0.927 -0.1010  0.0754 -0.5636
  317CHEX    R3  951   2.835   4.967   0.850 -0.1578  0.2602  0.1879
  318CHEX    R1  952   0.636   4.626   0.784 -0.0539  0.0569  0.2949
  318CHEX    R2  953   0.742   4.422   0.575 -0.0636  0.0623 -0.2357
  318CHEX    R3  954   0.611   4.646   0.480  0.0995 -0.2021  0.2084
  319CHEX    R1  955   4.290   4.024   4.469 -0.2318  0.1748 -0.0067
  319CHEX    R2  956   4.456   3.740   4.435 -0.1599 -0.3156  0.0430
  319CHEX    R3  957   4.453   3.909   4.247  0.1495  0.1454 -0.3775
  320CHEX    R1  958   3.464   0.193   3.398 -0.1136  0.4185  0.2247
  320CHEX    R2  959   3.278   0.087   3.170 -0.0498  0.1740 -0.3829
  320CHEX    R3  960   3.169   0.269   3.370 -0.0087  0.1655  0.0270
  321CHEX    R1  961   3.008   3.636   3.060 -0.0168 -0.0533  0.2359
  321CHEX    R2  962   3.261   3.500   3.014 -0.0992 -0.1263 -0.2448
  321CHEX    R3  963   3.237   3.586   3.301  0.2915  0.0510  0.1463
  322CHEX    R1  964   1.611   2.130   3.444 -0.0706  0.2995 -0.2817
  322CHEX    R2  965   1.458   2.255   3.657 -0.1854  0.0050 -0.0463
  322CHEX    R3  966   1.352   2.035   3.479 -0.1772 -0.2810 -0.0768
  323CHEX    R1  967   0.976   4.168   4.010  0.1820 -0.3154  0.1667
  323CHEX    R2  968   1.061   3.998   4.218  0.0028  0.0590 -0.0845
  323CHEX    R3  969   1.229   4.232   4.100 -0.2165  0.1069 -0.1308
  324CHEX    R1  970   0.996   3.254   2.376  0.3680 -0.4975  0.0472
  324CHEX    R2  971   1.071   3.167   2.121  0.1812 -0.0285  0.2448
  324CHEX    R3  972   0.951   3.446   2.167  0.0465 -0.0757 -0.1611
  325CHEX    R1  973   2.376   3.131   0.788 -0.2649  0.0567  0.1243
  325CHEX    R2  974   2.331   2.900   0.654  0.1072  0.0169 -0.0394
  325CHEX    R3  975   2.424   2.852   0.929  0.1269  0.0764  0.0590
  326CHEX    R1  976   4.925   2.865   1.024  0.0337 -0.0806  0.1208
  326CHEX    R2  977   4.778   3.048   1.159  0.0109 -0.2030  0.1774
  326CHEX    R3  978   4.879   2.850   1.347  0.2756 -0.3887  0.1925
  327CHEX    R1  979   0.703   3.595   1.512  0.1023 -0.2331 -0.0703
  327CHEX    R2  980   0.823   3.469   1.292 -0.1478  0.0050 -0.1452
  327CHEX    R3  981   0.989   3.579   1.520 -0.3919 -0.0848  0.1911
  328CHEX    R1  982   0.924   1.041   4.569  0.0137 -0.3773 -0.4298
  328CHEX    R2  983   0.808   1.093   4.806 -0.1366  0.0023 -0.2391
  328CHEX    R3  984   0.698   0.846   4.709 -0.1296 -0.2275 -0.0558
  329CHEX    R1  985   0.632   1.935   2.792  0.3633  0.3538 -0.0854
  329CHEX    R2  986   0.391   1.791   2.854  0.3647  0.2565  0.2108
  329CHEX    R3  987   0.365   2.002   2.697  0.1042  0.0996  0.0251
  330CHEX    R1  988   1.100   2.772   1.885  0.0048  0.0825  0.0070
  330CHEX    R2  989   1.112   2.543   2.057  0.1795 -0.2838 -0.5671
  330CHEX    R3  990   1.296   2.605   1.896  0.1376 -0.2248 -0.0584
  331CHEX    R1  991   3.155   1.366   3.818  0.2079 -0.0004  0.0225
  331CHEX    R2  992   3.084   1.147   3.664  0.1016  0.1978  0.0411
  331CHEX    R3  993   3.341   1.163   3.672 -0.2695  0.2859 -0.2679
  332CHEX    R1  994   3.182   0.342   0.895 -0.3219  0.1784 -0.2588
  332CHEX    R2  995   3.161   0.180   1.134  0.2229 -0.0636  0.4549
  332CHEX    R3  996   3.270   0.452   1.147 -0.3081  0.3592 -0.3186
  333CHEX    R1  997   4.896   2.569   1.713 -0.0555  0.1239 -0.0841
  333CHEX    R2  998   5.130   2.395   1.748 -0.2969 -0.2654  0.0247
  333CHEX    R3  999   5.045   2.443   1.447 -0.3343 -0.2278  0.2138
  334CHEX    R1 1000   4.518   3.601   0.230  0.2126  0.1340  0.1357
  334CHEX    R2 1001   4.305   3.665   0.082 -0.0965 -0.0870  0.0970
  334CHEX    R3 1002   4.278   3.525   0.366 -0.0582  0.1150  0.2128
  335CHEX    R1 1003   0.270   3.415   3.147 -0.3543  0.2375 -0.0449
  335CHEX    R2 1004   0.078   3.547   3.241 -0.0209  0.1761  0.1083
  335CHEX    R3 1005  -0.038   3.346   3.076  0.1054 -0.1504 -0.2860
  336CHEX    R1 1006   0.930   2.356   0.693 -0.0917  0.2777  0.1006
  336CHEX    R2 1007   0.785   2.189   0.931 -0.3338  0.0551  0.2670
  336CHEX    R3 1008   1.115   2.136   0.876 -0.0681  0.0490  0.3041
  337CHEX    R1 1009   0.000   0.444   2.176 -0.0689  0.1261 -0.3039
  337CHEX    R2 1010  -0.084   0.373   2.444  0.2989  0.1182  0.0439
  337CHEX    R3 1011  -0.189   0.279   2.237 -0.3863  0.3115 -0.1901
  338CHEX    R1 1012   4.325   1.992   2.568 -0.3303 -0.1372 -0.4960
  338CHEX    R2 1013   4.092   1.868   2.512 -0.2054  0.0188  0.0698
  338CHEX    R3 1014   4.139   2.116   2.710 -0.1457  0.3630 -0.1414
  339CHEX    R1 1015   2.026   1.466   3.349  0.5192 -0.0096  0.1273
  339CHEX    R2 1016   2.050   1.708   3.527 -0.0990  0.2232  0.0024
  339CHEX    R3 1017   2.163   1.525   3.628 -0.0672  0.1590  0.0624
  340CHEX    R1 1018   0.800   3.119   0.434 -0.0476 -0.2184 -0.1554
  340CHEX    R2 1019   0.794   2.832   0.381  0.2655 -0.3154  0.5153
  340CHEX    R3 1020   0.885   2.916   0.621  0.2780  0.0035 -0.3113
  341CHEX    R1 1021   3.614   4.077   1.812 -0.1475  0.5037 -0.0329
  341CHEX    R2 1022   3.771   4.036   1.590  0.4324  0.1273  0.1991
  341CHEX    R3 1023   3.862   4.264   1.755 -0.0082  0.3075 -0.0592
  342CHEX    R1 1024   0.177   1.938   4.917  0.2105 -0.2170  0.0568
  342CHEX    R2 1025   0.360   1.685   4.851 -0.0163 -0.0546 -0.0259
  342CHEX    R3 1026   0.326   1.804   5.121 -0.0743  0.0232 -0.1307
  343CHEX    R1 1027   3.372   4.646   4.492 -0.1594 -0.0096 -0.2916
  343CHEX    R2 1028   3.151   4.822   4.350  0.1291 -0.2084  0.2151
  343CHEX    R3 1029   3.292   4.915   4.608 -0.0584 -0.0349  0.0716
  344CHEX    R1 1030   2.259   0.300   1.419  0.0358 -0.4733  0.0680
  344CHEX    R2 1031   2.190   0.139   1.210 -0.2428 -0.1265 -0.1348
  344CHEX    R3 1032   2.117  -0.003   1.448 -0.0879 -0.0898  0.1084
  345CHEX    R1 1033   0.444   4.660   3.044  0.1585 -0.1358  0.0442
  345CHEX    R2 1034   0.351   4.742   3.284 -0.3203 -0.0063 -0.2174
  345CHEX    R3 1035   0.578   4.514   3.291 -0.1608  0.2627 -0.0961
  346CHEX    R1 1036   0.670   2.346   4.662 -0.1268  0.0886 -0.1552
  346CHEX    R2 1037   0.512   2.117   4.716 -0.0321 -0.1499 -0.2819
  346CHEX    R3 1038   0.585   2.174   4.440 -0.0658 -0.0077  0.1741
  347CHEX    R1 1039   1.152   4.759   2.549  0.0412  0.3693 -0.0824
  347CHEX    R2 1040   1.384   4.668   2.424  0.0603  0.2560  0.1457
  347CHEX    R3 1041   1.361   4.621   2.686 -0.0868  0.7431 -0.0912
  348CHEX    R1 1042   4.870   2.607   0.113 -0.3551  0.3447  0.2566
  348CHEX    R2 1043   4.781   2.382   0.281 -0.4554 -0.0410 -0.1968
  348CHEX    R3 1044   4.881   2.291   0.050  0.1469 -0.1030 -0.2207
  349CHEX    R1 1045   2.126   2.964   4.171 -0.1608 -0.0795 -0.3103
  349CHEX    R2 1046   2.178   3.195   4.227 -0.3327 -0.1955  0.0166
  349CHEX    R3 1047   2.065   3.016   4.455 -0.0304  0.3473  0.1310
  350CHEX    R1 1048   3.525   3.260   1.242 -0.2170  0.0574  0.1308
  350CHEX    R2 1049   3.520   3.443   1.385  0.2558 -0.3599 -0.1393
  350CHEX    R3 1050   3.594   3.493   1.065  0.4620  0.1011 -0.3999
  351CHEX    R1 1051   2.308   0.568   0.898 -0.1065  0.0616 -0.0105
  351CHEX    R2 1052   2.128   0.707   0.808  0.2903 -0.0336 -0.2095
  351CHEX    R3 1053   2.073   0.583   1.078 -0.1745 -0.0391  0.3283
  352CHEX    R1 1054   1.022   2.691   3.910  0.1731 -0.3195 -0.1140
  352CHEX    R2 1055   1.073   2.980   3.961  0.1433 -0.1904 -0.2001
  352CHEX    R3 1056   1.275   2.834   3.785 -0.1536 -0.0233  0.0702
  353CHEX    R1 1057   4.309   4.043   2.096  0.0202 -0.0362  0.1592
  353CHEX    R2 1058   4.198   4.041   1.868  0.1880  0.5229 -0.2880
  353CHEX    R3 1059   4.444   4.012   1.870  0.0346 -0.0954  0.1011
  354CHEX    R1 1060   3.549   1.143   4.665  0.2044  0.0761 -0.0231
  354CHEX    R2 1061   3.549   1.429   4.606 -0.5753 -0.3911 -0.1448
  354CHEX    R3 1062   3.324   1.251   4.555  0.0489  0.0331 -0.0362
  355CHEX    R1 1063   0.794   4.221   1.768  0.2911  0.1108  0.0359
  355CHEX    R2 1064   0.801   3.906   1.879  0.5002  0.3090 -0.4215
  355CHEX    R3 1065   0.574   4.092   1.919 -0.4358  0.0534  0.2640
  356CHEX    R1 1066   4.266   1.079   3.668 -0.3507  0.1698 -0.2224
  356CHEX    R2 1067   4.084   1.159   3.851  0.5108 -0.0360 -0.1483
  356CHEX    R3 1068   4.316   0.974   3.933  0.0149 -0.0475  0.1989
  357CHEX    R1 1069   1.700   4.052   1.462  0.1571  0.1604  0.1644
  357CHEX    R2 1070   1.839   4.012   1.232  0.2018  0.0641 -0.0296
  357CHEX    R3 1071   1.598   3.842   1.255 -0.2532  0.0087  0.4910
  358CHEX    R1 1072   1.948   2.576   1.515 -0.0176 -0.3532  0.3818
  358CHEX    R2 1073   1.763   2.748   1.573  0.5907 -0.6045  0.3181
  358CHEX    R3 1074   1.728   2.571   1.350 -0.2749 -0.0925 -0.1030
  359CHEX    R1 1075   4.516   2.830   0.342 -0.1237 -0.5460  0.2019
  359CHEX    R2 1076   4.435   3.064   0.427  0.2352 -0.0649 -0.2768
  359CHEX    R3 1077   4.242   2.856   0.362 -0.0256  0.0792  0.1346
  360CHEX    R1 1078   0.871   1.470   3.067 -0.1853  0.4028  0.1879
  360CHEX    R2 1079   0.985   1.391   2.812  0.2784 -0.2311 -0.1134
  360CHEX    R3 1080   0.890   1.153   2.986 -0.1353  0.0111 -0.3029
  361CHEX    R1 1081   0.675   2.220   1.591  0.1167  0.2650  0.0589
  361CHEX    R2 1082   0.859   2.422   1.690 -0.2024 -0.0962  0.1317
  361CHEX    R3 1083   0.599   2.366   1.821  0.0131  0.0825  0.1495
  362CHEX    R1 1084   2.394   1.238   2.661  0.0040  0.3748 -0.0558
  362CHEX    R2 1085   2.447   0.935   2.643 -0.0930  0.1326 -0.0102
  362CHEX    R3 1086   2.577   1.076   2.472  0.1635 -0.0645  0.0483
  363CHEX    R1 1087   4.646   1.829   4.748  0.4172  0.1807  0.0276
  363CHEX    R2 1088   4.827   1.715   4.568 -0.3092  0.0273  0.2803
  363CHEX    R3 1089   4.702   1.539   4.756 -0.2368  0.2961  0.1852
  364CHEX    R1 1090   2.548   3.842   0.293 -0.0681  0.2890 -0.2322
  364CHEX    R2 1091   2.432   3.793   0.498 -0.4417  0.3469  0.4535
  364CHEX    R3 1092   2.582   3.973   0.578  0.1983 -0.1893  0.4353
  365CHEX    R1 1093   3.714   3.168   3.110  0.2042 -0.1019 -0.3563
  365CHEX    R2 1094   3.620   2.876   3.202  0.3180 -0.0200  0.3567
  365CHEX    R3 1095   3.745   2.885   2.971 -0.4150  0.0029 -0.5746
  366CHEX    R1 1096   4.880   2.236   3.601 -0.0726 -0.0616 -0.0530
  366CHEX    R2 1097   5.046   2.471   3.710 -0.2938 -0.2455  0.0279
  366CHEX    R3 1098   5.073   2.173   3.783 -0.0722  0.1140  0.6130
  367CHEX    R1 1099   2.386   0.341   0.378  0.2782 -0.1839 -0.1743
  367CHEX    R2 1100   2.521   0.043   0.407  0.0348 -0.2163 -0.3661
  367CHEX    R3 1101   2.655   0.243   0.473 -0.1334 -0.3375 -0.0219
  368CHEX    R1 1102   4.527   1.219   3.258 -0.1649  0.1925  0.3191
  368CHEX    R2 1103   4.395   1.356   3.014  0.0287  0.4087 -0.0312
  368CHEX    R3 1104   4.545   1.529   3.240  0.0025 -0.2527  0.3786
  369CHEX    R1 1105   1.935   1.769   2.968 -0.1754 -0.1185 -0.1308
  369CHEX    R2 1106   1.972   2.018   3.131 -0.0022  0.2151  0.2112
  369CHEX    R3 1107   1.738   1.818   3.146 -0.4356 -0.2505 -0.1002
  370CHEX    R1 1108   2.708   3.921   4.742  0.1968 -0.1973 -0.1016
  370CHEX    R2 1109   2.648   3.654   4.645  0.3267  0.2199 -0.3510
  370CHEX    R3 1110   2.730   3.843   4.487  0.0202 -0.5547  0.3403
  371CHEX    R1 1111   0.258   0.166   1.980 -0.3118  0.2402 -0.2251
  371CHEX    R2 1112   0.280   0.103   2.273 -0.5558  0.0212 -0.0033
  371CHEX    R3 1113   0.173  -0.096   2.054 -0.0298 -0.0653  0.1071
  372CHEX    R1 1114   0.621   2.764   3.187  0.3571 -0.0211  0.0688
  372CHEX    R2 1115   0.500   2.638   3.389  0.3388 -0.4042  0.4185
  372CHEX    R3 1116   0.333   2.636   3.196  0.0125  0.3696  0.0694
  373CHEX    R1 1117   4.141   2.847   3.426  0.3962 -0.0965  0.3833
  373CHEX    R2 1118   4.180   3.046   3.639  0.0382  0.2516 -0.2217
  373CHEX    R3 1119   3.886   2.985   3.571  0.5332  0.1128  0.2182
  374CHEX    R1 1120   1.222   4.800   3.089  0.0817 -0.2422  0.0945
  374CHEX    R2 1121   1.239   5.089   2.999 -0.1256  0.0804  0.1607
  374CHEX    R3 1122   1.310   4.992   3.266  0.1747 -0.0432  0.2491
  375CHEX    R1 1123   3.326   2.223   1.641  0.6407  0.3366  0.2595
  375CHEX    R2 1124   3.275   2.350   1.376 -0.0911 -0.3758  0.1675
  375CHEX    R3 1125   3.510   2.367   1.508 -0.2889 -0.0987 -0.0664
  376CHEX    R1 1126   0.522   2.842   3.765  0.1524 -0.3765 -0.0330
  376CHEX    R2 1127   0.549   3.116   3.825  0.5578  0.2078  0.2072
  376CHEX    R3 1128   0.710   2.953   3.625 -0.1895 -0.0135 -0.2883
  377CHEX    R1 1129   2.626   3.677   0.960  0.2441 -0.0756  0.3911
  377CHEX    R2 1130   2.841   3.672   0.745 -0.1566 -0.3091  0.0385
  377CHEX    R3 1131   2.631   3.499   0.785 -0.2186 -0.0828 -0.0252
  378CHEX    R1 1132   1.555   4.191   3.378  0.4418  0.2179  0.2496
  378CHEX    R2 1133   1.585   3.948   3.372 -0.1734 -0.2756  0.1052
  378CHEX    R3 1134   1.407   4.091   3.173 -0.0468 -0.1807 -0.1713
  379CHEX    R1 1135   2.582   3.200   1.978 -0.1620 -0.2645 -0.0776
  379CHEX    R2 1136   2.739   3.163   1.720 -0.3700 -0.5783 -0.6912
  379CHEX    R3 1137   2.824   3.068   1.970  0.0695  0.0185  0.1036
  380CHEX    R1 1138   2.059   2.121   2.604 -0.1063 -0.1477  0.0050
  380CHEX    R2 1139   1.945   2.166   2.369 -0.0342 -0.1438  0.4351
  380CHEX    R3 1140   1.799   2.249   2.612  0.0945  0.3761  0.1338
  381CHEX    R1 1141   3.972   4.298   2.259 -0.1784 -0.0222  0.1374
  381CHEX    R2 1142   3.723   4.174   2.266 -0.2031 -0.0835 -0.1588
  381CHEX    R3 1143   3.744   4.440   2.351  0.2005 -0.0215 -0.1720
  382CHEX    R1 1144   3.583   2.509   2.120  0.2563 -0.3028 -0.1734
  382CHEX    R2 1145   3.335   2.345   2.109 -0.3566 -0.3193 -0.1520
  382CHEX    R3 1146   3.347   2.579   1.908  0.0712 -0.0043 -0.0234
  383CHEX    R1 1147   1.626   0.722   3.064 -0.1537  0.4216  0.0373
  383CHEX    R2 1148   1.578   0.523   2.970 -0.0486  0.0309 -0.3749
  383CHEX    R3 1149   1.645   0.754   2.793 -0.1779  0.1043  0.3932
  384CHEX    R1 1150   2.926   0.625   0.526  0.5106  0.3607 -0.0888
  384CHEX    R2 1151   2.816   0.633   0.281 -0.4367  0.0663  0.0798
  384CHEX    R3 1152   3.081   0.652   0.300  0.2180 -0.2828  0.1620
  385CHEX    R1 1153   3.085   1.714   4.745  0.2736  0.5380  0.2181
  385CHEX    R2 1154   2.984   1.510   4.612  0.3274  0.1003  0.1005
  385CHEX    R3 1155   3.132   1.664   4.455 -0.0545 -0.0802 -0.3782
  386CHEX    R1 1156   0.984   2.138   2.555 -0.4894  0.0770  0.1630
  386CHEX    R2 1157   0.984   2.134   2.258 -0.0240  0.4644 -0.0079
  386CHEX    R3 1158   0.756   2.290   2.423 -0.0727 -0.1440  0.0173
  387CHEX    R1 1159   2.175   1.692   2.529 -0.1575  0.0433  0.0581
  387CHEX    R2 1160   2.278   1.851   2.326  0.4270 -0.1921  0.0061
  387CHEX    R3 1161   2.027   1.656   2.299  0.1794  0.0391 -0.3176
  388CHEX    R1 1162   3.495   4.627   2.694  0.0226 -0.0993 -0.1907
  388CHEX    R2 1163   3.256   4.626   2.837 -0.0567  0.3104  0.1316
  388CHEX    R3 1164   3.364   4.884   2.781 -0.0074  0.2314  0.0431
  389CHEX    R1 1165   2.362   2.031   3.414  0.0691  0.2008  0.3115
  389CHEX    R2 1166   2.522   1.817   3.404  0.3326  0.4938  0.4947
  389CHEX    R3 1167   2.477   1.940   3.660 -0.4211 -0.2526 -0.3630
  390CHEX    R1 1168   1.856   2.778   0.565  0.1146 -0.1319  0.0780
  390CHEX    R2 1169   1.968   2.675   0.799  0.1052 -0.1397  0.2690
  390CHEX    R3 1170   1.836   2.499   0.567  0.2894  0.0098 -0.0902
  391CHEX    R1 1171   0.681   0.608   2.365 -0.0783  0.2087 -0.2100
  391CHEX    R2 1172   0.703   0.746   2.130  0.1935 -0.2358 -0.2336
  391CHEX    R3 1173   0.429   0.622   2.200  0.0084  0.1971 -0.1057
  392CHEX    R1 1174   2.979   0.303   4.415 -0.3218  0.0278 -0.2286
  392CHEX    R2 1175   2.688   0.313   4.318 -0.1515  0.2741  0.1606
  392CHEX    R3 1176   2.896   0.269   4.118 -0.1221  0.2956  0.2231
  393CHEX    R1 1177   3.905   4.819   2.663 -0.4240  0.1086 -0.0360
  393CHEX    R2 1178   4.105   4.662   2.634 -0.1465 -0.3764  0.1152
  393CHEX    R3 1179   4.008   4.761   2.389 -0.1605  0.1288 -0.3402
  394CHEX    R1 1180   2.682   0.667   3.833  0.1715  0.3661 -0.1533
  394CHEX    R2 1181   2.795   0.779   3.609 -0.3807  0.0289  0.0506
  394CHEX    R3 1182   2.907   0.526   3.694 -0.2930  0.0740  0.2284
  395CHEX    R1 1183   4.114   2.861   4.036 -0.4687  0.0132  0.1020
  395CHEX    R2 1184   4.136   2.562   4.093  0.0635  0.0167  0.0478
  395CHEX    R3 1185   4.230   2.761   4.299  0.2104 -0.3386  0.5692
  396CHEX    R1 1186   2.864   4.091   3.035 -0.0762 -0.1468  0.2133
  396CHEX    R2 1187   2.750   3.958   2.807  0.0955 -0.0574 -0.2881
  396CHEX    R3 1188   2.882   4.203   2.780  0.1786 -0.1159 -0.0534
  397CHEX    R1 1189   2.692   1.538   1.012 -0.0872 -0.1095 -0.1262
  397CHEX    R2 1190   2.546   1.409   0.764 -0.2948 -0.0864  0.0847
  397CHEX    R3 1191   2.747   1.263   0.910  0.1216 -0.4347  0.2215
  398CHEX    R1 1192   4.691   2.652   3.506  0.6325  0.2687 -0.2932
  398CHEX    R2 1193   4.489   2.731   3.699  0.4416 -0.3278  0.1088
  398CHEX    R3 1194   4.575   2.916   3.448 -0.0629  0.2273 -0.3761
  399CHEX    R1 1195   2.820   4.262   0.090  0.1430  0.0363 -0.1859
  399CHEX    R2 1196   2.510   4.285  -0.016 -0.3926  0.1063  0.0462
  399CHEX    R3 1197   2.566   4.337   0.250 -0.1942  0.1525 -0.0771
  400CHEX    R1 1198   1.029   3.396   4.877 -0.0010  0.1012  0.2226
  400CHEX    R2 1199   1.084   3.315   4.573 -0.0981  0.0891  0.1344
  400CHEX    R3 1200   0.872   3.499   4.668  0.0094 -0.0215 -0.2738
  401CHEX    R1 1201   4.551   1.704   0.943  0.0288 -0.0520 -0.0486
  401CHEX    R2 1202   4.612   1.894   0.675  0.0726  0.0113 -0.0577
  401CHEX    R3 1203   4.720   1.914   0.944 -0.0986  0.2206 -0.1925
  402CHEX    R1 1204   4.050   3.438   3.835 -0.0617 -0.4857  0.1360
  402CHEX    R2 1205   4.110   3.691   3.676 -0.1212 -0.4059  0.3155
  402CHEX    R3 1206   4.243   3.598   3.932 -0.1451 -0.0226 -0.1233
  403CHEX    R1 1207   0.495   0.369   1.277  0.0221  0.0473  0.0895
  403CHEX    R2 1208   0.667   0.122   1.324 -0.0588 -0.4953  0.1232
  403CHEX    R3 1209   0.778   0.355   1.227 -0.1729  0.1676 -0.0406
  404CHEX    R1 1210   3.276   2.542   4.537  0.0771  0.1155 -0.3818
  404CHEX    R2 1211   3.037   2.729   4.566 -0.2142 -0.0074  0.0352
  404CHEX    R3 1212   3.282   2.765   4.419  0.1827 -0.2280 -0.2887
  405CHEX    R1 1213   0.158   1.915   1.306 -0.0120 -0.1010  0.1789
  405CHEX    R2 1214   0.427   2.015   1.236 -0.3754  0.1519  0.2319
  405CHEX    R3 1215   0.353   1.923   1.483 -0.0730  0.4396  0.3160
  406CHEX    R1 1216   1.180   3.831   1.150 -0.0321 -0.2851 -0.0098
  406CHEX    R2 1217   1.051   3.705   0.968  0.1906 -0.0837  0.1051
  406CHEX    R3 1218   1.289   3.586   1.058  0.0975  0.1976 -0.1880
  407CHEX    R1 1219   2.934   4.945   3.703  0.0749  0.2396  0.0456
  407CHEX    R2 1220   3.090   4.822   3.885 -0.0497  0.2552  0.0743
  407CHEX    R3 1221   3.154   5.077   3.793 -0.1815  0.3085 -0.3617
  408CHEX    R1 1222   2.635   0.396   1.631 -0.1982 -0.3005  0.2478
  408CHEX    R2 1223   2.925   0.343   1.506  0.0222  0.0622  0.0808
  408CHEX    R3 1224   2.656   0.361   1.365 -0.1445 -0.2268  0.0985
  409CHEX    R1 1225   0.665   4.801   3.764  0.3877  0.2084 -0.3365
  409CHEX    R2 1226   0.365   4.816   3.768  0.1722 -0.2981 -0.0033
  409CHEX    R3 1227   0.470   4.670   3.999 -0.1616 -0.1318 -0.0084
  410CHEX    R1 1228   0.750   0.970   0.280  0.3946 -0.2920 -0.2119
  410CHEX    R2 1229   0.492   0.786   0.297 -0.0687 -0.0172 -0.1280
  410CHEX    R3 1230   0.776   0.696   0.324 -0.1745 -0.0801  0.1635
  411CHEX    R1 1231   4.432   2.957   0.919  0.0333  0.1288 -0.1094
  411CHEX    R2 1232   4.440   2.779   1.116 -0.1865  0.0542 -0.1779
  411CHEX    R3 1233   4.177   2.851   0.962  0.2676 -0.5552  0.0280
  412CHEX    R1 1234   3.463   3.538   3.720  0.0676 -0.1873 -0.1803
  412CHEX    R2 1235   3.683   3.430   3.577  0.2338  0.4924 -0.0511
  412CHEX    R3 1236   3.581   3.703   3.549 -0.1365  0.0789 -0.1018
  413CHEX    R1 1237   1.844   2.671   3.997 -0.2283 -0.5430 -0.0867
  413CHEX    R2 1238   1.590   2.558   3.952 -0.2257 -0.1387 -0.5478
  413CHEX    R3 1239   1.787   2.412   4.029 -0.1081 -0.0617 -0.3415
  414CHEX    R1 1240   0.835   4.938   4.540  0.4286 -0.2214  0.1513
  414CHEX    R2 1241   0.717   4.792   4.769  0.0060  0.0005 -0.4116
  414CHEX    R3 1242   0.842   5.061   4.763  0.2243 -0.1978  0.2618
  415CHEX    R1 1243   3.515   0.120   0.428  0.1775 -0.2411  0.0713
  415CHEX    R2 1244   3.328  -0.015   0.242 -0.1057  0.1574  0.5803
  415CHEX    R3 1245   3.230   0.238   0.463 -0.1511  0.1112 -0.1975
  416CHEX    R1 1246   2.795   0.628   2.009  0.0891  0.4272  0.1469
  416CHEX    R2 1247   2.757   0.895   2.046 -0.3764  0.3895  0.1043
  416CHEX    R3 1248   2.556   0.759   1.867  0.5569 -0.0522  0.0942
  417CHEX    R1 1249   3.679   2.422   4.674 -0.4426  0.2825 -0.1093
  417CHEX    R2 1250   3.768   2.603   4.413  0.0127  0.1004  0.0150
  417CHEX    R3 1251   3.718   2.299   4.434  0.3693  0.1660 -0.4355
  418CHEX    R1 1252   3.042   2.485   4.941  0.1520  0.0065  0.0230
  418CHEX    R2 1253   2.988   2.406   5.236 -0.2166 -0.1473 -0.1521
  418CHEX    R3 1254   3.216   2.284   5.058  0.2659  0.0392 -0.1525
  419CHEX    R1 1255   2.566   3.087   3.203  0.2291 -0.2343 -0.3520
  419CHEX    R2 1256   2.746   3.139   3.014 -0.5191 -0.1896 -0.5673
  419CHEX    R3 1257   2.767   2.910   3.087 -0.1162 -0.0861  0.5023
  420CHEX    R1 1258   1.195   4.167   2.462 -0.4128  0.4132 -0.0130
  420CHEX    R2 1259   1.347   3.927   2.465  0.4254  0.3115  0.5748
  420CHEX    R3 1260   1.205   3.981   2.207 -0.0016 -0.3300 -0.0249
  421CHEX    R1 1261   1.985   4.682   1.762 -0.3579  0.4360  0.0882
  421CHEX    R2 1262   1.762   4.844   1.763 -0.3291 -0.0417  0.3163
  421CHEX    R3 1263   2.003   4.968   1.875  0.5426 -0.1279  0.2535
  422CHEX    R1 1264   2.255   4.668   0.206 -0.2311 -0.2981 -0.0587
  422CHEX    R2 1265   1.973   4.619   0.104 -0.0368 -0.0700 -0.0975
  422CHEX    R3 1266   2.130   4.870   0.026  0.2330 -0.2798  0.0435
  423CHEX    R1 1267   4.135   4.663   1.866  0.1634  0.3292 -0.4778
  423CHEX    R2 1268   4.309   4.517   2.062  0.0833  0.0190 -0.0579
  423CHEX    R3 1269   4.373   4.609   1.804 -0.0034  0.3670  0.1894
  424CHEX    R1 1270   2.578   3.365   4.320 -0.1186  0.4319 -0.1013
  424CHEX    R2 1271   2.828   3.400   4.075  0.1460  0.1037 -0.4111
  424CHEX    R3 1272   2.571   3.339   4.021 -0.0789 -0.4213 -0.4048
  425CHEX    R1 1273   4.206   1.572   4.829 -0.1366  0.0673 -0.2572
  425CHEX    R2 1274   3.991   1.584   4.641 -0.0583 -0.5016  0.1501
  425CHEX    R3 1275   4.283   1.484   4.568  0.0172  0.1797 -0.0531
  426CHEX    R1 1276   0.069   3.152   3.538 -0.2341  0.0826  0.1073
  426CHEX    R2 1277   0.238   3.019   3.388  0.1673 -0.3040 -0.3735
  426CHEX    R3 1278   0.093   2.870   3.551  0.1678 -0.0962 -0.0209
  427CHEX    R1 1279   3.780   0.039   3.084  0.2504 -0.0896  0.2274
  427CHEX    R2 1280   3.989  -0.136   3.217 -0.1095 -0.0640  0.1358
  427CHEX    R3 1281   4.054   0.138   3.117  0.0819 -0.0196 -0.0096
  428CHEX    R1 1282   2.894   3.165   4.633 -0.0905 -0.2153  0.0825
  428CHEX    R2 1283   3.054   3.031   4.887 -0.1920 -0.3595  0.2232
  428CHEX    R3 1284   3.029   3.324   4.805  0.1486 -0.4634  0.2252
  429CHEX    R1 1285   3.665   1.131   0.153  0.1366 -0.2295  0.3755
  429CHEX    R2 1286   3.890   1.255   0.016  0.0750  0.0205  0.0249
  429CHEX    R3 1287   3.835   1.004  -0.042 -0.3720  0.2345  0.0224
  430CHEX    R1 1288   0.565   3.222   2.016 -0.1553 -0.0589  0.1250
  430CHEX    R2 1289   0.381   3.376   1.830  0.1286 -0.2631 -0.1296
  430CHEX    R3 1290   0.544   3.530   1.997 -0.1137  0.4482 -0.1321
  431CHEX    R1 1291   4.901   0.083   4.083  0.4109  0.0515  0.0443
  431CHEX    R2 1292   4.808  -0.097   4.286  0.0760  0.4869  0.0063
  431CHEX    R3 1293   4.967  -0.194   4.096 -0.2078 -0.2383 -0.3227
  432CHEX    R1 1294   4.120   1.186   4.316 -0.2226  0.1064  0.0381
  432CHEX    R2 1295   4.167   0.925   4.354 -0.1514  0.4090  0.1814
  432CHEX    R3 1296   4.013   1.041   4.552 -0.1652 -0.1906  0.3010
  433CHEX    R1 1297   3.556   3.819   2.450  0.2390  0.2009  0.4959
  433CHEX    R2 1298   3.433   3.761   2.205 -0.0692 -0.1337 -0.2430
  433CHEX    R3 1299   3.281   3.667   2.485  0.2816 -0.0318 -0.2659
  434CHEX    R1 1300   3.636   0.479   3.085  0.0497  0.1548  0.1643
  434CHEX    R2 1301   3.860   0.444   3.331  0.0177 -0.2276 -0.0551
  434CHEX    R3 1302   3.783   0.708   3.227 -0.0254  0.1653  0.2575
  435CHEX    R1 1303   1.402   3.652   0.137  0.1715 -0.0424 -0.5759
  435CHEX    R2 1304   1.697   3.577   0.052 -0.2342 -0.2429 -0.0954
  435CHEX    R3 1305   1.584   3.818  -0.052  0.0557 -0.2058  0.1868
  436CHEX    R1 1306   2.150   2.882   3.198  0.1703  0.0176 -0.1095
  436CHEX    R2 1307   2.028   3.094   3.149  0.1804 -0.3765 -0.4066
  436CHEX    R3 1308   2.208   2.962   2.954 -0.3408  0.1303  0.2909
  437CHEX    R1 1309   4.516   3.449   1.279  0.1747 -0.1836  0.0015
  437CHEX    R2 1310   4.829   3.456   1.303  0.3262  0.1690 -0.6424
  437CHEX    R3 1311   4.670   3.662   1.362  0.0088  0.1097 -0.3392
  438CHEX    R1 1312   2.191   0.233   4.679 -0.0346 -0.2202  0.2287
  438CHEX    R2 1313   2.203   0.197   4.420 -0.2049 -0.1653 -0.3918
  438CHEX    R3 1314   2.121   0.448   4.501  0.0728 -0.1825  0.2493
  439CHEX    R1 1315   3.717   0.261   1.075 -0.0284 -0.0318 -0.0452
  439CHEX    R2 1316   3.772   0.149   0.855  0.3966  0.3165  0.0203
  439CHEX    R3 1317   3.964   0.318   0.933 -0.1390  0.1563  0.2485
  440CHEX    R1 1318   1.968   3.662   0.931 -0.1659  0.0750 -0.0382
  440CHEX    R2 1319   1.877   3.494   1.104  0.2711  0.1080  0.2663
  440CHEX    R3 1320   2.184   3.499   0.957  0.1647 -0.1252 -0.1359
  441CHEX    R1 1321   2.862   4.506   1.977  0.1683  0.0651  0.1561
  441CHEX    R2 1322   2.828   4.242   1.898  0.2549 -0.4732  0.1723
  441CHEX    R3 1323   2.742   4.448   1.708 -0.0180 -0.2030 -0.4753
  442CHEX    R1 1324   1.388   3.024   2.992  0.2003  0.0333 -0.0670
  442CHEX    R2 1325   1.605   2.996   3.191  0.4280 -0.3941 -0.2492
  442CHEX    R3 1326   1.349   3.088   3.319 -0.1971 -0.1936 -0.1120
  443CHEX    R1 1327   4.777   4.042   3.666 -0.2274 -0.1454  0.2021
  443CHEX    R2 1328   4.580   4.166   3.489  0.0489  0.0727  0.3785
  443CHEX    R3 1329   4.510   3.996   3.742 -0.1742 -0.2157  0.2656
  444CHEX    R1 1330   2.209   1.691   4.910  0.2428  0.3738 -0.1783
  444CHEX    R2 1331   1.998   1.592   4.693 -0.1620 -0.1923  0.1525
  444CHEX    R3 1332   2.089   1.483   4.994 -0.6150  0.7234  0.0987
  445CHEX    R1 1333   4.367   2.328   3.342 -0.0296  0.3600 -0.0259
  445CHEX    R2 1334   4.436   2.029   3.240 -0.2559 -0.3423 -0.1248
  445CHEX    R3 1335   4.209   2.111   3.160 -0.0897  0.4272 -0.1517
  446CHEX    R1 1336   0.199   0.441   2.755 -0.2775 -0.1437  0.1250
  446CHEX    R2 1337   0.393   0.634   2.686 -0.0068  0.0968  0.2022
  446CHEX    R3 1338   0.149   0.717   2.636  0.2806 -0.2619 -0.2339
  447CHEX    R1 1339   2.854   0.501   4.818  0.3009  0.0500 -0.3053
  447CHEX    R2 1340   2.711   0.277   4.884 -0.2862  0.0353 -0.1378
  447CHEX    R3 1341   2.968   0.267   4.961  0.0824 -0.2394  0.2881
  448CHEX    R1 1342   1.317   0.589   0.333  0.1359  0.0541 -0.2180
  448CHEX    R2 1343   1.314   0.444   0.579  0.0750 -0.1351 -0.2427
  448CHEX    R3 1344   1.131   0.674   0.592 -0.4090 -0.1109 -0.3438
  449CHEX    R1 1345   3.492   4.469   1.574  0.0496 -0.5030  0.3907
  449CHEX    R2 1346   3.202   4.434   1.612 -0.1210  0.0519  0.0347
  449CHEX    R3 1347   3.338   4.508   1.340 -0.2612 -0.0710  0.1736
  450CHEX    R1 1348   0.853   1.510   1.526  0.1624 -0.1898 -0.1064
  450CHEX    R2 1349   0.618   1.523   1.485  0.3288 -0.2210 -0.1548
  450CHEX    R3 1350   0.710   1.729   1.658 -0.1696 -0.0199  0.3754
  451CHEX    R1 1351   2.797   2.351   1.441 -0.0202  0.3067 -0.3785
  451CHEX    R2 1352   2.905   2.157   1.539  0.2171  0.2064  0.2612
  451CHEX    R3 1353   2.708   2.088   1.347 -0.0801  0.1741  0.1174
  452CHEX    R1 1354   2.319   1.860   4.481  0.0967 -0.1614 -0.1536
  452CHEX    R2 1355   2.107   2.105   4.428 -0.0420 -0.0025  0.4179
  452CHEX    R3 1356   2.317   2.156   4.577 -0.2069  0.0529 -0.1343
  453CHEX    R1 1357   0.269   0.878   0.954  0.3754 -0.1289  0.1757
  453CHEX    R2 1358   0.093   1.140   1.007 -0.0903 -0.1929 -0.0485
  453CHEX    R3 1359   0.338   1.112   1.120 -0.0516  0.2245  0.0095
  454CHEX    R1 1360   0.315   2.132   3.406 -0.4068 -0.1830  0.1839
  454CHEX    R2 1361   0.539   2.064   3.202  0.2214 -0.0108 -0.2834
  454CHEX    R3 1362   0.386   1.861   3.359 -0.1091 -0.1875 -0.5581
  455CHEX    R1 1363   1.391   3.029   1.440 -0.2292 -0.1569 -0.3009
  455CHEX    R2 1364   1.540   3.315   1.427  0.1462  0.1827 -0.4225
  455CHEX    R3 1365   1.254   3.250   1.361  0.6008  0.3179 -0.1909
  456CHEX    R1 1366   1.543   3.538   4.444 -0.0979  0.4542 -0.0567
  456CHEX    R2 1367   1.393   3.644   4.181  0.0910  0.1562 -0.2554
  456CHEX    R3 1368   1.654   3.677   4.236  0.1733 -0.0140 -0.0779
  457CHEX    R1 1369   3.958   2.677   4.953  0.0194 -0.1060  0.1274
  457CHEX    R2 1370   4.087   2.601   4.696 -0.3036  0.2568  0.1294
  457CHEX    R3 1371   4.292   2.702   4.883  0.0709  0.3432 -0.1158
  458CHEX    R1 1372   0.222   4.280   0.206  0.0554 -0.0542  0.2019
  458CHEX    R2 1373  -0.064   4.258   0.135 -0.0722  0.0697 -0.1031
  458CHEX    R3 1374   0.029   4.274  -0.080 -0.0301 -0.1830 -0.3491
  459CHEX    R1 1375   0.975   2.086   0.130 -0.3564 -0.1838  0.1613
  459CHEX    R2 1376   0.722   2.133   0.114 -0.1179  0.0825 -0.0268
  459CHEX    R3 1377   0.855   2.382   0.158 -0.4115  0.0423  0.1029
  460CHEX    R1 1378   4.456   0.664   3.574 -0.1472  0.1021 -0.0243
  460CHEX    R2 1379   4.724   0.788   3.466  0.1328  0.0027  0.1173
  460CHEX    R3 1380   4.666   0.735   3.746  0.1624 -0.0287  0.0304
  461CHEX    R1 1381   2.198   3.594   4.452 -0.3497 -0.2498 -0.2527
  461CHEX    R2 1382   1.970   3.718   4.521  0.2711 -0.1742 -0.2788
  461CHEX    R3 1383   1.966   3.442   4.570 -0.0645  0.1589 -0.3584
  462CHEX    R1 1384   1.849   1.407   2.702  0.0305 -0.0517  0.0657
  462CHEX    R2 1385   1.779   1.307   2.420 -0.0385  0.2669  0.2709
  462CHEX    R3 1386   1.955   1.169   2.558  0.1830  0.1406 -0.0846
  463CHEX    R1 1387   0.460   1.763   4.348 -0.3630  0.0360 -0.3938
  463CHEX    R2 1388   0.276   1.916   4.185 -0.1712  0.4834  0.1555
  463CHEX    R3 1389   0.217   1.661   4.212  0.3919  0.3163 -0.1035
  464CHEX    R1 1390   0.076   4.683   4.841  0.0449  0.2867 -0.2458
  464CHEX    R2 1391   0.316   4.822   4.816  0.0029  0.2362  0.0127
  464CHEX    R3 1392   0.145   4.853   4.605 -0.2090  0.2885  0.3334
  465CHEX    R1 1393   4.712   4.682   2.624 -0.2038 -0.2430 -0.0723
  465CHEX    R2 1394   4.561   4.839   2.467 -0.2292 -0.0632 -0.1617
  465CHEX    R3 1395   4.861   4.818   2.416 -0.0578 -0.2752  0.4941
  466CHEX    R1 1396   1.593   2.497   2.225 -0.1576 -0.4358  0.3147
  466CHEX    R2 1397   1.401   2.312   2.354  0.3055 -0.3863  0.0551
  466CHEX    R3 1398   1.547   2.259   2.100  0.3077  0.0994  0.1054
  467CHEX    R1 1399   2.585   1.355   3.408  0.2845  0.4571  0.3288
  467CHEX    R2 1400   2.717   1.520   3.662 -0.0796 -0.3251  0.2803
  467CHEX    R3 1401   2.655   1.225   3.639  0.0086 -0.0394  0.0763
  468CHEX    R1 1402   3.296   4.015   1.435  0.3689 -0.0772 -0.0333
  468CHEX    R2 1403   3.255   3.871   1.697  0.1810  0.0091  0.3124
  468CHEX    R3 1404   3.055   4.002   1.587  0.0286  0.0218 -0.1443
  469CHEX    R1 1405   2.956   3.186   3.715 -0.0348  0.2952  0.4959
  469CHEX    R2 1406   3.066   3.394   3.649  0.1246 -0.4422 -0.1253
  469CHEX    R3 1407   2.859   3.269   3.457  0.1067 -0.2046 -0.1545
  470CHEX    R1 1408   3.081   1.598   3.407 -0.3098  0.1573 -0.3932
  470CHEX    R2 1409   2.967   1.591   3.143 -0.2602  0.5384 -0.2192
  470CHEX    R3 1410   3.072   1.354   3.273  0.3131  0.1879 -0.0505
  471CHEX    R1 1411   3.925   3.139   4.913  0.1867 -0.2536 -0.1345
  471CHEX    R2 1412   3.922   3.158   5.217 -0.4202  0.1288 -0.2882
  471CHEX    R3 1413   4.146   3.216   5.044 -0.5035  0.3004 -0.1589
  472CHEX    R1 1414   1.598   3.419   2.182  0.1394  0.0389 -0.1635
  472CHEX    R2 1415   1.377   3.479   2.363 -0.3384  0.2655  0.0013
  472CHEX    R3 1416   1.484   3.221   2.350  0.0570 -0.2844 -0.2393
  473CHEX    R1 1417   2.170   4.100   2.124 -0.0525  0.2060 -0.2841
  473CHEX    R2 1418   2.399   4.235   2.120  0.3434 -0.1101 -0.0968
  473CHEX    R3 1419   2.125   4.386   2.111 -0.4314  0.2975  0.2529
  474CHEX    R1 1420   2.689   4.178   1.297  0.0563 -0.0203 -0.1579
  474CHEX    R2 1421   2.926   4.308   1.288  0.1253  0.0568  0.0300
  474CHEX    R3 1422   2.875   4.057   1.100 -0.1030 -0.5614 -0.4203
  475CHEX    R1 1423   2.718   3.744   3.374 -0.3862  0.3447 -0.3995
  475CHEX    R2 1424   2.594   3.902   3.571 -0.2497  0.1192  0.4348
  475CHEX    R3 1425   2.706   3.666   3.671 -0.2848  0.1473 -0.1746
  476CHEX    R1 1426   4.146   4.175   3.819 -0.0756 -0.3420  0.0398
  476CHEX    R2 1427   4.154   4.324   4.083  0.5869 -0.2059  0.5171
  476CHEX    R3 1428   3.932   4.324   3.914  0.0897 -0.3244  0.0488
  477CHEX    R1 1429   4.235   4.685   4.854  0.1990  0.0293  0.2175
  477CHEX    R2 1430   4.058   4.453   4.769 -0.2500  0.0559 -0.0093
  477CHEX    R3 1431   4.070   4.562   5.052  0.1297 -0.1260  0.1745
  478CHEX    R1 1432   4.319   2.233   0.382 -0.0888 -0.2749  0.0754
  478CHEX    R2 1433   4.376   2.252   0.099 -0.3714  0.0843  0.2009
  478CHEX    R3 1434   4.208   2.440   0.277  0.2615  0.0439  0.0471
  479CHEX    R1 1435   3.503   1.037   2.394 -0.1807  0.5604  0.5674
  479CHEX    R2 1436   3.680   1.042   2.122 -0.1030 -0.1964  0.1872
  479CHEX    R3 1437   3.734   0.833   2.328  0.1372 -0.0935  0.3172
  480CHEX    R1 1438   1.432   2.819   2.583 -0.0846 -0.0104  0.5062
  480CHEX    R2 1439   1.172   2.970   2.604  0.2586  0.3464 -0.2494
  480CHEX    R3 1440   1.287   2.833   2.361  0.1713  0.0571  0.2115
  481CHEX    R1 1441   4.005   3.800   2.428 -0.1378  0.1709  0.4045
  481CHEX    R2 1442   3.888   3.745   2.150  0.2719 -0.2240 -0.0598
  481CHEX    R3 1443   4.142   3.625   2.249 -0.3469  0.2495  0.1208
  482CHEX    R1 1444   0.713   3.891   3.022 -0.1361  0.1583 -0.0508
  482CHEX    R2 1445   0.585   3.767   3.198  0.1200  0.1576 -0.4527
  482CHEX    R3 1446   0.802   3.632   3.078  0.3153  0.1134  0.0138
  483CHEX    R1 1447   2.710   2.905   4.082 -0.5033  0.3359 -0.2718
  483CHEX    R2 1448   2.848   2.643   4.138  0.0633 -0.0922  0.2247
  483CHEX    R3 1449   3.024   2.848   4.015 -0.1604 -0.1420  0.1283
  484CHEX    R1 1450   0.172   2.972   4.032  0.1862  0.2062  0.0038
  484CHEX    R2 1451   0.116   2.832   4.278  0.2396  0.1862  0.1620
  484CHEX    R3 1452  -0.016   2.687   4.079 -0.2628 -0.1928  0.2644
  485CHEX    R1 1453   2.927   4.748   0.313 -0.1381  0.3634  0.1917
  485CHEX    R2 1454   2.956   4.774  -0.014  0.0834  0.2017 -0.1928
  485CHEX    R3 1455   2.724   4.735   0.116 -0.1181 -0.1429 -0.4214
  486CHEX    R1 1456   4.195   2.237   2.138  0.2645 -0.0982  0.1152
  486CHEX    R2 1457   3.938   2.267   2.237  0.0083 -0.3421  0.1803
  486CHEX    R3 1458   4.142   2.482   2.306 -0.0806 -0.0876  0.3205
  487CHEX    R1 1459   1.628   1.782   4.422 -0.2734  0.1258 -0.5209
  487CHEX    R2 1460   1.644   2.048   4.433  0.1275  0.3270 -0.2876
  487CHEX    R3 1461   1.403   1.855   4.445  0.3609  0.1630 -0.1316
  488CHEX    R1 1462   3.638   1.908   1.453  0.0153  0.2025 -0.0713
  488CHEX    R2 1463   3.589   1.644   1.326  0.0790  0.0684  0.0218
  488CHEX    R3 1464   3.527   1.892   1.234 -0.2192 -0.3250 -0.1950
  489CHEX    R1 1465   4.466   4.472   4.491 -0.1213  0.4223  0.6304
  489CHEX    R2 1466   4.550   4.364   4.760 -0.0669 -0.2606  0.0127
  489CHEX    R3 1467   4.714   4.516   4.548 -0.0193  0.2165  0.0236
  490CHEX    R1 1468   3.232   1.051   0.011 -0.0547 -0.2799  0.1061
  490CHEX    R2 1469   2.958   0.988   0.057  0.1170 -0.1986  0.0205
  490CHEX    R3 1470   3.048   1.284   0.010 -0.3425  0.0767 -0.0649
  491CHEX    R1 1471   2.856   4.528   3.579  0.3108 -0.2785 -0.3755
  491CHEX    R2 1472   2.597   4.500   3.681  0.1038 -0.3931  0.0358
  491CHEX    R3 1473   2.787   4.281   3.614 -0.0214  0.0500 -0.4158
  492CHEX    R1 1474   2.175   1.238   2.207  0.3961 -0.1020  0.3402
  492CHEX    R2 1475   2.172   0.923   2.197 -0.2918 -0.0378  0.0665
  492CHEX    R3 1476   2.378   1.104   2.027  0.1698 -0.0077 -0.4483
  493CHEX    R1 1477   1.494   4.236   1.035  0.1892  0.1905 -0.3313
  493CHEX    R2 1478   1.551   4.517   0.913  0.1631 -0.0972 -0.0572
  493CHEX    R3 1479   1.373   4.505   1.146  0.2853 -0.0947 -0.0187
  494CHEX    R1 1480   0.431   1.356   3.904  0.2076 -0.2247 -0.1143
  494CHEX    R2 1481   0.635   1.329   3.771  0.1962 -0.1594  0.3375
  494CHEX    R3 1482   0.721   1.439   4.015 -0.0442 -0.1193  0.1010
  495CHEX    R1 1483   0.302   1.437   1.820  0.4439  0.0671 -0.3261
  495CHEX    R2 1484   0.408   1.151   1.918 -0.1831 -0.1484  0.0574
  495CHEX    R3 1485   0.331   1.214   1.671  0.0240 -0.5190 -0.2779
  496CHEX    R1 1486   1.105   0.493   1.928 -0.3336 -0.3370 -0.2680
  496CHEX    R2 1487   1.043   0.585   1.687  0.0399  0.2791 -0.1756
  496CHEX    R3 1488   1.154   0.785   1.875 -0.3550  0.1769 -0.0340
  497CHEX    R1 1489   4.603   1.782   2.898 -0.2349  0.2373  0.2425
  497CHEX    R2 1490   4.895   1.787   2.890  0.2985  0.3983  0.0905
  497CHEX    R3 1491   4.749   1.883   2.651 -0.2129  0.1175  0.0439
  498CHEX    R1 1492   1.982   2.145   1.195  0.0389  0.0209  0.2415
  498CHEX    R2 1493   2.128   2.095   0.916 -0.0725  0.0357 -0.1916
  498CHEX    R3 1494   1.826   2.239   0.920  0.2048 -0.0633 -0.0881
  499CHEX    R1 1495   1.040   0.513   4.648 -0.0059 -0.3990 -0.3863
  499CHEX    R2 1496   1.115   0.432   4.907  0.0696  0.0128  0.1366
  499CHEX    R3 1497   1.099   0.697   4.889  0.0554  0.1979 -0.0601
  500CHEX    R1 1498   3.866   2.794   0.631  0.0079 -0.2525  0.2900
  500CHEX    R2 1499   3.825   2.583   0.401 -0.0573  0.0791 -0.0032
  500CHEX    R3 1500   3.977   2.527   0.684 -0.1139 -0.1452  0.4355
  501CHEX    R1 1501   3.722   1.674   0.151  0.3699  0.0027 -0.1760
  501CHEX    R2 1502   3.440   1.526   0.164  0.1544  0.2055  0.1398
  501CHEX    R3 1503   3.454   1.813   0.115 -0.3129  0.1979 -0.3995
  502CHEX    R1 1504   0.032   4.805   1.318 -0.1531  0.1455 -0.2328
  502CHEX    R2 1505   0.258   4.865   1.557 -0.3525 -0.0503  0.3692
  502CHEX    R3 1506   0.046   4.660   1.606 -0.3325 -0.2246  0.0886
  503CHEX    R1 1507   2.206   3.576   3.933 -0.1804  0.0654 -0.3365
  503CHEX    R2 1508   2.007   3.787   4.020 -0.4042  0.1042 -0.3281
  503CHEX    R3 1509   2.142   3.814   3.765 -0.2184 -0.2200  0.2494
  504CHEX    R1 1510   2.101   0.740   1.745 -0.1755  0.4351 -0.0635
  504CHEX    R2 1511   1.982   0.927   1.569 -0.0258  0.0557 -0.1169
  504CHEX    R3 1512   2.018   0.982   1.800  0.0647 -0.0161  0.2239
  505CHEX    R1 1513   3.156   1.088   4.160 -0.1652 -0.1741 -0.1408
  505CHEX    R2 1514   2.971   1.251   4.234  0.3364  0.3000  0.1217
  505CHEX    R3 1515   2.905   1.038   4.015  0.1938  0.4494 -0.3711
  506CHEX    R1 1516   2.466   4.236   3.220 -0.4021 -0.1516  0.0306
  506CHEX    R2 1517   2.314   3.982   3.194  0.2536  0.3594 -0.1249
  506CHEX    R3 1518   2.288   4.213   3.000  0.1920 -0.1468  0.1240
  507CHEX    R1 1519   1.780   3.334   4.011  0.3403 -0.0319  0.2412
  507CHEX    R2 1520   1.465   3.253   3.865 -0.0620  0.4282 -0.1338
  507CHEX    R3 1521   1.733   3.159   3.827  0.1118 -0.5906  0.2576
  508CHEX    R1 1522   0.283   3.352   1.427 -0.0224 -0.1879 -0.1375
  508CHEX    R2 1523   0.285   3.129   1.275  0.2971  0.0467 -0.1320
  508CHEX    R3 1524   0.301   3.410   1.162  0.2008  0.0018 -0.0580
  509CHEX    R1 1525   0.690   2.842   2.579 -0.1696  0.2875 -0.0058
  509CHEX    R2 1526   0.765   2.817   2.253 -0.3440 -0.2876  0.2653
  509CHEX    R3 1527   0.629   3.016   2.386 -0.3239 -0.1193  0.0556
  510CHEX    R1 1528   2.735   2.336   4.673  0.6955  0.3562 -0.2502
  510CHEX    R2 1529   2.783   2.026   4.657  0.0577  0.2984 -0.0898
  510CHEX    R3 1530   2.986   2.212   4.517  0.1285 -0.1572 -0.1761
  511CHEX    R1 1531   4.121   1.722   2.922 -0.2828  0.5776 -0.1723
  511CHEX    R2 1532   3.816   1.773   2.922  0.2123 -0.3542  0.4284
  511CHEX    R3 1533   3.936   1.557   3.040  0.2088  0.0052 -0.9714
  512CHEX    R1 1534   3.244   3.108   3.211 -0.0131  0.0850 -0.1345
  512CHEX    R2 1535   3.214   2.955   3.434  0.1196 -0.2609 -0.2305
  512CHEX    R3 1536   3.371   3.166   3.440 -0.0192 -0.2890  0.4878
  513CHEX    R1 1537   1.621   4.274   4.293  0.2698 -0.2955 -0.0676
  513CHEX    R2 1538   1.746   4.137   4.547  0.0695  0.4918  0.2766
  513CHEX    R3 1539   1.484   4.048   4.405  0.1514  0.1487  0.1754
  514CHEX    R1 1540   4.426   4.405   2.481 -0.3463  0.0909  0.0799
  514CHEX    R2 1541   4.604   4.131   2.471 -0.5000 -0.0806  0.0819
  514CHEX    R3 1542   4.316   4.136   2.555 -0.3514 -0.3264  0.0103
  515CHEX    R1 1543   2.710   4.810   4.133  0.0097 -0.1279 -0.5170
  515CHEX    R2 1544   2.550   4.560   4.140  0.0947  0.4509 -0.0079
  515CHEX    R3 1545   2.830   4.520   4.106 -0.2676 -0.0053  0.3131
  516CHEX    R1 1546   2.990   1.757   1.421 -0.0086 -0.2020  0.2682
  516CHEX    R2 1547   3.164   1.537   1.420 -0.3313  0.2103  0.0082
  516CHEX    R3 1548   3.166   1.697   1.166  0.1331  0.3497 -0.0241
  517CHEX    R1 1549   0.878   1.876   0.531  0.0378 -0.0729  0.0304
  517CHEX    R2 1550   0.655   1.675   0.499  0.3350  0.2151 -0.4841
  517CHEX    R3 1551   0.613   1.983   0.567  0.0835 -0.2085  0.0411
  518CHEX    R1 1552   2.025   4.824   3.725  0.0516 -0.2908  0.3981
  518CHEX    R2 1553   2.113   4.953   3.495 -0.1208  0.0132  0.1373
  518CHEX    R3 1554   1.892   5.080   3.614 -0.1248  0.2042  0.0736
  519CHEX    R1 1555   3.689   2.890   1.907  0.0861 -0.0602  0.2507
  519CHEX    R2 1556   3.795   2.736   1.742  0.1637  0.5034 -0.1580
  519CHEX    R3 1557   3.722   2.988   1.608  0.1958  0.0426  0.0207
  520CHEX    R1 1558   3.098   3.741   4.010  0.0461  0.3176 -0.0465
  520CHEX    R2 1559   3.091   3.882   4.235  0.0154 -0.2031  0.5606
  520CHEX    R3 1560   3.300   3.870   4.052 -0.0919 -0.2368 -0.4615
  521CHEX    R1 1561   0.982   1.562   0.210  0.0382  0.1183 -0.2802
  521CHEX    R2 1562   0.749   1.392   0.170  0.3099 -0.0986  0.3868
  521CHEX    R3 1563   0.789   1.679   0.086 -0.0380  0.0477  0.3836
  522CHEX    R1 1564   4.592   4.596   3.954  0.1962  0.0439 -0.1034
  522CHEX    R2 1565   4.408   4.575   3.748  0.1452 -0.2923  0.0220
  522CHEX    R3 1566   4.348   4.779   3.986  0.3563  0.0168 -0.0465
  523CHEX    R1 1567   3.010   3.992   0.391  0.2024 -0.0311 -0.1951
  523CHEX    R2 1568   3.047   3.755   0.253  0.0249  0.3150  0.2566
  523CHEX    R3 1569   3.256   3.882   0.339 -0.2937  0.3597  0.1867
  524CHEX    R1 1570   0.354   4.104   2.893 -0.5995  0.2201 -0.1571
  524CHEX    R2 1571   0.333   3.998   2.651 -0.3431 -0.2560  0.0342
  524CHEX    R3 1572   0.181   3.823   2.850  0.3556  0.1856 -0.3567
  525CHEX    R1 1573   3.100   3.666   1.224  0.4054 -0.0121 -0.0814
  525CHEX    R2 1574   3.190   3.715   0.957 -0.1222  0.4033  0.0418
  525CHEX    R3 1575   3.171   3.457   1.003  0.0530 -0.0571  0.1348
  526CHEX    R1 1576   4.888   1.312   3.010 -0.1663 -0.3647  0.0937
  526CHEX    R2 1577   4.785   1.369   2.762 -0.1169  0.2047 -0.3354
  526CHEX    R3 1578   5.050   1.337   2.761  0.1962 -0.2645 -0.6038
  527CHEX    R1 1579   0.429   4.461   1.724 -0.2535  0.2340  0.5687
  527CHEX    R2 1580   0.211   4.345   1.842 -0.0031  0.0876  0.0367
  527CHEX    R3 1581   0.383   4.491   2.010 -0.0751  0.1135  0.4137
  528CHEX    R1 1582   1.247   2.555   3.417  0.1862  0.0171 -0.0910
  528CHEX    R2 1583   1.176   2.674   3.156  0.5322  0.1033 -0.1917
  528CHEX    R3 1584   1.043   2.739   3.395 -0.0449  0.0024  0.0477
  529CHEX    R1 1585   1.909   3.552   3.296  0.1481  0.1162  0.2940
  529CHEX    R2 1586   1.918   3.459   3.559 -0.2895 -0.0083 -0.2170
  529CHEX    R3 1587   2.041   3.715   3.376  0.0251  0.3009  0.0937
  530CHEX    R1 1588   3.188   0.395   1.930  0.0586  0.0033 -0.2863
  530CHEX    R2 1589   3.141   0.403   2.179 -0.6032 -0.5645 -0.0164
  530CHEX    R3 1590   3.269   0.664   2.081 -0.0977  0.0163  0.2579
  531CHEX    R1 1591   4.747   3.690   3.948  0.1731 -0.2333  0.3504
  531CHEX    R2 1592   4.852   3.693   4.202 -0.0069 -0.0004  0.4152
  531CHEX    R3 1593   4.664   3.490   4.108 -0.3036  0.1159 -0.2885
  532CHEX    R1 1594   1.468   2.128   2.910 -0.1569 -0.3348  0.0301
  532CHEX    R2 1595   1.233   2.266   3.047 -0.3812 -0.1894 -0.1696
  532CHEX    R3 1596   1.304   2.329   2.811 -0.1872  0.0573  0.2918
  533CHEX    R1 1597   3.261   4.236   0.064  0.0736 -0.0522 -0.0294
  533CHEX    R2 1598   3.333   4.509  -0.015 -0.1856  0.2896  0.2742
  533CHEX    R3 1599   3.273   4.434   0.272  0.3436  0.0343  0.1346
  534CHEX    R1 1600   1.504   2.167   1.238  0.1216 -0.1690 -0.3106
  534CHEX    R2 1601   1.509   1.945   1.060 -0.5413 -0.1695 -0.2117
  534CHEX    R3 1602   1.587   1.937   1.347  0.1236 -0.2214 -0.1711
  535CHEX    R1 1603   4.070   2.525   3.101  0.6432  0.0867 -0.0277
  535CHEX    R2 1604   3.794   2.348   3.126 -0.0809  0.0579 -0.0408
  535CHEX    R3 1605   3.855   2.454   2.882  0.1529  0.5139 -0.2102
  536CHEX    R1 1606   1.546   1.610   0.766 -0.2859 -0.1309  0.4858
  536CHEX    R2 1607   1.274   1.532   0.644 -0.1630 -0.1372 -0.1143
  536CHEX    R3 1608   1.530   1.309   0.705 -0.1251  0.1930  0.2137
  537CHEX    R1 1609   4.590   2.953   2.172  0.2376 -0.0860 -0.0895
  537CHEX    R2 1610   4.682   2.818   2.406 -0.1354  0.0991  0.0404
  537CHEX    R3 1611   4.547   2.696   2.135 -0.1998 -0.3420  0.0348
  538CHEX    R1 1612   1.722   2.698   4.537  0.0060 -0.3588 -0.0481
  538CHEX    R2 1613   1.502   2.464   4.465 -0.0264  0.0494  0.1793
  538CHEX    R3 1614   1.546   2.635   4.714 -0.4325  0.4426 -0.1772
  539CHEX    R1 1615   2.380   3.319   3.564  0.2218 -0.0751 -0.2570
  539CHEX    R2 1616   2.455   3.100   3.709 -0.0456  0.3093 -0.0075
  539CHEX    R3 1617   2.205   3.193   3.740 -0.0173 -0.1850 -0.4104
  540CHEX    R1 1618   2.677   4.670   4.571 -0.0834  0.1510 -0.0426
  540CHEX    R2 1619   2.483   4.714   4.735  0.2508  0.0453  0.0077
  540CHEX    R3 1620   2.602   4.918   4.567  0.4264 -0.1882  0.1594
  541CHEX    R1 1621   2.972   0.921   2.722 -0.2500 -0.1987 -0.0476
  541CHEX    R2 1622   3.141   0.796   2.514  0.0506 -0.0487 -0.1364
  541CHEX    R3 1623   3.050   1.036   2.437 -0.3980 -0.1300 -0.0762
  542CHEX    R1 1624   3.127   3.514   1.944  0.5141  0.0550  0.1531
  542CHEX    R2 1625   3.227   3.316   1.791 -0.0818  0.4261 -0.1450
  542CHEX    R3 1626   3.067   3.492   1.634  0.0888 -0.1723 -0.4694
  543CHEX    R1 1627   0.928   3.167   1.673  0.1126  0.1051 -0.3528
  543CHEX    R2 1628   0.649   3.131   1.555 -0.1051 -0.2617 -0.0562
  543CHEX    R3 1629   0.807   2.928   1.516 -0.2131  0.0473 -0.3440
  544CHEX    R1 1630   0.569   0.385   4.561  0.2103 -0.0931 -0.1997
  544CHEX    R2 1631   0.388   0.557   4.720  0.1361 -0.4009  0.0998
  544CHEX    R3 1632   0.426   0.252   4.776 -0.1316 -0.0624  0.1571
  545CHEX    R1 1633   0.106   4.023   0.576  0.0162  0.0242 -0.3361
  545CHEX    R2 1634  -0.112   3.831   0.511 -0.0952 -0.3502 -0.1721
  545CHEX    R3 1635   0.147   3.754   0.510 -0.4363 -0.0415  0.1124
  546CHEX    R1 1636   1.968   3.237   0.286 -0.1067  0.2897 -0.0292
  546CHEX    R2 1637   2.037   3.276   0.552  0.4456 -0.2030  0.0143
  546CHEX    R3 1638   2.184   3.402   0.388  0.0102 -0.0410  0.1304
  547CHEX    R1 1639   3.853   3.777   0.574 -0.0102  0.0276  0.2165
  547CHEX    R2 1640   3.748   3.530   0.632  0.4145 -0.2190 -0.1764
  547CHEX    R3 1641   3.541   3.765   0.647 -0.3287 -0.0431 -0.1000
  548CHEX    R1 1642   1.670   3.503   0.508 -0.3129 -0.3201 -0.1395
  548CHEX    R2 1643   1.378   3.561   0.622 -0.0216 -0.3303  0.1120
  548CHEX    R3 1644   1.551   3.690   0.751  0.0979 -0.0978  0.1307
  549CHEX    R1 1645   0.882   1.101   3.451  0.0730  0.1122  0.0561
  549CHEX    R2 1646   0.887   0.913   3.731  0.0881 -0.0208  0.2127
  549CHEX    R3 1647   1.056   1.177   3.678 -0.0964 -0.1814  0.0052
  550CHEX    R1 1648   3.724   0.481   2.034  0.3548 -0.1642  0.1356
  550CHEX    R2 1649   3.729   0.521   1.712  0.0124  0.1006 -0.2608
  550CHEX    R3 1650   3.883   0.567   1.854  0.4162 -0.1263 -0.4678
  551CHEX    R1 1651   3.569   0.122   4.365 -0.2859 -0.0153  0.0406
  551CHEX    R2 1652   3.444   0.301   4.254 -0.1709 -0.4628  0.1689
  551CHEX    R3 1653   3.488   0.046   4.133 -0.0120 -0.1609  0.1303
  552CHEX    R1 1654   0.659   3.863   1.145  0.4546 -0.0929 -0.2897
  552CHEX    R2 1655   0.633   4.150   1.064  0.2554 -0.2472  0.2941
  552CHEX    R3 1656   0.767   4.065   1.351 -0.2060  0.1276  0.2586
  553CHEX    R1 1657   1.711   4.290   1.882  0.3999 -0.2875  0.2391
  553CHEX    R2 1658   1.455   4.321   1.999  0.1154 -0.5499  0.0441
  553CHEX    R3 1659   1.603   4.058   1.959 -0.0013 -0.1018 -0.0401
  554CHEX    R1 1660   3.269   4.124   0.934  0.0902 -0.3962 -0.3816
  554CHEX    R2 1661   3.450   4.249   0.703  0.0982 -0.3738 -0.0905
  554CHEX    R3 1662   3.163   4.248   0.704 -0.3775  0.2186  0.1265
  555CHEX    R1 1663   0.900   3.714   3.887 -0.1140  0.2881 -0.3360
  555CHEX    R2 1664   1.002   3.460   3.999 -0.1353 -0.0098  0.2653
  555CHEX    R3 1665   0.744   3.459   3.983  0.1547  0.5286  0.1100
  556CHEX    R1 1666   3.867   3.373   2.512 -0.2559  0.1527  0.0755
  556CHEX    R2 1667   4.150   3.447   2.647  0.1301 -0.1199 -0.0239
  556CHEX    R3 1668   3.950   3.236   2.729 -0.3904 -0.6323 -0.1011
  557CHEX    R1 1669   4.543   3.522   3.606 -0.1903 -0.3507 -0.1277
  557CHEX    R2 1670   4.584   3.426   3.351 -0.3289 -0.5042 -0.1326
  557CHEX    R3 1671   4.509   3.682   3.414  0.1654  0.0555  0.1842
  558CHEX    R1 1672   0.794   4.937   3.182 -0.0465  0.2649 -0.1311
  558CHEX    R2 1673   0.894   5.160   3.285  0.1402  0.0501  0.2036
  558CHEX    R3 1674   0.879   4.877   3.418  0.1836  0.1210 -0.1049
  559CHEX    R1 1675   2.032   3.807   2.854  0.1001  0.1067 -0.4265
  559CHEX    R2 1676   1.738   3.780   2.829  0.2003 -0.3733  0.2505
  559CHEX    R3 1677   1.866   3.969   3.024 -0.0604  0.1442  0.1550
  560CHEX    R1 1678   4.562   3.411   2.279 -0.0690 -0.3982 -0.0433
  560CHEX    R2 1679   4.575   3.664   2.223 -0.0545  0.1343 -0.1095
  560CHEX    R3 1680   4.481   3.492   1.969 -0.1513 -0.1751 -0.1122
  561CHEX    R1 1681   0.898   4.437   4.526  0.3339 -0.1046  0.4951
  561CHEX    R2 1682   1.098   4.547   4.675  0.3155 -0.0148 -0.0552
  561CHEX    R3 1683   1.206   4.349   4.537 -0.0486 -0.1349 -0.3327
  562CHEX    R1 1684   2.871   1.690   1.934 -0.0300  0.0341  0.0837
  562CHEX    R2 1685   2.735   1.956   2.042 -0.1425 -0.0801 -0.2218
  562CHEX    R3 1686   2.644   1.858   1.780 -0.3613  0.0710  0.0141
  563CHEX    R1 1687   1.738   0.549   1.363  0.1823  0.1877  0.1062
  563CHEX    R2 1688   1.595   0.530   1.676  0.0794  0.0542  0.3051
  563CHEX    R3 1689   1.766   0.304   1.530  0.2596 -0.3272 -0.0158
  564CHEX    R1 1690   0.336   2.497   2.475  0.1821 -0.0051 -0.0230
  564CHEX    R2 1691   0.341   2.499   2.213  0.2051 -0.0725  0.0260
  564CHEX    R3 1692   0.138   2.635   2.339  0.2227 -0.0147 -0.1045
  565CHEX    R1 1693   2.347   3.251   4.704 -0.2192  0.1758  0.3052
  565CHEX    R2 1694   2.314   3.380   4.921  0.3218  0.1121 -0.0544
  565CHEX    R3 1695   2.193   3.097   4.888 -0.7863  0.1425 -0.1048
  566CHEX    R1 1696   3.344   0.508   3.809  0.0288 -0.2916  0.2781
  566CHEX    R2 1697   3.262   0.762   3.794  0.1961 -0.2300  0.1220
  566CHEX    R3 1698   3.210   0.593   4.010  0.3956  0.0135  0.0994
  567CHEX    R1 1699   1.138   1.580   2.408  0.0193 -0.2173 -0.2129
  567CHEX    R2 1700   0.877   1.650   2.491  0.4211 -0.0278 -0.3708
  567CHEX    R3 1701   0.978   1.602   2.173 -0.1974  0.1020  0.0662
  568CHEX    R1 1702   2.613   2.212   4.248 -0.1676 -0.0546  0.1932
  568CHEX    R2 1703   2.595   2.343   3.971  0.5256 -0.0902  0.2074
  568CHEX    R3 1704   2.392   2.141   4.077  0.0358 -0.1291 -0.2966
  569CHEX    R1 1705   0.203   2.433   1.021  0.1987 -0.1172 -0.0229
  569CHEX    R2 1706   0.101   2.314   0.828  0.0184 -0.0563  0.0444
  569CHEX    R3 1707   0.365   2.283   0.829 -0.3224  0.1234 -0.0477
  570CHEX    R1 1708   2.173   2.570   4.489 -0.1483  0.0059 -0.0610
  570CHEX    R2 1709   2.178   2.498   4.240 -0.0863 -0.0875 -0.2876
  570CHEX    R3 1710   2.422   2.595   4.350 -0.2230  0.0220  0.0837
  571CHEX    R1 1711   2.469   0.727   4.466 -0.2190 -0.2004 -0.2896
  571CHEX    R2 1712   2.520   0.867   4.223 -0.2171 -0.0822 -0.2037
  571CHEX    R3 1713   2.278   0.894   4.342 -0.2538 -0.0846 -0.4433
  572CHEX    R1 1714   4.084   1.006   3.022  0.3340 -0.3713  0.2485
  572CHEX    R2 1715   4.040   1.169   3.250 -0.2662  0.1280  0.0956
  572CHEX    R3 1716   4.218   0.894   3.273  0.2281 -0.4105 -0.1115
  573CHEX    R1 1717   4.537   3.163   1.689  0.2799 -0.3272  0.3647
  573CHEX    R2 1718   4.839   3.136   1.651  0.3165  0.3799  0.2529
  573CHEX    R3 1719   4.599   2.903   1.720 -0.0395  0.0091 -0.1493
  574CHEX    R1 1720   1.495   0.362   2.404  0.2053  0.1914 -0.1713
  574CHEX    R2 1721   1.726   0.237   2.533  0.2374  0.2210 -0.3038
  574CHEX    R3 1722   1.429   0.182   2.601  0.1528  0.3514 -0.0854
  575CHEX    R1 1723   3.486   2.002   4.698  0.1016 -0.4749 -0.1927
  575CHEX    R2 1724   3.625   1.876   4.494 -0.0757  0.0329 -0.6903
  575CHEX    R3 1725   3.367   2.041   4.420  0.1575  0.1538 -0.0619
  576CHEX    R1 1726   0.959   4.347   0.038  0.3383 -0.3330 -0.0442
  576CHEX    R2 1727   0.686   4.347   0.066 -0.1586 -0.0702  0.2464
  576CHEX    R3 1728   0.833   4.179   0.245 -0.3175  0.1624 -0.1037
  577CHEX    R1 1729   2.411   2.769   2.010  0.3404  0.2801 -0.2496
  577CHEX    R2 1730   2.236   2.549   2.131  0.2887 -0.2767 -0.4675
  577CHEX    R3 1731   2.106   2.718   1.913 -0.2426  0.3723  0.5151
  578CHEX    R1 1732   3.610   3.428   0.020  0.4050 -0.0807  0.0023
  578CHEX    R2 1733   3.829   3.561   0.176  0.1514  0.2822 -0.2929
  578CHEX    R3 1734   3.561   3.570   0.207 -0.4300  0.0758 -0.1586
  579CHEX    R1 1735   4.467   2.340   1.763 -0.1380 -0.3687  0.1043
  579CHEX    R2 1736   4.257   2.575   1.817 -0.0575  0.4097 -0.0308
  579CHEX    R3 1737   4.237   2.413   1.576  0.1484  0.4952  0.0083
  580CHEX    R1 1738   1.393   4.498   1.590  0.5758 -0.1258  0.3566
  580CHEX    R2 1739   1.224   4.268   1.608 -0.3012  0.0446 -0.6429
  580CHEX    R3 1740   1.143   4.505   1.669  0.2843 -0.0881 -0.4998
  581CHEX    R1 1741   2.750   2.555   3.404 -0.1882  0.0439 -0.1566
  581CHEX    R2 1742   2.792   2.790   3.572  0.1014  0.2390  0.0097
  581CHEX    R3 1743   2.911   2.541   3.666  0.5553 -0.2535  0.1781
  582CHEX    R1 1744   1.540   4.745   3.647  0.0923  0.5945  0.2919
  582CHEX    R2 1745   1.446   4.497   3.722  0.0326  0.2804 -0.0930
  582CHEX    R3 1746   1.325   4.621   3.485 -0.1349  0.9940  0.2681
  583CHEX    R1 1747   0.220   3.814   0.966  0.0109 -0.3003  0.0068
  583CHEX    R2 1748  -0.064   3.850   0.980 -0.3055 -0.0512 -0.1905
  583CHEX    R3 1749   0.044   3.592   0.907  0.2259  0.0896 -0.1860
  584CHEX    R1 1750   3.836   0.933   3.553  0.3865 -0.0115 -0.2377
  584CHEX    R2 1751   4.006   0.688   3.678 -0.2247  0.0079  0.1805
  584CHEX    R3 1752   3.715   0.697   3.676 -0.0252 -0.2211  0.5783
  585CHEX    R1 1753   3.471   3.846   4.535 -0.0154  0.0626 -0.0837
  585CHEX    R2 1754   3.321   3.676   4.731  0.3017 -0.3323  0.0081
  585CHEX    R3 1755   3.265   3.952   4.688 -0.4933 -0.1559  0.3194
  586CHEX    R1 1756   1.528   1.014   1.646  0.1665  0.1070 -0.0852
  586CHEX    R2 1757   1.525   0.928   1.363  0.0725 -0.2391  0.2668
  586CHEX    R3 1758   1.309   1.045   1.493  0.0336 -0.1604  0.3346
  587CHEX    R1 1759   2.442   4.670   1.960  0.4009  0.2740 -0.0155
  587CHEX    R2 1760   2.364   4.901   2.064 -0.4622  0.1346  0.2167
  587CHEX    R3 1761   2.448   4.927   1.766  0.2070 -0.1910  0.1149
  588CHEX    R1 1762   4.618   3.362   0.878  0.0348 -0.4590  0.2879
  588CHEX    R2 1763   4.725   3.419   0.572 -0.2479  0.1049  0.0623
  588CHEX    R3 1764   4.765   3.171   0.685  0.0992  0.5401  0.4368
  589CHEX    R1 1765   1.965   2.275   1.893 -0.0738 -0.2725  0.1171
  589CHEX    R2 1766   1.994   1.977   1.795  0.2324 -0.1922  0.3119
  589CHEX    R3 1767   1.784   2.193   1.697  0.1707  0.4408 -0.1228
  590CHEX    R1 1768   4.103   0.302   4.425  0.2343 -0.3536  0.0654
  590CHEX    R2 1769   4.019   0.417   4.703 -0.0922 -0.1713  0.0057
  590CHEX    R3 1770   3.871   0.492   4.496 -0.2742 -0.1467  0.0170
  591CHEX    R1 1771   1.411   1.509   1.988  0.1213 -0.2377  0.3042
  591CHEX    R2 1772   1.339   1.269   2.147  0.5539  0.2599  0.1216
  591CHEX    R3 1773   1.556   1.319   1.963  0.0806 -0.2776 -0.1324
  592CHEX    R1 1774   2.185   4.724   4.353  0.1080  0.0553 -0.1936
  592CHEX    R2 1775   2.000   4.763   4.617 -0.0605  0.1414  0.1814
  592CHEX    R3 1776   1.934   4.594   4.360  0.0247  0.0433  0.0095
  593CHEX    R1 1777   4.587   0.937   2.838  0.1408  0.3028 -0.6105
  593CHEX    R2 1778   4.829   0.884   2.916 -0.0217  0.1351  0.2214
  593CHEX    R3 1779   4.666   0.705   2.767  0.2840  0.4397  0.1100
  594CHEX    R1 1780   0.767   4.136   2.311 -0.3624  0.3454  0.0410
  594CHEX    R2 1781   0.791   3.847   2.347  0.2722 -0.3264  0.3700
  594CHEX    R3 1782   0.743   3.913   2.535 -0.3939  0.0268  0.2354
  595CHEX    R1 1783   0.501   3.065   0.124  0.4569 -0.0923 -0.2456
  595CHEX    R2 1784   0.665   3.141  -0.059  0.0358 -0.2502  0.3867
  595CHEX    R3 1785   0.455   3.354   0.003 -0.3541  0.5797  0.2232
  596CHEX    R1 1786   1.892   1.733   1.062 -0.6131  0.1417 -0.2868
  596CHEX    R2 1787   1.856   1.453   1.042  0.0477  0.1069  0.0690
  596CHEX    R3 1788   2.051   1.624   0.860 -0.4754  0.0997 -0.1977
  597CHEX    R1 1789   2.909   2.389   1.959 -0.1730 -0.1820  0.2536
  597CHEX    R2 1790   2.809   2.606   1.800  0.0926 -0.4758 -0.0692
  597CHEX    R3 1791   2.864   2.617   2.099  0.1291  0.1095 -0.0996
  598CHEX    R1 1792   0.953   1.826   3.545 -0.0912 -0.1687  0.0384
  598CHEX    R2 1793   0.788   1.638   3.475 -0.0635  0.3178 -0.1053
  598CHEX    R3 1794   1.127   1.583   3.500  0.0425 -0.1918  0.0062
  599CHEX    R1 1795   0.233   1.510   1.322 -0.2308  0.0331 -0.0874
  599CHEX    R2 1796  -0.021   1.413   1.448  0.1483  0.1581 -0.2066
  599CHEX    R3 1797  -0.022   1.525   1.233  0.1285 -0.4244  0.1674
  600CHEX    R1 1798   1.103   0.019   0.106 -0.2760 -0.3975 -0.1965
  600CHEX    R2 1799   0.965  -0.174   0.208 -0.1538  0.0850 -0.1018
  600CHEX    R3 1800   1.234  -0.222   0.045 -0.1899  0.0289 -0.2075
  601CHEX    R1 1801   2.607   2.034   0.842  0.3265 -0.1226  0.3395
  601CHEX    R2 1802   2.513   1.817   0.670  0.3240  0.2912  0.3930
  601CHEX    R3 1803   2.570   2.050   0.535  0.2374  0.1521  0.1114
  602CHEX    R1 1804   4.698   1.848   1.543 -0.3046 -0.1016  0.1252
  602CHEX    R2 1805   4.803   2.051   1.697  0.0675 -0.0341  0.0196
  602CHEX    R3 1806   4.911   1.765   1.705 -0.2470 -0.1239 -0.0373
  603CHEX    R1 1807   2.590   3.385   2.392 -0.3034 -0.2146  0.0678
  603CHEX    R2 1808   2.743   3.537   2.582 -0.2477 -0.1575 -0.3511
  603CHEX    R3 1809   2.888   3.435   2.335  0.2031  0.2949  0.1362
  604CHEX    R1 1810   3.658   4.546   0.420 -0.2894 -0.0825  0.2486
  604CHEX    R2 1811   3.776   4.735   0.585 -0.0256  0.0600 -0.0545
  604CHEX    R3 1812   3.911   4.459   0.516 -0.0073 -0.1078  0.3836
  605CHEX    R1 1813   3.773   4.880   3.599 -0.0363 -0.0288  0.1854
  605CHEX    R2 1814   3.723   4.656   3.747 -0.1041  0.1299 -0.4196
  605CHEX    R3 1815   4.000   4.728   3.698 -0.1202  0.2276 -0.2654
  606CHEX    R1 1816   3.758   3.653   4.067 -0.0863 -0.1671  0.2168
  606CHEX    R2 1817   3.743   3.941   3.910 -0.1192 -0.1952 -0.5160
  606CHEX    R3 1818   3.968   3.894   4.101  0.2414 -0.5232  0.1135
  607CHEX    R1 1819   3.861   1.493   0.966  0.0531  0.1262 -0.1754
  607CHEX    R2 1820   4.009   1.372   1.165  0.1989  0.2277  0.0404
  607CHEX    R3 1821   4.149   1.543   0.914 -0.3210 -0.3515  0.1663
  608CHEX    R1 1822   0.781   0.053   2.774  0.0375  0.2086 -0.0432
  608CHEX    R2 1823   0.708  -0.112   2.576  0.1532 -0.0372 -0.0187
  608CHEX    R3 1824   0.579   0.181   2.587  0.0850  0.4468 -0.2934
  609CHEX    R1 1825   0.294   3.695   3.957  0.0693  0.0133 -0.1943
  609CHEX    R2 1826   0.407   3.620   3.658 -0.1636 -0.2075 -0.1102
  609CHEX    R3 1827   0.240   3.465   3.880  0.0298 -0.0297  0.1241
  610CHEX    R1 1828   0.606   2.480   2.831  0.0820  0.0145  0.0835
  610CHEX    R2 1829   0.926   2.545   2.811 -0.0838  0.1390  0.0089
  610CHEX    R3 1830   0.817   2.430   3.029 -0.0371  0.2010  0.2135
  611CHEX    R1 1831   3.868   1.953   1.857 -0.2288  0.2402  0.0471
  611CHEX    R2 1832   3.861   2.251   1.790 -0.0729  0.1338  0.1029
  611CHEX    R3 1833   3.622   2.059   1.956  0.0307 -0.4411  0.0520
  612CHEX    R1 1834   1.994   4.489   0.679  0.2968 -0.0106  0.2418
  612CHEX    R2 1835   2.221   4.500   0.804  0.0808 -0.1832  0.3283
  612CHEX    R3 1836   2.185   4.369   0.534  0.2222  0.2172 -0.0308
  613CHEX    R1 1837   1.813   1.331   4.417  0.6616  0.1974 -0.1572
  613CHEX    R2 1838   1.820   1.464   4.149  0.2477  0.1998  0.1889
  613CHEX    R3 1839   2.063   1.347   4.308  0.0516  0.1476 -0.4486
  614CHEX    R1 1840   1.409   2.484   0.834 -0.4669 -0.2852 -0.2035
  614CHEX    R2 1841   1.293   2.604   0.623  0.1523 -0.0706 -0.2037
  614CHEX    R3 1842   1.474   2.756   0.749 -0.2149  0.3374 -0.6382
  615CHEX    R1 1843   3.340   1.548   0.688 -0.0014  0.3132  0.0646
  615CHEX    R2 1844   3.547   1.694   0.564  0.3114 -0.2921 -0.0397
  615CHEX    R3 1845   3.462   1.776   0.812  0.0289 -0.0590 -0.0488
  616CHEX    R1 1846   4.099   3.325   3.353 -0.4355  0.0260  0.1661
  616CHEX    R2 1847   4.177   3.418   3.118 -0.0648  0.1757 -0.2052
  616CHEX    R3 1848   4.291   3.175   3.160  0.0856  0.2514  0.0749
  617CHEX    R1 1849   0.268   1.041   2.384  0.2678  0.0107  0.1104
  617CHEX    R2 1850   0.090   0.946   2.206 -0.1384  0.2837 -0.1057
  617CHEX    R3 1851  -0.006   1.067   2.445  0.0575 -0.0420 -0.1797
  618CHEX    R1 1852   4.646   2.092   2.217  0.0630 -0.6629 -0.4771
  618CHEX    R2 1853   4.840   2.327   2.109  0.2150 -0.0884 -0.0140
  618CHEX    R3 1854   4.931   2.182   2.326 -0.0397  0.3290 -0.7281
  619CHEX    R1 1855   2.765   0.995   3.219  0.1528 -0.0019  0.2742
  619CHEX    R2 1856   2.717   1.174   3.014  0.3239  0.3099 -0.1342
  619CHEX    R3 1857   2.622   0.880   3.006 -0.2834  0.3963 -0.1868
  620CHEX    R1 1858   1.237   4.371   0.317  0.2426 -0.1662 -0.0936
  620CHEX    R2 1859   1.234   4.514   0.514 -0.0592  0.1444  0.0337
  620CHEX    R3 1860   1.459   4.365   0.492  0.3619 -0.0841  0.1099
  621CHEX    R1 1861   1.076   1.308   1.178 -0.0893 -0.1400 -0.0607
  621CHEX    R2 1862   1.321   1.244   1.088 -0.4072  0.2572 -0.2440
  621CHEX    R3 1863   1.277   1.522   1.145 -0.1432  0.1921  0.1215
  622CHEX    R1 1864   0.427   4.269   3.741  0.1351  0.1249  0.4009
  622CHEX    R2 1865   0.581   4.056   3.850 -0.3691  0.5858  0.2066
  622CHEX    R3 1866   0.625   4.073   3.575 -0.1596  0.2139  0.2001
  623CHEX    R1 1867   0.650   4.915   1.915 -0.0548 -0.3063 -0.1832
  623CHEX    R2 1868   0.801   5.097   2.116  0.3521 -0.4066  0.1016
  623CHEX    R3 1869   0.801   5.147   1.826 -0.1387 -0.0142 -0.3155
  624CHEX    R1 1870   3.341   2.434   3.257 -0.3765 -0.2922  0.2065
  624CHEX    R2 1871   3.352   2.540   2.972  0.0001  0.1020  0.1518
  624CHEX    R3 1872   3.140   2.609   3.136  0.2835 -0.6177 -0.0944
  625CHEX    R1 1873   2.232   0.395   1.985  0.2266  0.0996  0.3471
  625CHEX    R2 1874   2.125   0.408   2.260  0.1130 -0.1245  0.1415
  625CHEX    R3 1875   1.947   0.441   2.079  0.3094 -0.2064 -0.2970
  626CHEX    R1 1876   0.540   0.535   1.775 -0.0750  0.2028  0.1653
  626CHEX    R2 1877   0.473   0.807   1.644 -0.1217  0.3133  0.2442
  626CHEX    R3 1878   0.271   0.640   1.786 -0.1167  0.2279 -0.0597
  627CHEX    R1 1879   3.256   4.706   0.655 -0.1063 -0.4470 -0.0870
  627CHEX    R2 1880   3.277   4.638   0.899  0.1816  0.0756 -0.1179
  627CHEX    R3 1881   3.360   4.887   0.863 -0.1436  0.5249 -0.1325
  628CHEX    R1 1882   1.661   1.140   4.868  0.2999 -0.1910 -0.1740
  628CHEX    R2 1883   1.849   1.014   5.048 -0.0722  0.2676 -0.5472
  628CHEX    R3 1884   1.935   1.079   4.778  0.5945  0.3429  0.1091
  629CHEX    R1 1885   3.318   2.772   0.183  0.2321  0.1577  0.1893
  629CHEX    R2 1886   3.501   2.967   0.144 -0.0016  0.0569 -0.1130
  629CHEX    R3 1887   3.521   2.747  -0.031 -0.2943  0.1754 -0.0799
  630CHEX    R1 1888   0.978   1.513   4.370  0.1288  0.0178  0.0739
  630CHEX    R2 1889   0.892   1.687   4.575  0.0817  0.1393 -0.4206
  630CHEX    R3 1890   0.948   1.789   4.298 -0.2226  0.0647  0.0031
  631CHEX    R1 1891   2.112   1.718   1.444 -0.1529  0.1665  0.0911
  631CHEX    R2 1892   2.301   1.793   1.192  0.0961 -0.1070  0.1302
  631CHEX    R3 1893   2.420   1.709   1.436 -0.1369 -0.3048  0.4028
  632CHEX    R1 1894   2.415   1.015   1.551  0.0228 -0.0215  0.5743
  632CHEX    R2 1895   2.617   0.821   1.448  0.1428  0.0613 -0.1665
  632CHEX    R3 1896   2.387   0.787   1.381  0.0521  0.4650  0.2031
  633CHEX    R1 1897   1.509   4.741   4.489  0.2950  0.0715 -0.2213
  633CHEX    R2 1898   1.265   4.859   4.467  0.0176 -0.1156  0.2732
  633CHEX    R3 1899   1.379   4.671   4.287 -0.3060  0.1821  0.0647
  634CHEX    R1 1900   1.406   0.815   3.797 -0.0141 -0.0079 -0.1570
  634CHEX    R2 1901   1.560   0.888   3.535  0.0460 -0.0617 -0.5327
  634CHEX    R3 1902   1.659   0.915   3.796  0.1042 -0.0166 -0.2073
  635CHEX    R1 1903   1.960   3.976   0.596 -0.1667  0.3972  0.4695
  635CHEX    R2 1904   1.721   4.079   0.633 -0.1899  0.1728 -0.2358
  635CHEX    R3 1905   1.780   3.899   0.377 -0.2932 -0.2802  0.0784
  636CHEX    R1 1906   0.432   2.774   4.662 -0.0574 -0.2478 -0.4173
  636CHEX    R2 1907   0.257   3.015   4.672 -0.2121  0.0395 -0.0728
  636CHEX    R3 1908   0.249   2.778   4.863  0.1621  0.0220  0.4080
  637CHEX    R1 1909   0.371   3.071   2.902 -0.0242  0.5442 -0.0837
  637CHEX    R2 1910   0.308   2.799   2.805 -0.0981  0.3943  0.3484
  637CHEX    R3 1911   0.141   2.980   2.692  0.0392  0.0101 -0.0900
   4.94815   4.96470   4.96470
