Ether box
 2197
    1ETH     CO    1   1.143   4.234   4.995 -0.0824 -0.0157 -0.5097
    2ETH     CO    2   6.383   0.845   0.322  0.0664  0.0661  0.3274
    3ETH     CO    3   2.749   4.150   2.025 -0.0011  0.2380  0.0738
    4ETH     CO    4   5.411   1.043   6.235  0.1843  0.1087 -0.3447
    5ETH     CO    5   5.236   4.149   4.837  0.1036  0.4024 -0.0412
    6ETH     CO    6   1.129   6.310   5.430 -0.3052  0.0100  0.3849
    7ETH     CO    7   3.129   5.319   5.933  0.2081 -0.1127 -0.2731
    8ETH     CO    8   0.965   5.458   6.087 -0.0056  0.0228  0.0253
    9ETH     CO    9   0.511   5.794   4.308  0.0327 -0.0786  0.1604
   10ETH     CO   10   5.250   3.520   4.973 -0.1451 -0.0440 -0.1871
   11ETH     CO   11   4.829   5.218   3.327 -0.1361  0.1193 -0.1786
   12ETH     CO   12   2.971   1.808   5.065  0.0843 -0.2471  0.1428
   13ETH     CO   13   4.127   4.292   0.559 -0.1200 -0.0103 -0.0461
   14ETH     CO   14   1.157   1.631   0.893  0.1119  0.0646 -0.0766
   15ETH     CO   15   1.806   3.065   3.715  0.0472  0.1991  0.1512
   16ETH     CO   16   0.995   1.687   4.750  0.2448  0.1855 -0.0303
   17ETH     CO   17   1.393   1.675   6.514 -0.0397  0.1264  0.2988
   18ETH     CO   18   2.548   6.394   5.518 -0.0876 -0.0050  0.0829
   19ETH     CO   19   2.622   0.150   1.978  0.3222 -0.1307  0.0976
   20ETH     CO   20   0.513   3.206   1.725 -0.0768 -0.1900  0.2147
   21ETH     CO   21   4.147   0.137   0.936  0.0518 -0.0293 -0.2145
   22ETH     CO   22   5.532   5.466   1.546  0.0358 -0.1544  0.2819
   23ETH     CO   23   5.485   1.896   1.738  0.0799  0.3577 -0.0562
   24ETH     CO   24   1.044   2.413   3.352  0.3733 -0.0831  0.0268
   25ETH     CO   25   4.773   0.267   0.280 -0.1005  0.0436  0.1681
   26ETH     CO   26   6.264   3.967   3.994 -0.4162 -0.0245 -0.0913
   27ETH     CO   27   0.178   0.941   1.796  0.4161  0.1385  0.1189
   28ETH     CO   28   2.538   0.429   1.401 -0.0502 -0.0064 -0.0957
   29ETH     CO   29   4.634   3.259   0.291 -0.3522 -0.3747 -0.1350
   30ETH     CO   30   2.317   1.313   1.360 -0.0991  0.0541 -0.1384
   31ETH     CO   31   6.413   1.184   6.088  0.3847  0.4016 -0.0892
   32ETH     CO   32   4.365   2.752   3.155  0.1077 -0.3508  0.1595
   33ETH     CO   33   2.924   3.630   2.875  0.1229  0.1470 -0.0528
   34ETH     CO   34   1.540   4.156   4.586  0.2458  0.3003 -0.0268
   35ETH     CO   35   6.028   2.744   6.611  0.3046  0.0512 -0.3268
   36ETH     CO   36   5.389   6.283   6.311 -0.1648 -0.1854 -0.1791
   37ETH     CO   37   2.213   6.178   4.580  0.1335 -0.0974  0.0364
   38ETH     CO   38   4.892   6.027   3.523 -0.2414  0.0838  0.1180
   39ETH     CO   39   1.143   4.157   0.395  0.1867  0.1017  0.1764
   40ETH     CO   40   2.627   3.913   0.003  0.2633 -0.2645  0.0852
   41ETH     CO   41   2.305   4.401   0.793 -0.0383  0.1625  0.3307
   42ETH     CO   42   6.195   3.439   4.177  0.0036  0.3053 -0.1802
   43ETH     CO   43   1.608   2.728   0.864  0.1824  0.1241 -0.2386
   44ETH     CO   44   6.016   4.632   4.041  0.0529  0.3068 -0.0023
   45ETH     CO   45   6.403   3.765   1.326  0.0630 -0.0014 -0.0988
   46ETH     CO   46   4.605   3.815   1.111  0.0195 -0.2026  0.0065
   47ETH     CO   47   3.192   2.545   2.341 -0.0192  0.0785 -0.2724
   48ETH     CO   48   1.020   5.642   0.378 -0.2177 -0.4603 -0.0930
   49ETH     CO   49   0.072   3.071   2.679 -0.2047  0.1633 -0.0562
   50ETH     CO   50   4.155   5.615   2.166  0.1964 -0.1333 -0.1133
   51ETH     CO   51   3.644   6.138   4.631  0.1408 -0.0367 -0.1910
   52ETH     CO   52   5.204   2.656   5.787 -0.1718 -0.0409 -0.0055
   53ETH     CO   53   3.009   2.922   2.034 -0.0219 -0.2436  0.0027
   54ETH     CO   54   5.128   1.417   1.106  0.0158 -0.1633  0.3275
   55ETH     CO   55   4.302   3.633   4.279  0.1242 -0.2663  0.2390
   56ETH     CO   56   2.239   6.260   0.665  0.2675  0.2963 -0.1261
   57ETH     CO   57   3.319   5.105   4.360  0.0429 -0.0490 -0.2129
   58ETH     CO   58   3.080   3.479   4.152  0.0937 -0.2043 -0.3146
   59ETH     CO   59   5.661   4.461   1.177 -0.4366 -0.3554 -0.1067
   60ETH     CO   60   4.292   0.728   6.203  0.2294  0.4072  0.1903
   61ETH     CO   61   1.580   0.870   2.781  0.0219 -0.0923 -0.0577
   62ETH     CO   62   1.790   2.984   6.077 -0.5143 -0.0533 -0.1381
   63ETH     CO   63   3.968   6.248   3.805 -0.0279  0.0963 -0.3376
   64ETH     CO   64   2.026   2.079   1.004  0.1483 -0.0591  0.0545
   65ETH     CO   65   0.196   0.395   6.248  0.1699 -0.0077 -0.0879
   66ETH     CO   66   6.221   1.916   0.252 -0.0731 -0.0595 -0.0614
   67ETH     CO   67   2.995   0.250   1.209 -0.0777  0.3347 -0.0003
   68ETH     CO   68   2.521   1.691   5.065  0.2232 -0.3926 -0.1582
   69ETH     CO   69   2.332   6.364   2.732 -0.2769  0.0398 -0.2477
   70ETH     CO   70   2.125   0.349   4.786 -0.2362 -0.2348  0.1528
   71ETH     CO   71   5.326   5.311   2.623  0.3111 -0.0136 -0.0840
   72ETH     CO   72   3.759   0.517   0.940 -0.1493  0.0948  0.0742
   73ETH     CO   73   0.321   1.201   3.169 -0.4386 -0.1667 -0.3419
   74ETH     CO   74   2.526   5.752   5.670 -0.0915  0.0639  0.3523
   75ETH     CO   75   0.415   5.693   1.578 -0.2370  0.1424 -0.0993
   76ETH     CO   76   2.546   1.169   5.000  0.2435  0.2587  0.2703
   77ETH     CO   77   3.043   4.722   2.324 -0.1510  0.0027 -0.4652
   78ETH     CO   78   3.649   0.336   2.635 -0.0648 -0.1728  0.1955
   79ETH     CO   79   2.270   1.978   4.676 -0.3794 -0.3313 -0.1526
   80ETH     CO   80   1.118   3.995   6.402 -0.0975 -0.0146  0.1142
   81ETH     CO   81   1.584   3.459   0.157 -0.1641 -0.4707 -0.0070
   82ETH     CO   82   0.913   1.152   4.952 -0.0135 -0.0143 -0.0476
   83ETH     CO   83   2.267   6.039   1.370  0.1167  0.1085 -0.3566
   84ETH     CO   84   2.823   5.170   6.265  0.1854  0.0066 -0.2210
   85ETH     CO   85   4.668   0.769   0.516  0.0470 -0.0815 -0.2242
   86ETH     CO   86   0.538   2.178   5.762 -0.0220 -0.0568  0.0523
   87ETH     CO   87   4.676   4.788   2.305 -0.0105 -0.0730  0.0064
   88ETH     CO   88   1.209   4.628   1.968 -0.1266 -0.3642  0.0970
   89ETH     CO   89   4.602   5.083   6.282  0.0813  0.1729 -0.1151
   90ETH     CO   90   1.316   5.160   2.962  0.2151 -0.0882 -0.0361
   91ETH     CO   91   6.202   5.181   3.846  0.1262  0.1304  0.0322
   92ETH     CO   92   2.569   3.318   2.665 -0.1895  0.3175  0.4004
   93ETH     CO   93   1.615   1.811   1.019  0.0332  0.0245 -0.3207
   94ETH     CO   94   4.235   0.230   5.993 -0.3168  0.0568 -0.0845
   95ETH     CO   95   0.506   1.923   1.457 -0.2663  0.0353 -0.0200
   96ETH     CO   96   6.300   6.238   0.123 -0.1347 -0.0247 -0.0181
   97ETH     CO   97   3.855   2.999   1.507 -0.2792  0.2282 -0.4244
   98ETH     CO   98   5.336   6.343   5.615  0.0291 -0.1545  0.3069
   99ETH     CO   99   2.871   0.230   0.357 -0.0517  0.0588 -0.0585
  100ETH     CO  100   6.587   4.576   6.086  0.1928  0.1245  0.0023
  101ETH     CO  101   3.886   3.423   1.036  0.1083  0.3120 -0.1271
  102ETH     CO  102   0.883   5.117   0.910 -0.0789  0.1607 -0.0030
  103ETH     CO  103   1.963   5.900   4.948 -0.6882  0.2565 -0.0168
  104ETH     CO  104   0.103   2.956   6.152  0.1901  0.1376 -0.0033
  105ETH     CO  105   3.834   4.142   4.313  0.3418  0.0663  0.0081
  106ETH     CO  106   0.154   0.515   2.484  0.3687  0.1116  0.1766
  107ETH     CO  107   0.551   4.907   4.752 -0.1076  0.1740  0.2287
  108ETH     CO  108   2.760   1.483   4.652 -0.2055  0.1055  0.3225
  109ETH     CO  109   4.325   1.219   5.196  0.1832 -0.0551 -0.3413
  110ETH     CO  110   3.415   1.724   4.035 -0.0018  0.0357 -0.3507
  111ETH     CO  111   6.114   2.782   1.672  0.3696  0.0020  0.0373
  112ETH     CO  112   4.258   0.374   1.455  0.1392 -0.0447 -0.2044
  113ETH     CO  113   4.302   1.707   1.902 -0.0593 -0.4465 -0.2043
  114ETH     CO  114   0.112   1.068   5.600  0.0907 -0.0170 -0.2649
  115ETH     CO  115   1.024   4.749   2.812  0.5897 -0.0624 -0.0013
  116ETH     CO  116   2.027   0.909   1.620 -0.0197  0.1844  0.2399
  117ETH     CO  117   0.454   1.753   2.388  0.0152  0.1440  0.0243
  118ETH     CO  118   4.635   5.508   5.924 -0.1478  0.0058 -0.0272
  119ETH     CO  119   4.935   5.593   6.323 -0.0403 -0.1021 -0.1420
  120ETH     CO  120   2.003   3.203   1.855  0.1416 -0.0972  0.4342
  121ETH     CO  121   6.545   6.501   4.851  0.0809  0.0464  0.5170
  122ETH     CO  122   0.726   3.940   0.626  0.3696  0.3528 -0.0213
  123ETH     CO  123   1.347   6.331   4.976  0.1352 -0.3736  0.1689
  124ETH     CO  124   5.594   1.327   3.300  0.1910  0.2022  0.1959
  125ETH     CO  125   3.556   5.524   5.162 -0.1470  0.0563 -0.1285
  126ETH     CO  126   1.434   5.865   4.161 -0.2008  0.1213 -0.2203
  127ETH     CO  127   1.461   0.250   1.709  0.3831 -0.0036 -0.0373
  128ETH     CO  128   2.709   5.761   1.302  0.1242  0.1239 -0.1656
  129ETH     CO  129   4.737   4.952   5.060 -0.0808 -0.0664  0.1275
  130ETH     CO  130   2.586   4.448   1.274  0.2105 -0.0298 -0.1823
  131ETH     CO  131   4.669   2.167   2.358  0.1794 -0.1328 -0.4338
  132ETH     CO  132   3.285   0.565   2.454  0.1863  0.0807  0.0874
  133ETH     CO  133   6.427   4.215   2.164  0.2390  0.3798  0.0949
  134ETH     CO  134   2.121   5.183   4.693  0.0574 -0.2897  0.0150
  135ETH     CO  135   3.564   5.601   0.269 -0.2391 -0.1237 -0.0276
  136ETH     CO  136   5.298   2.533   4.810 -0.0845 -0.3297 -0.2945
  137ETH     CO  137   5.231   4.573   0.113  0.1478  0.0185 -0.1691
  138ETH     CO  138   5.301   3.701   4.464 -0.1578 -0.2422 -0.1242
  139ETH     CO  139   2.501   4.943   4.164 -0.0602 -0.0832  0.0429
  140ETH     CO  140   1.488   2.972   4.807  0.0725 -0.0051  0.0232
  141ETH     CO  141   0.316   6.319   3.013 -0.1844  0.2846  0.0453
  142ETH     CO  142   4.139   5.671   0.297 -0.0999 -0.2336 -0.1113
  143ETH     CO  143   1.936   4.773   3.384 -0.2230  0.0375 -0.0538
  144ETH     CO  144   0.756   3.244   2.702  0.2590  0.0710 -0.1572
  145ETH     CO  145   5.874   6.153   6.465  0.0270 -0.2583  0.0299
  146ETH     CO  146   0.180   4.894   1.691 -0.0834  0.1034  0.0702
  147ETH     CO  147   0.611   2.279   0.365  0.3779  0.1567  0.3737
  148ETH     CO  148   0.566   3.559   5.612 -0.3019  0.0870 -0.1378
  149ETH     CO  149   3.845   5.894   4.175  0.0382  0.0121  0.1492
  150ETH     CO  150   2.603   0.022   3.423 -0.0391 -0.2521 -0.2057
  151ETH     CO  151   2.851   2.084   0.522  0.2676 -0.3060  0.1820
  152ETH     CO  152   2.301   4.763   5.599 -0.0261 -0.5514 -0.0160
  153ETH     CO  153   3.549   2.273   2.576 -0.1997  0.1132 -0.0875
  154ETH     CO  154   5.312   2.126   5.875 -0.0048 -0.0213  0.1853
  155ETH     CO  155   3.986   2.893   1.035  0.2049 -0.2908 -0.1207
  156ETH     CO  156   2.168   5.780   6.487  0.1328 -0.1079 -0.2682
  157ETH     CO  157   2.230   4.074   5.113  0.2547  0.1038 -0.0505
  158ETH     CO  158   5.448   0.686   2.616  0.2608 -0.2578 -0.4766
  159ETH     CO  159   3.938   1.402   2.580 -0.1695  0.4537 -0.0364
  160ETH     CO  160   4.369   6.115   0.504  0.1630  0.2532 -0.0303
  161ETH     CO  161   4.186   1.801   1.033  0.0963  0.2331  0.2098
  162ETH     CO  162   0.517   4.809   5.307  0.0260  0.2044 -0.0803
  163ETH     CO  163   5.536   3.127   5.814  0.0426  0.0514 -0.1972
  164ETH     CO  164   0.753   3.557   6.334  0.0196 -0.4412  0.0259
  165ETH     CO  165   0.592   1.885   0.048  0.2085  0.0401 -0.1772
  166ETH     CO  166   2.104   5.797   5.990  0.0214 -0.4139 -0.0761
  167ETH     CO  167   3.343   5.412   6.347 -0.1806  0.0187 -0.1335
  168ETH     CO  168   3.792   4.988   6.288 -0.0040 -0.0537  0.0150
  169ETH     CO  169   2.790   2.972   1.486  0.4252  0.0104  0.2641
  170ETH     CO  170   5.536   0.706   0.634 -0.0722 -0.1287 -0.1068
  171ETH     CO  171   4.786   1.649   5.201  0.2154 -0.0650 -0.0881
  172ETH     CO  172   0.395   2.639   2.860 -0.2261  0.1435  0.2807
  173ETH     CO  173   4.637   5.541   4.480  0.1832 -0.4504  0.0679
  174ETH     CO  174   0.464   3.568   2.141  0.1221  0.2658  0.1177
  175ETH     CO  175   0.687   5.163   1.505 -0.1562  0.0385 -0.0713
  176ETH     CO  176   0.405   5.663   3.823 -0.1118 -0.1311  0.0698
  177ETH     CO  177   5.836   1.429   0.788 -0.2625 -0.3168  0.0957
  178ETH     CO  178   1.254   5.816   5.688 -0.1353  0.0039 -0.0287
  179ETH     CO  179   4.831   5.775   0.373  0.1430 -0.1166  0.0484
  180ETH     CO  180   4.348   2.574   4.171 -0.3757  0.0864  0.0019
  181ETH     CO  181   5.011   5.416   4.096  0.4447  0.0207 -0.2490
  182ETH     CO  182   3.794   0.306   6.224 -0.1544  0.0453 -0.0608
  183ETH     CO  183   1.020   2.164   1.739 -0.3161  0.0789 -0.2891
  184ETH     CO  184   4.881   6.106   2.708 -0.0268 -0.0946 -0.1093
  185ETH     CO  185   1.568   6.020   5.214  0.2729  0.0366  0.1006
  186ETH     CO  186   1.934   3.531   0.626  0.0737 -0.1014 -0.2228
  187ETH     CO  187   1.107   4.956   1.301  0.2189  0.2955  0.1800
  188ETH     CO  188   5.992   0.550   5.655  0.0559 -0.3390  0.0307
  189ETH     CO  189   2.791   0.497   4.669 -0.1572  0.0172  0.0431
  190ETH     CO  190   5.412   5.039   0.302 -0.2187  0.0467  0.0678
  191ETH     CO  191   4.634   1.210   3.545  0.1034  0.0042 -0.0497
  192ETH     CO  192   2.444   5.404   4.020  0.2866  0.0402  0.2027
  193ETH     CO  193   6.266   3.202   1.936  0.0872  0.1847  0.1164
  194ETH     CO  194   0.901   1.478   6.431  0.2291 -0.0093  0.0172
  195ETH     CO  195   2.132   0.004   5.725  0.1040 -0.0258 -0.2583
  196ETH     CO  196   2.815   4.734   4.559 -0.1161  0.2007  0.1056
  197ETH     CO  197   0.073   3.555   5.543 -0.4082  0.0013  0.0968
  198ETH     CO  198   2.824   0.739   4.033  0.2690 -0.2949  0.3309
  199ETH     CO  199   3.671   3.126   3.472 -0.2620 -0.1166 -0.0568
  200ETH     CO  200   1.139   2.013   1.200  0.2730  0.1214 -0.1121
  201ETH     CO  201   0.764   2.359   4.681 -0.1556 -0.1771  0.0282
  202ETH     CO  202   4.853   4.196   1.359 -0.1256 -0.2078  0.3267
  203ETH     CO  203   5.696   3.611   2.652 -0.0422  0.1192  0.0024
  204ETH     CO  204   2.066   4.999   2.178  0.1116 -0.1628 -0.0873
  205ETH     CO  205   5.718   4.164   3.525  0.0117  0.0982  0.2829
  206ETH     CO  206   3.338   2.620   5.875 -0.0459  0.1501  0.2159
  207ETH     CO  207   3.951   2.649   5.078 -0.2856  0.0026 -0.1228
  208ETH     CO  208   4.226   6.315   5.257  0.1713 -0.1461 -0.1096
  209ETH     CO  209   0.869   3.089   6.316 -0.1144  0.3527  0.0694
  210ETH     CO  210   2.301   4.626   3.795 -0.0507  0.2749  0.0194
  211ETH     CO  211   5.481   2.911   3.143  0.1242  0.4859 -0.1180
  212ETH     CO  212   0.288   1.593   5.873 -0.1344 -0.0791  0.0021
  213ETH     CO  213   6.085   0.556   3.883  0.1603  0.2293  0.2526
  214ETH     CO  214   3.187   2.042   6.328  0.0036  0.1281  0.1597
  215ETH     CO  215   2.156   4.017   0.363  0.1063 -0.3162 -0.3520
  216ETH     CO  216   3.207   1.710   5.694  0.0611 -0.0117 -0.0466
  217ETH     CO  217   5.715   2.128   3.293 -0.3291 -0.0356  0.2401
  218ETH     CO  218   1.491   3.893   6.018  0.2563  0.1147  0.0902
  219ETH     CO  219   0.199   0.001   5.829 -0.3172 -0.0362 -0.2596
  220ETH     CO  220   4.901   6.529   3.842  0.3516  0.2325 -0.0893
  221ETH     CO  221   5.728   4.421   0.244 -0.0330 -0.1219 -0.0476
  222ETH     CO  222   6.318   1.404   0.451 -0.3221  0.0734  0.0951
  223ETH     CO  223   4.954   0.913   1.012  0.0407  0.0111 -0.1116
  224ETH     CO  224   4.615   5.272   0.589 -0.1297 -0.0463 -0.0475
  225ETH     CO  225   3.606   4.239   5.512 -0.4915  0.2048  0.1976
  226ETH     CO  226   4.587   1.467   6.245  0.1721 -0.0927  0.4919
  227ETH     CO  227   1.058   4.108   4.350 -0.3520 -0.3465 -0.0909
  228ETH     CO  228   5.485   5.133   5.553 -0.0240  0.1628  0.4426
  229ETH     CO  229   5.039   1.163   5.900  0.0822  0.1170  0.4397
  230ETH     CO  230   1.950   1.061   4.105 -0.0378 -0.1192 -0.2139
  231ETH     CO  231   2.606   1.951   3.434  0.1091  0.0859 -0.4718
  232ETH     CO  232   2.671   6.486   2.392 -0.5394  0.1097 -0.2046
  233ETH     CO  233   1.968   0.127   6.222  0.0238 -0.1948  0.1126
  234ETH     CO  234   1.487   5.902   1.869 -0.2230  0.3905 -0.2435
  235ETH     CO  235   6.011   6.194   0.890 -0.2807 -0.0481 -0.1636
  236ETH     CO  236   3.634   3.178   5.744 -0.3002  0.1473 -0.0046
  237ETH     CO  237   1.451   2.750   3.450 -0.2791  0.0603 -0.2005
  238ETH     CO  238   1.087   3.755   3.618  0.1883  0.0494  0.1175
  239ETH     CO  239   1.469   3.130   4.370  0.1386  0.2485  0.1444
  240ETH     CO  240   4.474   1.948   1.455 -0.1220  0.2702 -0.0025
  241ETH     CO  241   3.521   4.997   3.263 -0.4104  0.5246  0.1300
  242ETH     CO  242   3.931   0.367   3.514  0.1274 -0.3094  0.1720
  243ETH     CO  243   6.393   6.322   3.158 -0.0964  0.2827 -0.1167
  244ETH     CO  244   3.507   0.590   4.774  0.0385  0.3462 -0.1186
  245ETH     CO  245   1.757   6.598   0.617  0.1075  0.1411  0.1320
  246ETH     CO  246   6.233   5.512   2.231  0.2337  0.0114 -0.0707
  247ETH     CO  247   1.388   5.446   2.581 -0.0132 -0.0866  0.1242
  248ETH     CO  248   6.481   0.681   1.123  0.1464  0.3353 -0.4096
  249ETH     CO  249   0.494   4.834   0.245  0.0840 -0.1993 -0.0860
  250ETH     CO  250   0.632   6.357   3.988  0.0052  0.3559  0.0687
  251ETH     CO  251   2.766   3.948   5.157  0.0103  0.1441  0.2265
  252ETH     CO  252   4.757   3.653   5.482 -0.1889 -0.0487  0.0958
  253ETH     CO  253   3.644   5.455   3.390  0.3683  0.1720  0.3505
  254ETH     CO  254   3.224   5.718   4.046 -0.0327 -0.2812 -0.0180
  255ETH     CO  255   1.479   5.225   1.038 -0.1965  0.0361  0.0771
  256ETH     CO  256   1.879   6.003   3.170 -0.1904 -0.1654  0.2292
  257ETH     CO  257   5.243   2.963   4.320  0.1831 -0.0227  0.1810
  258ETH     CO  258   1.614   5.833   2.391  0.0684 -0.0155  0.0386
  259ETH     CO  259   5.212   4.745   3.024  0.0165  0.0772 -0.1443
  260ETH     CO  260   1.146   3.790   0.785  0.2644  0.2845 -0.0395
  261ETH     CO  261   2.461   3.481   5.355  0.2002  0.1522 -0.1423
  262ETH     CO  262   3.187   0.066   2.136 -0.0320 -0.1735  0.0111
  263ETH     CO  263   3.779   1.709   3.237  0.0064  0.1091 -0.0224
  264ETH     CO  264   5.127   2.094   5.144 -0.3148 -0.1259  0.0907
  265ETH     CO  265   3.157   1.281   0.976 -0.3459 -0.0373  0.2529
  266ETH     CO  266   2.102   3.708   4.277 -0.0678  0.0622  0.2309
  267ETH     CO  267   0.752   1.980   3.354  0.0429 -0.1878  0.5794
  268ETH     CO  268   3.047   1.152   4.247  0.1819 -0.2616 -0.2779
  269ETH     CO  269   3.175   0.981   1.603 -0.1248 -0.1339  0.0353
  270ETH     CO  270   0.987   1.957   4.325  0.1960  0.1115 -0.1184
  271ETH     CO  271   2.913   0.492   6.350  0.1651 -0.0983 -0.3269
  272ETH     CO  272   2.085   2.142   5.781  0.2747  0.1693 -0.1069
  273ETH     CO  273   0.661   4.328   0.307 -0.2703  0.0744  0.0594
  274ETH     CO  274   4.838   3.905   4.670 -0.1546  0.2613 -0.0368
  275ETH     CO  275   4.997   3.535   2.288  0.0926  0.1027  0.0347
  276ETH     CO  276   3.447   4.296   0.359  0.3376  0.0492 -0.2472
  277ETH     CO  277   4.769   3.195   0.801 -0.0089 -0.2012  0.0809
  278ETH     CO  278   0.683   0.864   5.508 -0.0648  0.1883 -0.0070
  279ETH     CO  279   6.446   2.876   4.750  0.2741 -0.1784 -0.0363
  280ETH     CO  280   1.828   0.387   5.846  0.2311  0.4208  0.1965
  281ETH     CO  281   1.134   0.092   5.799  0.4799  0.2149  0.0923
  282ETH     CO  282   4.724   2.493   1.377 -0.0822 -0.1408 -0.1103
  283ETH     CO  283   0.035   1.694   4.241 -0.0626  0.0627  0.1500
  284ETH     CO  284   3.718   4.985   4.861 -0.0898  0.0013  0.0141
  285ETH     CO  285   6.529   6.502   5.367  0.0389 -0.0198 -0.1542
  286ETH     CO  286   6.532   5.104   2.039  0.0302 -0.1826 -0.1539
  287ETH     CO  287   0.673   2.276   3.863 -0.0508 -0.1300 -0.0973
  288ETH     CO  288   5.179   4.268   5.835 -0.2753 -0.2754  0.2123
  289ETH     CO  289   5.470   2.814   2.683 -0.0364 -0.0289 -0.0875
  290ETH     CO  290   5.732   4.012   4.632  0.0730 -0.4342 -0.2805
  291ETH     CO  291   6.594   4.925   6.459 -0.3454 -0.2638  0.3499
  292ETH     CO  292   5.165   1.592   4.477 -0.1564  0.1361  0.3447
  293ETH     CO  293   0.001   2.654   3.191  0.1528 -0.2610  0.0405
  294ETH     CO  294   2.039   5.643   3.502 -0.0543 -0.0382 -0.1204
  295ETH     CO  295   6.597   3.935   1.784 -0.1927 -0.3603  0.0621
  296ETH     CO  296   3.902   3.354   3.862  0.0903 -0.1776  0.2122
  297ETH     CO  297   3.597   5.934   3.735  0.0020 -0.1102 -0.2819
  298ETH     CO  298   6.346   1.566   5.763  0.0833 -0.0216  0.0475
  299ETH     CO  299   4.744   1.823   4.268 -0.0896 -0.0835 -0.0099
  300ETH     CO  300   2.917   1.065   3.029  0.0351 -0.1458  0.1637
  301ETH     CO  301   1.276   6.162   1.437  0.1049  0.0959 -0.3311
  302ETH     CO  302   4.395   5.071   1.408 -0.0985  0.1607 -0.1634
  303ETH     CO  303   5.504   1.160   4.704 -0.0618  0.0289  0.2430
  304ETH     CO  304   6.356   4.865   5.042 -0.3669 -0.0474  0.0737
  305ETH     CO  305   1.301   2.546   0.530 -0.2086  0.1360 -0.1200
  306ETH     CO  306   5.622   2.277   4.049 -0.2495 -0.1959 -0.4640
  307ETH     CO  307   2.646   2.025   6.585  0.0540  0.0375  0.1269
  308ETH     CO  308   3.328   5.819   5.927  0.1232  0.0562  0.2817
  309ETH     CO  309   5.223   5.510   0.542  0.4365 -0.1100 -0.0283
  310ETH     CO  310   4.147   3.507   1.721 -0.1842  0.1713 -0.0975
  311ETH     CO  311   2.977   5.587   5.508  0.1635  0.1502 -0.0422
  312ETH     CO  312   4.409   4.705   3.664  0.0162  0.2682  0.3172
  313ETH     CO  313   1.620   5.509   4.482 -0.1572  0.1871  0.2762
  314ETH     CO  314   4.517   0.278   3.028 -0.1471  0.1039  0.0544
  315ETH     CO  315   2.714   4.653   1.937 -0.3406  0.0928  0.1463
  316ETH     CO  316   4.042   6.229   2.941  0.2453 -0.1549 -0.3052
  317ETH     CO  317   5.406   5.471   1.995  0.2935  0.4506  0.0176
  318ETH     CO  318   4.659   2.511   2.774 -0.0948 -0.2929  0.0655
  319ETH     CO  319   3.146   5.961   4.482  0.3000  0.4745  0.0686
  320ETH     CO  320   4.156   1.409   1.404 -0.4927  0.0622 -0.2077
  321ETH     CO  321   4.490   3.243   5.540 -0.1547  0.1817 -0.2219
  322ETH     CO  322   5.412   1.424   1.621 -0.1792 -0.4252  0.2769
  323ETH     CO  323   5.333   0.351   1.044 -0.0536  0.0557 -0.4072
  324ETH     CO  324   3.767   5.189   1.264 -0.0684  0.0439  0.1425
  325ETH     CO  325   5.755   1.668   0.313  0.2808 -0.0406  0.1345
  326ETH     CO  326   2.059   2.545   3.493 -0.3099 -0.2070  0.0035
  327ETH     CO  327   0.618   3.737   0.166  0.4233 -0.1928 -0.0237
  328ETH     CO  328   3.717   1.477   4.491  0.1817 -0.1808 -0.0324
  329ETH     CO  329   1.121   2.109   3.859 -0.2666  0.2964 -0.0051
  330ETH     CO  330   3.230   0.975   3.697 -0.0735 -0.2127 -0.0368
  331ETH     CO  331   3.700   0.201   0.155 -0.3719  0.2236  0.3444
  332ETH     CO  332   5.921   0.667   1.307  0.1943  0.1154  0.0313
  333ETH     CO  333   5.579   1.419   2.702 -0.1181 -0.3115 -0.2091
  334ETH     CO  334   1.845   6.298   4.077  0.1068 -0.1433 -0.0199
  335ETH     CO  335   0.819   0.432   0.563 -0.0686  0.2650 -0.2664
  336ETH     CO  336   1.223   4.138   5.600  0.0724  0.1633  0.0305
  337ETH     CO  337   2.400   5.772   5.149  0.3934 -0.0235 -0.0432
  338ETH     CO  338   5.232   3.256   0.505 -0.1396  0.1520  0.0696
  339ETH     CO  339   5.981   0.987   4.692  0.1235  0.1695  0.0002
  340ETH     CO  340   0.794   0.009   5.224 -0.0476 -0.1633  0.1355
  341ETH     CO  341   3.390   3.467   1.068  0.2648 -0.2497  0.0391
  342ETH     CO  342   2.824   4.223   2.873 -0.2644  0.1507  0.0668
  343ETH     CO  343   1.827   1.638   0.213  0.0505  0.0320 -0.1234
  344ETH     CO  344   4.591   5.406   1.928  0.0461 -0.1643  0.0891
  345ETH     CO  345   4.669   4.249   5.839  0.2002 -0.2597 -0.0051
  346ETH     CO  346   3.387   1.105   6.208 -0.1308  0.0428 -0.1202
  347ETH     CO  347   0.639   6.591   2.435  0.0246  0.0679  0.0983
  348ETH     CO  348   2.821   6.148   3.631  0.1510 -0.0540  0.0321
  349ETH     CO  349   1.624   4.909   1.903 -0.1048 -0.1054  0.1426
  350ETH     CO  350   6.223   3.197   5.755 -0.1477 -0.0368 -0.1435
  351ETH     CO  351   4.530   0.007   5.489 -0.0072  0.0297 -0.4506
  352ETH     CO  352   3.963   0.487   0.520 -0.0710 -0.0469 -0.1891
  353ETH     CO  353   3.918   5.182   4.378 -0.0900  0.2680  0.0471
  354ETH     CO  354   6.392   4.916   4.401 -0.0637  0.3285 -0.5107
  355ETH     CO  355   1.251   3.205   2.475 -0.2644 -0.2872  0.1353
  356ETH     CO  356   1.784   5.970   1.495  0.0048  0.0024  0.0528
  357ETH     CO  357   6.394   2.075   3.169 -0.0337  0.1038 -0.0417
  358ETH     CO  358   1.108   5.510   5.261 -0.3352 -0.1327 -0.1959
  359ETH     CO  359   1.079   0.576   5.635  0.0688 -0.0068 -0.3843
  360ETH     CO  360   4.338   1.149   5.927 -0.0133  0.0660 -0.0517
  361ETH     CO  361   5.086   5.622   3.345  0.0565  0.0409  0.0922
  362ETH     CO  362   3.996   5.148   2.466  0.1778  0.3403 -0.3028
  363ETH     CO  363   4.898   4.161   5.347 -0.0528  0.1643 -0.0873
  364ETH     CO  364   2.465   1.266   0.588  0.1401 -0.0142  0.0747
  365ETH     CO  365   5.842   5.602   4.610  0.0530 -0.0626  0.1315
  366ETH     CO  366   4.847   3.746   0.003  0.2319  0.0446  0.1191
  367ETH     CO  367   1.387   5.729   1.187 -0.2027 -0.0444 -0.0326
  368ETH     CO  368   3.855   0.268   4.964  0.1263  0.0633  0.1612
  369ETH     CO  369   2.292   0.191   0.522  0.1282 -0.0283 -0.0644
  370ETH     CO  370   5.114   5.799   4.594 -0.2221 -0.0212  0.1576
  371ETH     CO  371   6.183   0.615   2.889  0.1109 -0.2194  0.3502
  372ETH     CO  372   0.788   0.047   0.902  0.3042  0.3044 -0.0187
  373ETH     CO  373   4.220   6.489   4.250 -0.0254  0.1054  0.1469
  374ETH     CO  374   3.708   2.618   3.484  0.2654  0.1843 -0.1339
  375ETH     CO  375   6.555   0.418   3.964 -0.2891  0.1051 -0.1861
  376ETH     CO  376   5.829   2.631   1.157 -0.1545 -0.3010 -0.1887
  377ETH     CO  377   1.840   0.239   3.436  0.1134  0.3524  0.2038
  378ETH     CO  378   1.664   3.960   2.247  0.0574 -0.2932  0.2928
  379ETH     CO  379   2.365   2.556   4.790 -0.1833  0.0401 -0.2014
  380ETH     CO  380   4.681   1.679   1.045  0.2296 -0.1441  0.0091
  381ETH     CO  381   0.007   5.100   5.895  0.1148  0.0739 -0.5353
  382ETH     CO  382   3.368   4.112   3.833  0.0965 -0.0128 -0.1071
  383ETH     CO  383   0.164   3.746   6.510  0.2356  0.1120 -0.0617
  384ETH     CO  384   5.409   0.291   0.174  0.2503 -0.1376  0.1689
  385ETH     CO  385   0.911   5.045   6.488 -0.3337 -0.2856  0.0858
  386ETH     CO  386   5.355   1.602   2.211  0.1253 -0.0817 -0.0931
  387ETH     CO  387   2.363   5.058   6.287 -0.0934  0.1223  0.3987
  388ETH     CO  388   2.494   0.285   2.995  0.1474 -0.1441  0.1341
  389ETH     CO  389   5.757   3.670   4.165  0.1631 -0.0323 -0.5761
  390ETH     CO  390   2.344   1.802   5.571 -0.4520  0.1307  0.1664
  391ETH     CO  391   0.691   6.394   1.541 -0.3043 -0.0616  0.1963
  392ETH     CO  392   4.000   4.222   1.088 -0.0725 -0.0621 -0.2640
  393ETH     CO  393   5.348   0.077   6.043 -0.1674  0.2521 -0.2878
  394ETH     CO  394   3.828   3.669   4.455  0.2785  0.0110 -0.2365
  395ETH     CO  395   1.975   3.859   6.099  0.0576  0.0569  0.2629
  396ETH     CO  396   2.980   3.353   2.400 -0.1413  0.0395 -0.3098
  397ETH     CO  397   6.291   1.175   1.358  0.3583 -0.1436 -0.2210
  398ETH     CO  398   6.363   3.139   3.099 -0.0288 -0.0541 -0.3026
  399ETH     CO  399   4.997   3.488   3.572 -0.1399  0.0919 -0.2806
  400ETH     CO  400   3.761   0.804   6.157  0.3178  0.0878  0.2047
  401ETH     CO  401   3.514   0.128   3.433 -0.0586 -0.3255  0.1093
  402ETH     CO  402   5.058   0.559   0.678 -0.2072  0.3073  0.2187
  403ETH     CO  403   6.612   5.733   6.552  0.0068 -0.2067  0.0628
  404ETH     CO  404   0.357   3.049   2.246 -0.1404 -0.2738 -0.0502
  405ETH     CO  405   5.679   5.394   1.013 -0.0396 -0.1117 -0.1789
  406ETH     CO  406   5.673   5.884   1.275  0.2670 -0.3405  0.1043
  407ETH     CO  407   5.738   6.422   1.726  0.0895 -0.0209  0.1210
  408ETH     CO  408   3.987   4.390   6.187 -0.2116  0.1658  0.0584
  409ETH     CO  409   4.084   2.282   1.246 -0.2937  0.2669 -0.1434
  410ETH     CO  410   0.908   1.511   5.242  0.0590 -0.1672  0.1003
  411ETH     CO  411   2.579   2.721   1.982 -0.2520  0.1999  0.0790
  412ETH     CO  412   6.437   5.653   3.796 -0.1923  0.1967 -0.0049
  413ETH     CO  413   5.360   5.722   3.818 -0.2319  0.0812 -0.2022
  414ETH     CO  414   1.233   0.168   5.272 -0.0675  0.1883 -0.0464
  415ETH     CO  415   1.570   4.397   5.304  0.2172  0.0825  0.1594
  416ETH     CO  416   5.110   2.025   2.201  0.0228 -0.2424 -0.0391
  417ETH     CO  417   4.209   6.083   4.464 -0.0245  0.0612  0.3924
  418ETH     CO  418   6.443   6.539   3.665  0.3358  0.1231  0.0763
  419ETH     CO  419   2.308   0.073   1.031 -0.1037 -0.0581 -0.0446
  420ETH     CO  420   5.942   6.053   2.289 -0.0411 -0.1334  0.0393
  421ETH     CO  421   6.312   1.574   1.921 -0.0233 -0.2708 -0.3930
  422ETH     CO  422   0.746   3.270   0.197  0.1967  0.1171  0.0660
  423ETH     CO  423   1.232   1.233   2.764  0.2153 -0.2183  0.0111
  424ETH     CO  424   2.034   3.211   6.554 -0.1139  0.1537  0.2578
  425ETH     CO  425   0.704   6.307   2.054  0.0068 -0.2508 -0.1893
  426ETH     CO  426   6.362   3.470   2.752 -0.1274 -0.0503 -0.1544
  427ETH     CO  427   3.114   4.753   0.504 -0.3169  0.0308 -0.0397
  428ETH     CO  428   0.782   0.249   3.774  0.2070 -0.0989  0.0628
  429ETH     CO  429   2.170   2.386   1.761  0.1759 -0.1831 -0.1431
  430ETH     CO  430   6.033   1.027   5.689 -0.2914 -0.3538 -0.1344
  431ETH     CO  431   0.626   1.212   5.903 -0.0791  0.2508  0.0195
  432ETH     CO  432   0.683   2.223   2.295  0.2783 -0.0165 -0.2578
  433ETH     CO  433   1.657   3.876   6.494  0.2043 -0.1667 -0.1401
  434ETH     CO  434   4.877   5.002   0.250 -0.1663  0.0212  0.3864
  435ETH     CO  435   4.439   4.684   5.982  0.0908  0.3946 -0.1475
  436ETH     CO  436   2.567   2.907   3.053  0.1335  0.1276  0.1065
  437ETH     CO  437   4.132   3.120   2.052  0.2485 -0.1541  0.2313
  438ETH     CO  438   4.039   6.473   4.760  0.3706  0.0801  0.0083
  439ETH     CO  439   4.545   6.561   4.994  0.1399  0.4647 -0.1068
  440ETH     CO  440   2.296   1.748   0.350  0.0341  0.0540  0.0787
  441ETH     CO  441   0.888   4.926   5.995 -0.3513  0.2052 -0.0595
  442ETH     CO  442   1.968   5.629   2.021 -0.0134 -0.3293  0.1408
  443ETH     CO  443   6.577   1.065   2.357 -0.0405  0.1135  0.4108
  444ETH     CO  444   0.311   1.073   0.060  0.1642 -0.2310  0.0877
  445ETH     CO  445   1.595   3.823   1.034  0.2465  0.1130  0.1070
  446ETH     CO  446   4.148   3.288   0.014 -0.2196 -0.0965 -0.1320
  447ETH     CO  447   6.040   5.896   3.066  0.2955  0.1905  0.2234
  448ETH     CO  448   6.500   6.360   1.026  0.1005 -0.1456 -0.2706
  449ETH     CO  449   0.795   0.698   0.956 -0.1366 -0.1590 -0.0517
  450ETH     CO  450   1.799   3.086   1.424  0.0090  0.2458  0.2215
  451ETH     CO  451   0.495   1.691   4.197  0.1364  0.2575 -0.1423
  452ETH     CO  452   5.526   0.838   5.087  0.1407 -0.0732  0.1256
  453ETH     CO  453   1.412   2.772   1.332 -0.4079 -0.0215  0.1449
  454ETH     CO  454   5.597   1.888   1.274 -0.2441 -0.0645 -0.0116
  455ETH     CO  455   5.280   6.037   0.493  0.0140 -0.1308  0.0718
  456ETH     CO  456   4.158   6.046   6.048 -0.1483 -0.0462 -0.0421
  457ETH     CO  457   0.341   4.299   5.855  0.0685  0.1400  0.0209
  458ETH     CO  458   1.297   0.754   0.539  0.3401  0.1803 -0.1551
  459ETH     CO  459   1.923   2.075   6.602  0.1260 -0.1131 -0.0140
  460ETH     CO  460   2.499   5.662   2.293  0.1681 -0.1869 -0.0477
  461ETH     CO  461   5.260   5.410   5.918  0.0874  0.0894 -0.1037
  462ETH     CO  462   5.851   5.334   5.206  0.0423  0.2296  0.0628
  463ETH     CO  463   6.576   3.968   0.304  0.0911  0.6150  0.0148
  464ETH     CO  464   0.793   2.709   2.519  0.1314  0.2429 -0.1791
  465ETH     CO  465   4.905   6.037   6.122  0.3304  0.1470 -0.0122
  466ETH     CO  466   2.222   4.304   6.013  0.0308  0.1657 -0.0048
  467ETH     CO  467   4.901   2.306   3.881  0.0223  0.2049  0.0326
  468ETH     CO  468   5.317   2.696   3.860  0.2257  0.0301  0.0254
  469ETH     CO  469   4.032   4.672   2.250  0.1058  0.1481 -0.1495
  470ETH     CO  470   5.044   2.748   1.609 -0.1480 -0.0590 -0.1779
  471ETH     CO  471   4.718   3.382   1.480  0.0367  0.2375 -0.3193
  472ETH     CO  472   4.923   2.897   4.774  0.1883 -0.2974 -0.0485
  473ETH     CO  473   5.271   6.605   1.862  0.2148 -0.2979  0.0596
  474ETH     CO  474   2.115   0.080   4.084  0.1009 -0.1335 -0.1150
  475ETH     CO  475   2.811   2.258   6.118 -0.1089 -0.0589 -0.0726
  476ETH     CO  476   5.668   4.126   0.729 -0.4744  0.1730 -0.2866
  477ETH     CO  477   2.888   3.085   6.392  0.1091 -0.1303  0.2479
  478ETH     CO  478   3.468   2.257   2.043 -0.0969  0.1545 -0.1762
  479ETH     CO  479   1.369   4.362   2.821  0.0055  0.0725 -0.0143
  480ETH     CO  480   6.529   3.590   3.781 -0.2288  0.0587  0.0715
  481ETH     CO  481   5.601   1.575   4.239  0.0930 -0.1564  0.1321
  482ETH     CO  482   2.907   2.931   0.287  0.1545 -0.2435  0.2550
  483ETH     CO  483   0.734   2.649   0.650  0.2048 -0.2564  0.0434
  484ETH     CO  484   2.750   5.574   1.782  0.0867  0.3740 -0.1112
  485ETH     CO  485   0.606   2.101   2.816 -0.0981 -0.0090  0.5788
  486ETH     CO  486   5.343   2.007   4.688  0.0945 -0.2584  0.0574
  487ETH     CO  487   5.252   1.106   4.270 -0.1778 -0.3132  0.1039
  488ETH     CO  488   5.353   0.184   3.679  0.2410 -0.0808  0.0863
  489ETH     CO  489   3.223   2.506   3.650 -0.2095  0.0734  0.2901
  490ETH     CO  490   6.545   2.349   3.658  0.1417  0.1050 -0.2031
  491ETH     CO  491   1.022   2.150   0.626  0.1324 -0.0704 -0.3464
  492ETH     CO  492   1.209   2.210   4.720  0.1796  0.0570  0.1069
  493ETH     CO  493   2.713   1.637   5.941  0.1908  0.1132 -0.1138
  494ETH     CO  494   3.446   3.134   0.246 -0.4467  0.6958  0.0440
  495ETH     CO  495   1.789   0.587   1.863  0.1415 -0.0691 -0.0798
  496ETH     CO  496   3.647   3.445   1.521 -0.0152  0.3663 -0.0591
  497ETH     CO  497   1.480   2.253   0.054 -0.0761 -0.0985  0.0408
  498ETH     CO  498   3.632   3.110   6.359  0.2300 -0.0408 -0.0880
  499ETH     CO  499   3.924   4.441   3.663 -0.2460  0.1836  0.3386
  500ETH     CO  500   0.478   4.574   3.891 -0.1719 -0.0659  0.1370
  501ETH     CO  501   3.472   4.965   3.846  0.0875  0.1834  0.1084
  502ETH     CO  502   4.128   0.801   4.947 -0.1838 -0.1417  0.0459
  503ETH     CO  503   5.469   1.532   6.027  0.1549 -0.3697  0.0815
  504ETH     CO  504   0.920   2.968   4.198 -0.0173 -0.1574  0.1119
  505ETH     CO  505   5.479   1.735   3.698 -0.1053  0.0745 -0.0557
  506ETH     CO  506   1.754   0.324   5.357  0.2433 -0.0074  0.2335
  507ETH     CO  507   5.868   2.234   4.988 -0.2971 -0.0419 -0.0109
  508ETH     CO  508   0.509   3.028   3.250 -0.0356  0.2752  0.0111
  509ETH     CO  509   0.426   5.475   0.994 -0.3147 -0.0787  0.0389
  510ETH     CO  510   6.595   4.410   3.705  0.2073  0.0440  0.2704
  511ETH     CO  511   5.811   1.046   2.232  0.1664 -0.3088 -0.1641
  512ETH     CO  512   1.106   2.152   5.417  0.2098 -0.0151 -0.2519
  513ETH     CO  513   3.325   1.079   0.105 -0.0340 -0.0832  0.2189
  514ETH     CO  514   3.504   2.827   1.798 -0.2154 -0.1372  0.3280
  515ETH     CO  515   0.103   4.529   0.373  0.1987 -0.0664 -0.4824
  516ETH     CO  516   1.565   2.333   3.721 -0.4998 -0.0319  0.1703
  517ETH     CO  517   4.900   4.375   2.110 -0.0624  0.3263  0.2171
  518ETH     CO  518   0.303   2.770   1.602 -0.0632  0.0387  0.0875
  519ETH     CO  519   3.398   2.230   4.109  0.1539 -0.1070  0.0120
  520ETH     CO  520   2.160   0.711   2.864 -0.1777 -0.2022  0.4605
  521ETH     CO  521   2.965   6.101   5.833 -0.0628 -0.3258 -0.0921
  522ETH     CO  522   1.072   6.001   3.894  0.1973 -0.0362 -0.3500
  523ETH     CO  523   3.383   1.907   0.145  0.1919 -0.0523 -0.0427
  524ETH     CO  524   4.672   2.170   6.471 -0.1524  0.0316 -0.0553
  525ETH     CO  525   0.129   5.501   4.588  0.1616  0.2034 -0.0750
  526ETH     CO  526   5.581   6.336   4.678 -0.2263 -0.0764  0.2284
  527ETH     CO  527   4.463   2.880   1.795  0.4330  0.0696 -0.0241
  528ETH     CO  528   3.645   4.556   4.149  0.0266  0.1219 -0.1533
  529ETH     CO  529   4.001   6.430   5.736 -0.0952 -0.3537  0.1944
  530ETH     CO  530   3.235   5.696   3.503 -0.0127  0.0937  0.0040
  531ETH     CO  531   2.969   0.435   5.182 -0.0003 -0.2269  0.3259
  532ETH     CO  532   0.016   1.124   5.045  0.0607 -0.0269  0.1611
  533ETH     CO  533   1.807   3.380   5.716 -0.2122 -0.1025 -0.5305
  534ETH     CO  534   3.617   4.861   0.843  0.1941 -0.1438 -0.0991
  535ETH     CO  535   3.922   3.489   6.227  0.1648 -0.1525 -0.2270
  536ETH     CO  536   2.444   6.219   5.025 -0.3675 -0.1057 -0.1371
  537ETH     CO  537   3.812   5.991   5.595  0.0408 -0.0952 -0.4212
  538ETH     CO  538   1.992   1.921   4.256 -0.1279  0.1512 -0.2109
  539ETH     CO  539   3.197   0.151   6.597 -0.1229  0.2239 -0.0756
  540ETH     CO  540   1.408   1.966   1.930  0.1447 -0.6126 -0.2286
  541ETH     CO  541   5.014   4.279   3.821 -0.4242  0.0841  0.2702
  542ETH     CO  542   4.146   3.173   3.311 -0.4109  0.0247 -0.1263
  543ETH     CO  543   0.342   1.925   4.606  0.1235  0.3003 -0.0075
  544ETH     CO  544   2.896   5.096   2.010 -0.0138  0.1954 -0.1242
  545ETH     CO  545   1.472   3.996   1.492 -0.0657  0.0219  0.3208
  546ETH     CO  546   1.952   3.351   2.415 -0.2490 -0.2080  0.2458
  547ETH     CO  547   1.100   3.688   0.256 -0.0136 -0.2057 -0.1485
  548ETH     CO  548   3.349   0.579   3.484  0.2354  0.0012  0.0129
  549ETH     CO  549   2.470   0.617   5.034 -0.0777 -0.2942 -0.0383
  550ETH     CO  550   5.866   5.562   3.976  0.0061 -0.0062  0.0870
  551ETH     CO  551   4.346   4.638   1.895  0.1705  0.0741 -0.1519
  552ETH     CO  552   3.590   1.011   0.784  0.1930 -0.0817 -0.1341
  553ETH     CO  553   3.450   6.348   5.598 -0.1341 -0.0828 -0.4123
  554ETH     CO  554   2.096   5.165   3.731 -0.1777 -0.0410 -0.0746
  555ETH     CO  555   6.414   5.315   3.098  0.0257  0.1399  0.0346
  556ETH     CO  556   0.706   3.081   1.165 -0.0805 -0.1756  0.0884
  557ETH     CO  557   3.305   3.762   1.661 -0.0766  0.0597  0.0651
  558ETH     CO  558   0.075   5.462   2.464 -0.0989 -0.4094  0.0268
  559ETH     CO  559   2.300   5.282   5.196 -0.3093  0.2524 -0.1451
  560ETH     CO  560   1.741   1.678   6.087 -0.2932 -0.1055  0.1649
  561ETH     CO  561   6.565   0.313   5.591 -0.3885 -0.2154  0.1656
  562ETH     CO  562   2.799   2.238   3.833 -0.2465 -0.2189  0.0837
  563ETH     CO  563   4.610   3.843   3.585 -0.3892 -0.0598 -0.0655
  564ETH     CO  564   5.122   6.049   0.039  0.0974  0.2035 -0.1426
  565ETH     CO  565   0.330   1.848   1.913 -0.1390  0.1784  0.4179
  566ETH     CO  566   0.102   4.560   5.448 -0.0631 -0.0969 -0.0290
  567ETH     CO  567   1.421   1.062   0.946  0.1211  0.0458 -0.1944
  568ETH     CO  568   0.699   5.105   3.123  0.0433  0.0507  0.0282
  569ETH     CO  569   3.623   1.160   5.776 -0.0754 -0.0918  0.0606
  570ETH     CO  570   5.883   3.148   2.781 -0.3293  0.0385 -0.0300
  571ETH     CO  571   2.466   4.919   0.868  0.1214  0.0554 -0.0938
  572ETH     CO  572   3.122   1.476   6.471  0.1603  0.2752 -0.0171
  573ETH     CO  573   1.211   0.960   6.028 -0.0640 -0.0168  0.1634
  574ETH     CO  574   0.213   1.306   4.548  0.2006  0.0029  0.2169
  575ETH     CO  575   3.216   4.258   1.902 -0.0220 -0.2616  0.1246
  576ETH     CO  576   2.388   6.007   3.199  0.1288  0.1083  0.2666
  577ETH     CO  577   3.315   4.095   4.411 -0.0597 -0.1279 -0.0754
  578ETH     CO  578   0.012   3.416   1.768  0.1399  0.1063 -0.0686
  579ETH     CO  579   4.558   6.187   5.774 -0.1463 -0.1811  0.0131
  580ETH     CO  580   6.444   3.357   0.654  0.0496 -0.1584  0.2310
  581ETH     CO  581   1.371   1.688   3.838  0.0534  0.0796  0.0114
  582ETH     CO  582   3.551   6.193   1.364  0.1239 -0.0340  0.2275
  583ETH     CO  583   6.507   5.680   1.868 -0.2070  0.0132 -0.0166
  584ETH     CO  584   3.702   2.708   2.314 -0.3366 -0.0166  0.0013
  585ETH     CO  585   4.318   2.525   5.597 -0.2742  0.0794 -0.1758
  586ETH     CO  586   4.758   2.269   1.885 -0.0141  0.2285  0.1463
  587ETH     CO  587   6.147   4.666   1.087 -0.0808 -0.2032  0.0810
  588ETH     CO  588   4.394   0.559   0.138  0.1816  0.0073 -0.3714
  589ETH     CO  589   3.786   0.056   3.989  0.3476 -0.3422  0.1001
  590ETH     CO  590   1.538   0.009   2.909 -0.2613 -0.1674  0.1846
  591ETH     CO  591   2.936   4.204   4.070  0.2661  0.0932 -0.1148
  592ETH     CO  592   6.339   0.598   1.731 -0.1952 -0.1471  0.2461
  593ETH     CO  593   3.617   2.053   0.994  0.1055  0.1801 -0.2860
  594ETH     CO  594   5.692   5.120   6.132  0.1703 -0.1257  0.2421
  595ETH     CO  595   1.185   4.285   1.194  0.0153 -0.1548  0.2860
  596ETH     CO  596   1.421   2.659   5.866  0.1600  0.1193  0.1841
  597ETH     CO  597   2.907   2.422   4.349 -0.0332  0.0075 -0.2547
  598ETH     CO  598   1.676   1.420   2.838 -0.0353 -0.2626  0.0207
  599ETH     CO  599   5.204   1.873   6.443 -0.0570 -0.1051 -0.1277
  600ETH     CO  600   1.445   3.868   4.159  0.0313  0.0050  0.0316
  601ETH     CO  601   4.927   5.991   0.978  0.1295  0.0185 -0.2391
  602ETH     CO  602   2.185   0.573   3.319 -0.1699  0.4340 -0.1693
  603ETH     CO  603   0.793   1.191   2.059  0.1319 -0.0674 -0.1247
  604ETH     CO  604   4.732   4.737   1.418  0.0246 -0.0067 -0.0135
  605ETH     CO  605   4.053   5.602   3.155  0.2202 -0.2660  0.2362
  606ETH     CO  606   2.870   2.831   2.600 -0.1508  0.3241  0.0335
  607ETH     CO  607   6.451   1.118   2.905  0.1902 -0.2644  0.1014
  608ETH     CO  608   3.579   0.187   1.231  0.0070 -0.1712  0.0127
  609ETH     CO  609   2.697   5.005   0.097 -0.1827 -0.1558  0.2322
  610ETH     CO  610   4.548   4.618   5.467  0.1020 -0.1083 -0.1284
  611ETH     CO  611   5.718   4.137   4.048 -0.0160  0.0821  0.0600
  612ETH     CO  612   3.758   1.047   2.102  0.0808 -0.3807 -0.1958
  613ETH     CO  613   3.045   1.480   2.718 -0.1688 -0.0518  0.0188
  614ETH     CO  614   2.451   6.220   5.965  0.4343  0.6726 -0.1257
  615ETH     CO  615   2.087   4.335   5.542  0.0619 -0.3583  0.2595
  616ETH     CO  616   3.624   0.398   2.116 -0.0380  0.0549 -0.0347
  617ETH     CO  617   1.815   6.118   6.377 -0.2709  0.0308 -0.3110
  618ETH     CO  618   4.416   1.714   0.550  0.0840  0.1282  0.2512
  619ETH     CO  619   2.002   3.653   5.347  0.0711 -0.1864 -0.1053
  620ETH     CO  620   5.234   2.434   3.098  0.1370  0.1249  0.0525
  621ETH     CO  621   5.777   3.024   0.318 -0.3941  0.3392 -0.2864
  622ETH     CO  622   4.879   3.656   0.599  0.0805  0.4579  0.0768
  623ETH     CO  623   1.280   5.023   5.125  0.0966 -0.1492  0.2567
  624ETH     CO  624   2.215   2.103   2.595  0.2867  0.1140 -0.1127
  625ETH     CO  625   2.129   1.279   0.204  0.2014  0.1021 -0.0503
  626ETH     CO  626   6.566   4.822   3.164 -0.0110  0.0540  0.0429
  627ETH     CO  627   3.319   0.272   0.820  0.0271  0.2402  0.0343
  628ETH     CO  628   5.526   4.511   3.788 -0.0013 -0.0735 -0.1873
  629ETH     CO  629   5.086   0.609   6.151  0.0715 -0.2200 -0.2903
  630ETH     CO  630   4.087   3.480   5.360 -0.3094  0.0493  0.1698
  631ETH     CO  631   5.168   4.836   2.482  0.0499 -0.3840 -0.0213
  632ETH     CO  632   5.298   0.409   2.989  0.3906 -0.1248  0.4068
  633ETH     CO  633   0.465   1.246   5.285 -0.1310 -0.1172 -0.2346
  634ETH     CO  634   0.202   3.559   0.413 -0.0831 -0.1216 -0.2523
  635ETH     CO  635   5.570   6.420   2.241  0.1242  0.2210  0.1877
  636ETH     CO  636   1.909   3.927   1.765  0.1016 -0.0666  0.1083
  637ETH     CO  637   0.480   6.133   2.507  0.0764  0.2091  0.1160
  638ETH     CO  638   3.391   4.924   1.396 -0.4498 -0.0348  0.0231
  639ETH     CO  639   4.331   3.556   0.782 -0.3868 -0.2373  0.1149
  640ETH     CO  640   6.072   1.581   6.506 -0.1304  0.4550 -0.0031
  641ETH     CO  641   1.908   2.495   1.303  0.1768 -0.0229 -0.0831
  642ETH     CO  642   0.998   6.556   3.441  0.0298 -0.0599 -0.1342
  643ETH     CO  643   5.243   6.046   5.162 -0.1649  0.2560  0.1917
  644ETH     CO  644   2.113   2.620   2.199  0.0833  0.1442 -0.1236
  645ETH     CO  645   1.007   5.559   2.979  0.0762  0.1830 -0.0605
  646ETH     CO  646   0.285   4.416   1.948  0.2948  0.2026  0.2299
  647ETH     CO  647   4.251   1.616   5.544  0.1717 -0.1483  0.1232
  648ETH     CO  648   0.159   5.168   5.408  0.1446 -0.0340  0.0538
  649ETH     CO  649   2.679   2.999   5.390 -0.2583  0.2898 -0.0175
  650ETH     CO  650   3.059   4.290   4.938  0.0528 -0.0132  0.1014
  651ETH     CO  651   6.005   6.521   5.084 -0.2659 -0.2067 -0.0506
  652ETH     CO  652   5.412   5.712   6.329 -0.1349  0.2616 -0.1361
  653ETH     CO  653   1.710   1.180   3.664  0.1733  0.3590  0.0442
  654ETH     CO  654   6.201   2.758   3.706  0.0611  0.0184 -0.1223
  655ETH     CO  655   1.010   4.402   2.343 -0.0532 -0.0739  0.1167
  656ETH     CO  656   2.742   6.319   4.664  0.3758  0.1636 -0.1614
  657ETH     CO  657   6.436   1.468   0.983  0.1171 -0.0313  0.2222
  658ETH     CO  658   1.631   0.121   2.152 -0.1018 -0.0252  0.2229
  659ETH     CO  659   2.615   0.267   5.517  0.1765 -0.2304  0.0778
  660ETH     CO  660   5.077   6.305   4.763  0.0041 -0.3253 -0.2993
  661ETH     CO  661   4.676   0.940   2.404 -0.2598 -0.3634 -0.0278
  662ETH     CO  662   4.605   0.449   1.770  0.3367  0.2366 -0.3007
  663ETH     CO  663   5.179   1.149   2.502  0.2292 -0.1152  0.1814
  664ETH     CO  664   0.964   3.610   2.329  0.0712  0.1485 -0.1887
  665ETH     CO  665   6.300   2.039   4.083 -0.1715  0.2552 -0.3861
  666ETH     CO  666   4.315   5.034   0.149 -0.0246 -0.1123  0.2724
  667ETH     CO  667   2.015   3.218   4.494 -0.1726 -0.2223  0.0562
  668ETH     CO  668   1.572   3.043   2.135  0.3745 -0.0159 -0.0549
  669ETH     CO  669   3.590   3.599   6.598  0.1577  0.0754 -0.0721
  670ETH     CO  670   2.916   4.032   1.539 -0.2435  0.1623 -0.0504
  671ETH     CO  671   3.635   2.570   0.859  0.1744  0.0530 -0.0759
  672ETH     CO  672   5.881   4.867   5.128  0.2043  0.0359 -0.0719
  673ETH     CO  673   0.917   0.135   4.214  0.1631 -0.0109  0.1476
  674ETH     CO  674   5.277   3.359   4.066  0.2985  0.3667  0.0607
  675ETH     CO  675   5.387   4.532   0.735 -0.0008  0.2586  0.2131
  676ETH     CO  676   0.234   0.284   3.643 -0.1575 -0.2152 -0.0375
  677ETH     CO  677   4.913   2.990   3.086  0.1084  0.0645  0.0723
  678ETH     CO  678   3.931   1.502   3.849 -0.2296 -0.0982  0.3452
  679ETH     CO  679   0.059   6.578   2.684 -0.0454 -0.2017  0.0801
  680ETH     CO  680   6.309   5.763   4.766  0.3544 -0.2360 -0.1107
  681ETH     CO  681   5.186   1.584   4.994 -0.1194  0.1191  0.0865
  682ETH     CO  682   0.128   5.551   0.534  0.0189 -0.0264  0.1341
  683ETH     CO  683   1.179   1.423   3.271  0.0131  0.4008  0.3790
  684ETH     CO  684   5.820   2.767   6.063  0.1092 -0.1300  0.1929
  685ETH     CO  685   4.169   0.673   2.943 -0.0858  0.0803 -0.1564
  686ETH     CO  686   4.505   0.796   5.447  0.2658  0.0451  0.0579
  687ETH     CO  687   0.178   1.002   4.091 -0.0728  0.0008  0.3065
  688ETH     CO  688   3.168   0.015   1.584 -0.2135  0.1963  0.2231
  689ETH     CO  689   4.890   1.823   3.626 -0.1307 -0.0978  0.1147
  690ETH     CO  690   0.576   1.353   0.806 -0.0332 -0.3326 -0.0660
  691ETH     CO  691   4.072   3.974   3.928  0.0686  0.1794  0.1409
  692ETH     CO  692   0.252   5.678   5.527 -0.0506  0.2998 -0.1335
  693ETH     CO  693   3.440   3.580   3.740  0.1203 -0.0971 -0.2907
  694ETH     CO  694   0.097   0.349   4.975  0.1092  0.2704  0.1455
  695ETH     CO  695   0.807   4.407   5.881 -0.0633 -0.1000 -0.0118
  696ETH     CO  696   3.390   0.191   5.100 -0.1462 -0.1836 -0.2137
  697ETH     CO  697   2.981   6.151   0.783  0.3361  0.3314  0.0855
  698ETH     CO  698   1.260   0.224   0.626  0.0896  0.1498  0.0256
  699ETH     CO  699   4.193   2.241   0.697  0.2661 -0.0132  0.0039
  700ETH     CO  700   3.131   5.752   1.056 -0.4718  0.4394 -0.2781
  701ETH     CO  701   5.932   3.020   3.328 -0.0474  0.1950  0.2507
  702ETH     CO  702   2.585   3.938   6.139 -0.2553 -0.3744  0.1007
  703ETH     CO  703   6.222   2.454   4.531 -0.1840 -0.0987  0.1174
  704ETH     CO  704   4.254   0.891   3.432 -0.0530  0.3272 -0.1229
  705ETH     CO  705   1.206   1.452   6.089 -0.2420  0.1325 -0.0548
  706ETH     CO  706   6.166   6.609   6.443  0.5877 -0.1843  0.0582
  707ETH     CO  707   6.183   5.294   6.576  0.3181 -0.1653  0.0147
  708ETH     CO  708   3.495   6.354   0.011 -0.1270 -0.1572  0.0122
  709ETH     CO  709   0.730   5.492   6.552  0.0218 -0.0822  0.0488
  710ETH     CO  710   5.087   4.172   6.484  0.0036 -0.1851 -0.2335
  711ETH     CO  711   5.604   3.404   1.246  0.0774 -0.2401  0.1797
  712ETH     CO  712   2.246   5.627   1.628 -0.2666  0.0615 -0.0729
  713ETH     CO  713   6.509   1.357   3.382  0.1051  0.1018  0.1041
  714ETH     CO  714   6.166   2.283   1.084  0.2965 -0.1108  0.0592
  715ETH     CO  715   1.210   0.498   1.019  0.0075 -0.0205 -0.1493
  716ETH     CO  716   3.158   3.255   1.602  0.1933 -0.0222  0.1478
  717ETH     CO  717   1.556   3.620   4.582 -0.1615 -0.2526 -0.4003
  718ETH     CO  718   3.397   0.505   0.367  0.0791 -0.0411  0.0339
  719ETH     CO  719   5.099   4.016   0.823  0.0239  0.0942 -0.0262
  720ETH     CO  720   4.725   2.946   1.260 -0.0916 -0.1072 -0.0855
  721ETH     CO  721   4.179   5.165   5.905 -0.1934  0.0814  0.1647
  722ETH     CO  722   6.305   1.998   6.105  0.0636  0.0173  0.0366
  723ETH     CO  723   4.763   1.305   4.760  0.1019 -0.0343  0.0333
  724ETH     CO  724   2.763   1.536   5.448  0.0323 -0.0321  0.1565
  725ETH     CO  725   1.112   2.655   6.254 -0.1986 -0.0091 -0.0110
  726ETH     CO  726   4.356   3.127   2.868 -0.0385 -0.1796 -0.0687
  727ETH     CO  727   4.930   0.267   3.361  0.3641 -0.1698  0.2819
  728ETH     CO  728   4.376   0.695   0.971  0.0389 -0.2660 -0.0865
  729ETH     CO  729   6.359   5.918   1.399 -0.0332  0.1328  0.0271
  730ETH     CO  730   1.298   4.676   3.732  0.0809 -0.1588 -0.0004
  731ETH     CO  731   3.701   6.264   0.482 -0.0055  0.0785 -0.0988
  732ETH     CO  732   4.620   3.201   3.432  0.1140  0.3935  0.1914
  733ETH     CO  733   4.661   4.157   0.153  0.0069  0.1524 -0.1696
  734ETH     CO  734   2.559   3.977   3.497 -0.2070 -0.1088  0.1374
  735ETH     CO  735   4.894   1.285   0.695  0.1382  0.0830  0.2255
  736ETH     CO  736   4.349   2.588   6.581  0.2387  0.2452 -0.2192
  737ETH     CO  737   5.517   2.491   6.483  0.0409  0.2264 -0.0288
  738ETH     CO  738   5.527   6.050   4.270 -0.0390 -0.3341  0.2910
  739ETH     CO  739   2.212   1.696   6.391  0.0327 -0.1064  0.0082
  740ETH     CO  740   1.957   1.618   1.291  0.1549 -0.1406 -0.1243
  741ETH     CO  741   3.165   1.893   4.464  0.4144  0.2460 -0.2448
  742ETH     CO  742   0.136   3.984   3.496  0.2301  0.3162  0.0946
  743ETH     CO  743   1.276   0.821   6.541  0.1475  0.1032  0.1751
  744ETH     CO  744   5.847   1.780   6.068  0.2167 -0.1721 -0.0998
  745ETH     CO  745   1.261   1.197   4.523 -0.0249  0.1736 -0.4125
  746ETH     CO  746   2.970   2.315   1.937 -0.0445  0.1511 -0.1020
  747ETH     CO  747   1.121   5.279   4.659  0.3274 -0.0336 -0.1684
  748ETH     CO  748   3.938   6.112   2.221 -0.1332  0.0164 -0.1826
  749ETH     CO  749   4.999   5.255   2.211 -0.2590  0.1627  0.0765
  750ETH     CO  750   2.182   4.162   4.589 -0.1983  0.0252 -0.1712
  751ETH     CO  751   2.191   3.377   6.078  0.0991 -0.2214 -0.3678
  752ETH     CO  752   1.061   0.049   1.318 -0.0529  0.1395  0.0229
  753ETH     CO  753   6.181   0.162   1.127  0.1250 -0.0757 -0.1025
  754ETH     CO  754   1.990   1.659   2.598  0.3321 -0.1577  0.0526
  755ETH     CO  755   3.660   3.909   1.357  0.3454 -0.0194  0.2144
  756ETH     CO  756   5.105   3.169   5.595 -0.0597 -0.2219 -0.0290
  757ETH     CO  757   0.793   5.927   6.055 -0.0321 -0.1034 -0.2728
  758ETH     CO  758   2.008   0.533   3.929 -0.0125 -0.2832 -0.0462
  759ETH     CO  759   3.604   5.425   5.626 -0.1610 -0.0325 -0.0468
  760ETH     CO  760   5.370   5.223   3.106 -0.0483  0.0069  0.0595
  761ETH     CO  761   0.039   0.365   2.027 -0.2877  0.2581 -0.3800
  762ETH     CO  762   0.331   1.544   3.655  0.2129  0.0934 -0.1136
  763ETH     CO  763   5.258   3.866   3.996  0.1334  0.1471 -0.0618
  764ETH     CO  764   1.630   2.422   2.121  0.4188  0.1859  0.2338
  765ETH     CO  765   1.204   5.953   4.672  0.0745  0.1008  0.2235
  766ETH     CO  766   4.244   5.819   2.738 -0.0893  0.0803 -0.0372
  767ETH     CO  767   3.482   4.609   5.068  0.0357  0.3298 -0.0265
  768ETH     CO  768   4.819   2.686   3.479  0.0745  0.0660 -0.0569
  769ETH     CO  769   5.944   1.818   1.690 -0.0935 -0.1326  0.0730
  770ETH     CO  770   1.490   1.734   2.492  0.1787 -0.2292 -0.0190
  771ETH     CO  771   1.931   2.666   6.437 -0.2644  0.1185 -0.1602
  772ETH     CO  772   3.254   1.669   3.209 -0.2429 -0.0315 -0.0585
  773ETH     CO  773   0.727   5.285   5.043 -0.0440 -0.3718 -0.0501
  774ETH     CO  774   0.531   5.389   5.796 -0.2726 -0.0429  0.2081
  775ETH     CO  775   4.741   0.031   1.479 -0.0470 -0.3941 -0.1089
  776ETH     CO  776   6.320   0.253   4.618  0.2003  0.0954 -0.1930
  777ETH     CO  777   4.353   1.344   2.176  0.0750  0.0583 -0.0530
  778ETH     CO  778   5.789   0.460   3.442 -0.0463  0.1776 -0.0610
  779ETH     CO  779   6.602   1.638   6.298 -0.2240 -0.2249  0.1099
  780ETH     CO  780   3.040   0.235   3.174  0.0779  0.0517 -0.3594
  781ETH     CO  781   2.141   0.628   1.054  0.1021 -0.0060  0.1235
  782ETH     CO  782   3.794   4.650   5.804 -0.1425 -0.0036 -0.1269
  783ETH     CO  783   2.305   5.248   3.222 -0.1735  0.1506 -0.2430
  784ETH     CO  784   5.940   4.210   1.630 -0.1084 -0.2355  0.3163
  785ETH     CO  785   0.920   0.665   1.980  0.3519 -0.2599  0.1078
  786ETH     CO  786   4.997   4.340   4.388 -0.1196  0.0478 -0.2032
  787ETH     CO  787   0.847   3.352   3.614 -0.4038 -0.0111 -0.1409
  788ETH     CO  788   1.506   2.314   1.541 -0.0135  0.3105  0.3430
  789ETH     CO  789   1.120   2.077   6.335 -0.1715  0.2920  0.2312
  790ETH     CO  790   6.077   5.062   5.649 -0.2533  0.0745  0.2950
  791ETH     CO  791   0.315   6.125   5.828  0.4960 -0.1494 -0.1212
  792ETH     CO  792   5.608   4.699   2.721  0.0580 -0.1683  0.3664
  793ETH     CO  793   2.976   6.479   4.177 -0.0553  0.1046 -0.1085
  794ETH     CO  794   0.112   0.271   1.412 -0.1791 -0.2026 -0.0044
  795ETH     CO  795   5.475   3.945   5.642 -0.2956  0.1607  0.0089
  796ETH     CO  796   1.474   1.745   4.651  0.0770  0.0433 -0.1181
  797ETH     CO  797   2.982   4.819   4.990  0.2639 -0.1484  0.4008
  798ETH     CO  798   0.122   2.851   3.751 -0.3418  0.0673 -0.0228
  799ETH     CO  799   5.125   2.355   0.204  0.0821  0.1463 -0.2543
  800ETH     CO  800   6.514   0.758   6.454  0.1300 -0.2370  0.3769
  801ETH     CO  801   4.352   5.372   3.467  0.1120  0.1324 -0.0517
  802ETH     CO  802   1.353   0.391   3.309 -0.2606  0.1544 -0.0519
  803ETH     CO  803   5.259   3.920   3.488  0.2138  0.3529  0.0096
  804ETH     CO  804   1.466   2.902   6.542 -0.1212 -0.1741 -0.1386
  805ETH     CO  805   4.339   3.525   3.803  0.3555 -0.0997  0.2307
  806ETH     CO  806   4.711   0.994   1.952  0.1961 -0.0676 -0.1451
  807ETH     CO  807   3.800   3.230   2.453  0.2933  0.2506 -0.0803
  808ETH     CO  808   5.641   2.995   0.818  0.1248 -0.1593  0.1767
  809ETH     CO  809   2.458   3.916   1.401 -0.3137  0.0464  0.2627
  810ETH     CO  810   5.739   1.361   1.277 -0.0032  0.1326  0.0441
  811ETH     CO  811   1.802   0.511   4.410  0.4646 -0.1307 -0.5054
  812ETH     CO  812   1.822   5.353   6.137  0.1221 -0.2104  0.2214
  813ETH     CO  813   3.083   4.828   1.051 -0.1603  0.1309 -0.0502
  814ETH     CO  814   3.509   1.592   5.344 -0.2584  0.2731  0.0454
  815ETH     CO  815   2.103   4.650   6.520 -0.1598 -0.1327 -0.0561
  816ETH     CO  816   5.853   5.666   6.156 -0.0556  0.0433  0.1870
  817ETH     CO  817   5.224   1.970   4.147  0.3304 -0.2162 -0.0862
  818ETH     CO  818   1.901   5.664   5.412 -0.0677 -0.0330  0.2119
  819ETH     CO  819   6.066   3.719   5.114  0.2031  0.0668 -0.2680
  820ETH     CO  820   0.881   0.691   2.488  0.0586 -0.0066 -0.2438
  821ETH     CO  821   2.436   0.983   3.105 -0.0058 -0.5157 -0.1263
  822ETH     CO  822   4.009   2.121   2.678 -0.0736 -0.0624  0.1498
  823ETH     CO  823   3.053   4.398   5.415  0.2722  0.1298  0.2159
  824ETH     CO  824   1.460   5.270   4.033 -0.1815  0.0774 -0.2912
  825ETH     CO  825   3.890   5.406   6.598  0.2908 -0.2096 -0.2895
  826ETH     CO  826   4.427   2.080   4.011  0.1349 -0.4247 -0.1727
  827ETH     CO  827   0.702   1.296   0.237  0.0267 -0.0733  0.3748
  828ETH     CO  828   2.264   2.648   1.031 -0.2327  0.3945 -0.3934
  829ETH     CO  829   1.111   3.345   3.072 -0.3672  0.0885  0.0153
  830ETH     CO  830   0.805   1.189   3.451  0.0392 -0.0118  0.2807
  831ETH     CO  831   4.439   4.635   2.708  0.1446 -0.0366 -0.2911
  832ETH     CO  832   6.329   2.602   6.155 -0.2108  0.1177  0.0397
  833ETH     CO  833   5.213   5.927   2.995  0.1260  0.2637 -0.1891
  834ETH     CO  834   3.559   1.205   4.059  0.0643 -0.1824  0.2079
  835ETH     CO  835   1.582   0.380   6.520 -0.0405  0.3104  0.1165
  836ETH     CO  836   5.709   0.256   3.982  0.1169  0.1710  0.1985
  837ETH     CO  837   5.002   6.491   0.957  0.3447  0.0547  0.1393
  838ETH     CO  838   0.281   1.849   0.641 -0.0915 -0.2364  0.0058
  839ETH     CO  839   5.833   0.280   0.769  0.0684  0.3626 -0.3477
  840ETH     CO  840   1.854   2.920   3.158  0.1949 -0.1268 -0.0289
  841ETH     CO  841   6.199   4.723   3.536 -0.0938  0.3579 -0.1620
  842ETH     CO  842   0.914   5.566   3.783 -0.3141  0.0644 -0.2080
  843ETH     CO  843   0.941   0.855   4.088  0.2485  0.0573 -0.2212
  844ETH     CO  844   4.444   6.419   6.268  0.2247 -0.0741 -0.0740
  845ETH     CO  845   3.615   5.842   0.839 -0.1407  0.1883 -0.1691
  846ETH     CO  846   3.577   2.402   6.364  0.1153 -0.2047 -0.0754
  847ETH     CO  847   3.593   0.026   4.585  0.2302 -0.1647 -0.1762
  848ETH     CO  848   2.725   5.613   3.673 -0.2504 -0.1153 -0.1939
  849ETH     CO  849   0.410   6.443   4.936 -0.0484  0.0237 -0.0833
  850ETH     CO  850   5.491   5.630   4.944  0.0093 -0.3199 -0.1144
  851ETH     CO  851   4.018   1.073   3.987 -0.0826  0.4660  0.2132
  852ETH     CO  852   4.491   3.632   2.635 -0.0901 -0.4268 -0.2533
  853ETH     CO  853   4.546   1.253   0.333 -0.2001  0.0139  0.1189
  854ETH     CO  854   1.008   4.682   0.286 -0.2368  0.3414 -0.0234
  855ETH     CO  855   4.647   4.675   6.575  0.0951 -0.0593 -0.0269
  856ETH     CO  856   5.527   4.477   4.372 -0.2599 -0.0419  0.3777
  857ETH     CO  857   3.412   3.539   2.689  0.2196 -0.0310  0.1806
  858ETH     CO  858   5.539   0.484   6.311 -0.1364  0.0388 -0.0969
  859ETH     CO  859   4.625   2.823   5.400  0.1026 -0.1058  0.1177
  860ETH     CO  860   0.083   0.894   3.534  0.2481 -0.2363  0.3883
  861ETH     CO  861   1.714   1.064   5.322 -0.2306 -0.1700 -0.2412
  862ETH     CO  862   6.071   6.359   1.407 -0.0660 -0.0240 -0.0665
  863ETH     CO  863   1.655   4.878   4.445  0.0457 -0.0912 -0.0084
  864ETH     CO  864   5.720   0.110   1.222  0.1595  0.0847 -0.0996
  865ETH     CO  865   0.278   1.350   2.030  0.0426 -0.0103  0.2224
  866ETH     CO  866   1.555   2.675   4.080 -0.1778  0.1461  0.0927
  867ETH     CO  867   3.694   2.509   1.420 -0.0971  0.0595  0.2944
  868ETH     CO  868   0.638   0.838   1.431  0.2170  0.0925  0.2767
  869ETH     CO  869   6.533   4.840   3.936  0.0491 -0.1673  0.0674
  870ETH     CO  870   0.164   5.106   4.875  0.2984  0.4367  0.0680
  871ETH     CO  871   0.946   4.962   2.350  0.0816 -0.2241 -0.0423
  872ETH     CO  872   0.845   3.990   1.477  0.1709  0.0537  0.0010
  873ETH     CO  873   6.040   0.891   5.155  0.1014  0.1521 -0.1842
  874ETH     CO  874   1.506   4.983   2.437 -0.0321 -0.0825 -0.3166
  875ETH     CO  875   4.966   6.573   5.192  0.1679 -0.0931 -0.2484
  876ETH     CO  876   3.991   4.504   5.375 -0.4518 -0.1791  0.0599
  877ETH     CO  877   3.571   5.652   1.371  0.1421  0.3645 -0.0765
  878ETH     CO  878   0.195   2.525   4.724  0.0291 -0.1024  0.0254
  879ETH     CO  879   2.168   5.661   4.421  0.1048 -0.0544  0.2214
  880ETH     CO  880   6.572   3.445   6.096 -0.1251 -0.2580 -0.1584
  881ETH     CO  881   0.468   3.077   4.380  0.1197 -0.0166 -0.1117
  882ETH     CO  882   3.119   0.071   4.681 -0.0606 -0.0030  0.0807
  883ETH     CO  883   3.891   4.840   1.651  0.2642  0.0808  0.0132
  884ETH     CO  884   6.366   3.694   3.240  0.1624 -0.2077  0.1112
  885ETH     CO  885   3.705   5.592   1.853  0.1808  0.0320 -0.3571
  886ETH     CO  886   5.152   3.861   2.697 -0.0438 -0.0279  0.1601
  887ETH     CO  887   4.585   4.018   0.661  0.3195  0.1507  0.2393
  888ETH     CO  888   0.889   1.584   1.359 -0.2462 -0.0930  0.0986
  889ETH     CO  889   6.167   5.030   2.460  0.0930 -0.2369  0.0536
  890ETH     CO  890   4.206   4.836   5.079  0.3151 -0.2099 -0.2047
  891ETH     CO  891   5.183   5.054   0.785  0.0122 -0.1947 -0.1072
  892ETH     CO  892   1.842   5.502   1.259  0.0360  0.1276 -0.0933
  893ETH     CO  893   4.767   2.781   4.105 -0.2749  0.3207  0.1747
  894ETH     CO  894   5.491   0.533   5.834  0.0391  0.1807 -0.1987
  895ETH     CO  895   1.969   5.219   1.721  0.0845  0.1395 -0.0758
  896ETH     CO  896   1.433   3.516   2.125 -0.1148 -0.3717  0.2053
  897ETH     CO  897   5.441   6.560   5.146  0.2669 -0.0622  0.1293
  898ETH     CO  898   0.299   2.476   2.437 -0.1430 -0.0302 -0.0860
  899ETH     CO  899   2.395   3.854   2.856 -0.2038  0.1302  0.3332
  900ETH     CO  900   6.184   2.965   2.416 -0.0501 -0.2387  0.0702
  901ETH     CO  901   2.111   2.592   5.258  0.1192 -0.3397  0.1238
  902ETH     CO  902   5.349   6.533   4.238 -0.0559 -0.0149  0.5373
  903ETH     CO  903   3.222   5.388   3.027  0.3254  0.0264 -0.1235
  904ETH     CO  904   5.241   6.086   1.370 -0.1670 -0.0522  0.0222
  905ETH     CO  905   3.285   6.335   6.145 -0.4590 -0.0879 -0.0735
  906ETH     CO  906   0.487   1.740   5.419 -0.2299  0.0490  0.1681
  907ETH     CO  907   2.147   1.213   2.039  0.0877  0.1357  0.2824
  908ETH     CO  908   1.034   5.977   2.314  0.0338 -0.0529  0.1068
  909ETH     CO  909   5.593   5.034   2.292 -0.2010 -0.2009  0.1646
  910ETH     CO  910   3.858   3.482   0.395 -0.1418  0.0843 -0.1021
  911ETH     CO  911   1.558   4.523   2.342 -0.1850 -0.0870  0.0314
  912ETH     CO  912   2.461   0.073   6.080  0.0670  0.3969  0.2024
  913ETH     CO  913   3.210   5.077   0.099 -0.0477  0.2488 -0.0078
  914ETH     CO  914   2.529   5.040   2.361  0.1396  0.2497 -0.2511
  915ETH     CO  915   5.026   2.613   0.697 -0.2220  0.1685 -0.0611
  916ETH     CO  916   2.836   5.689   6.148  0.0182  0.0689  0.0754
  917ETH     CO  917   1.023   4.624   0.853  0.2454  0.0491  0.1442
  918ETH     CO  918   5.074   0.434   2.537  0.0354  0.0942 -0.1675
  919ETH     CO  919   2.362   3.568   0.480  0.1366 -0.3332 -0.0669
  920ETH     CO  920   0.591   0.334   4.687 -0.1252  0.1705 -0.1528
  921ETH     CO  921   0.058   3.862   2.458 -0.0864  0.2494  0.0563
  922ETH     CO  922   5.782   6.216   3.321  0.1162  0.1600  0.0560
  923ETH     CO  923   2.028   6.611   0.140  0.3585  0.0850 -0.0959
  924ETH     CO  924   1.550   6.555   6.075 -0.0853  0.0861 -0.2091
  925ETH     CO  925   1.405   0.544   2.189 -0.1990  0.0163  0.0892
  926ETH     CO  926   3.787   0.445   4.370  0.0240 -0.0251 -0.0568
  927ETH     CO  927   1.087   2.396   2.813  0.2102 -0.1168 -0.0832
  928ETH     CO  928   5.902   5.062   3.296 -0.0529 -0.0706 -0.0491
  929ETH     CO  929   1.807   4.758   5.540 -0.1008  0.2045  0.2701
  930ETH     CO  930   6.564   2.693   6.588 -0.5532 -0.0042 -0.2533
  931ETH     CO  931   0.280   2.017   3.711 -0.1002  0.0142  0.1546
  932ETH     CO  932   6.231   6.341   2.720 -0.0383  0.0525 -0.0824
  933ETH     CO  933   4.537   0.742   3.928  0.2275  0.2170  0.0089
  934ETH     CO  934   1.804   5.459   3.086  0.0178 -0.1146 -0.0079
  935ETH     CO  935   3.270   4.764   1.825  0.1759 -0.0315  0.1637
  936ETH     CO  936   5.757   2.829   2.150 -0.0644 -0.1608  0.0801
  937ETH     CO  937   2.589   3.618   4.824  0.1454  0.2356  0.0383
  938ETH     CO  938   2.244   1.432   5.905  0.1733 -0.0329 -0.0182
  939ETH     CO  939   1.758   0.481   3.015 -0.3725  0.2483  0.0977
  940ETH     CO  940   4.141   4.528   0.072 -0.0734 -0.0775  0.3434
  941ETH     CO  941   5.613   3.030   6.450 -0.1534 -0.3102 -0.0438
  942ETH     CO  942   4.865   0.336   4.737 -0.0023  0.1684 -0.1734
  943ETH     CO  943   6.320   6.163   1.835  0.0133  0.0612 -0.0586
  944ETH     CO  944   5.544   3.547   0.736 -0.1111 -0.2161  0.2539
  945ETH     CO  945   6.110   2.930   4.371  0.0248 -0.0691 -0.0248
  946ETH     CO  946   2.519   3.408   4.298 -0.0100  0.0810 -0.1763
  947ETH     CO  947   0.953   2.476   5.800 -0.1531  0.6219  0.0426
  948ETH     CO  948   2.377   0.567   4.300 -0.2013  0.3494  0.0483
  949ETH     CO  949   4.459   4.181   6.335 -0.0016 -0.1721  0.2629
  950ETH     CO  950   6.606   3.711   5.059 -0.0387 -0.2904  0.1595
  951ETH     CO  951   3.859   5.235   0.556 -0.1326 -0.2503  0.0041
  952ETH     CO  952   2.855   1.647   0.743 -0.0427  0.0081 -0.0422
  953ETH     CO  953   2.643   5.191   4.619 -0.2361 -0.0894  0.1249
  954ETH     CO  954   2.575   5.302   5.605 -0.0823  0.5456  0.0623
  955ETH     CO  955   5.198   2.077   1.013  0.1061 -0.0949  0.2591
  956ETH     CO  956   4.356   6.265   1.939  0.1517 -0.2493 -0.1173
  957ETH     CO  957   0.636   0.015   6.142 -0.1287 -0.1633 -0.0266
  958ETH     CO  958   0.503   0.738   4.368  0.1753  0.1362 -0.3506
  959ETH     CO  959   3.768   0.955   3.514 -0.0436  0.0355  0.3810
  960ETH     CO  960   1.253   1.483   2.006 -0.0908 -0.0619  0.2680
  961ETH     CO  961   4.590   5.625   0.969  0.1510 -0.0222 -0.3731
  962ETH     CO  962   6.125   5.218   0.885  0.1691 -0.1680 -0.0076
  963ETH     CO  963   3.929   6.494   6.328 -0.0155 -0.1015 -0.3122
  964ETH     CO  964   2.381   1.605   4.315 -0.0246 -0.0490  0.0291
  965ETH     CO  965   5.525   1.002   5.681  0.0338  0.0838  0.0724
  966ETH     CO  966   0.030   0.603   4.468  0.2334 -0.2326 -0.4056
  967ETH     CO  967   5.868   3.241   5.361 -0.0344 -0.1073  0.0345
  968ETH     CO  968   1.082   1.929   0.167  0.0752  0.1381 -0.0909
  969ETH     CO  969   6.149   3.075   6.279 -0.0914 -0.2166  0.1530
  970ETH     CO  970   3.118   2.239   4.884  0.2045 -0.2424 -0.3283
  971ETH     CO  971   6.059   2.505   4.083  0.0896  0.1913  0.0005
  972ETH     CO  972   1.516   0.757   5.665 -0.3530 -0.4050  0.0349
  973ETH     CO  973   1.580   1.262   5.779  0.0189  0.3089 -0.3599
  974ETH     CO  974   0.546   0.714   3.864 -0.3686 -0.1384  0.1081
  975ETH     CO  975   4.442   5.974   2.344  0.0516  0.1894  0.1831
  976ETH     CO  976   0.362   5.669   5.047 -0.1812 -0.0433 -0.3088
  977ETH     CO  977   3.181   5.289   4.802 -0.0490  0.1266  0.0215
  978ETH     CO  978   2.708   5.976   4.149  0.0485 -0.1306 -0.0201
  979ETH     CO  979   2.473   5.397   2.750  0.0244  0.0067  0.0695
  980ETH     CO  980   2.644   2.247   5.097  0.2600 -0.0343  0.3353
  981ETH     CO  981   3.926   1.126   3.068  0.0994  0.0960 -0.0551
  982ETH     CO  982   5.706   1.299   5.150  0.0567  0.2815  0.0016
  983ETH     CO  983   0.267   6.104   2.060 -0.1538 -0.1518  0.1706
  984ETH     CO  984   0.001   3.749   4.278 -0.3944 -0.0344 -0.1223
  985ETH     CO  985   3.740   5.322   2.919  0.1419 -0.2849  0.2383
  986ETH     CO  986   4.336   2.493   3.688  0.2311 -0.1347  0.1438
  987ETH     CO  987   5.092   3.736   1.381 -0.3005  0.2191 -0.1231
  988ETH     CO  988   1.036   3.595   4.125 -0.2221 -0.1906 -0.1450
  989ETH     CO  989   5.461   2.934   5.376  0.3745 -0.2965 -0.0415
  990ETH     CO  990   6.221   0.947   3.308  0.2646 -0.0436  0.0529
  991ETH     CO  991   2.539   6.431   0.273 -0.2217  0.0005  0.1354
  992ETH     CO  992   4.962   2.636   6.330 -0.1613  0.0733 -0.1575
  993ETH     CO  993   1.369   0.943   3.261  0.1509 -0.4034 -0.2240
  994ETH     CO  994   2.289   3.011   5.652  0.0722 -0.2510 -0.0483
  995ETH     CO  995   3.471   3.048   4.256 -0.1346 -0.1488  0.1960
  996ETH     CO  996   6.056   0.159   2.406 -0.1518  0.1385 -0.1768
  997ETH     CO  997   4.627   0.375   5.194 -0.3483  0.0145  0.1653
  998ETH     CO  998   1.961   2.390   3.027 -0.2156 -0.0508 -0.1084
  999ETH     CO  999   2.217   1.321   5.382 -0.0247 -0.1199  0.0221
 1000ETH     CO 1000   5.607   5.177   4.732  0.1081 -0.1686 -0.1273
 1001ETH     CO 1001   3.376   0.162   4.149  0.0738 -0.0033 -0.0732
 1002ETH     CO 1002   2.688   6.024   6.413  0.3511  0.0369 -0.2332
 1003ETH     CO 1003   3.264   1.382   4.672  0.0996  0.3168  0.2863
 1004ETH     CO 1004   3.692   0.272   5.723 -0.2004 -0.0831  0.0496
 1005ETH     CO 1005   2.106   0.037   2.003 -0.0235 -0.0219 -0.3108
 1006ETH     CO 1006   1.025   0.103   2.917 -0.0197 -0.4250 -0.1171
 1007ETH     CO 1007   6.119   5.783   6.584 -0.0321  0.0062  0.2925
 1008ETH     CO 1008   0.049   0.843   0.701 -0.1061 -0.3830 -0.2600
 1009ETH     CO 1009   4.620   4.422   3.351 -0.3973  0.1660 -0.1682
 1010ETH     CO 1010   6.141   6.335   4.076  0.0202  0.1184 -0.1050
 1011ETH     CO 1011   5.548   0.729   3.964 -0.1695  0.0198  0.2519
 1012ETH     CO 1012   4.156   4.776   0.888  0.0317  0.1286 -0.3975
 1013ETH     CO 1013   1.168   6.010   3.301  0.0873 -0.1188  0.2395
 1014ETH     CO 1014   0.097   6.419   4.114 -0.0323  0.2526 -0.2259
 1015ETH     CO 1015   6.581   5.866   4.230 -0.4386  0.0783  0.3120
 1016ETH     CO 1016   3.423   2.953   1.208  0.0664 -0.1534  0.0764
 1017ETH     CO 1017   4.426   5.140   4.743  0.2281  0.1041  0.2576
 1018ETH     CO 1018   4.331   4.904   4.311  0.0105 -0.0336  0.0961
 1019ETH     CO 1019   6.149   1.426   2.485  0.0847  0.3869  0.0263
 1020ETH     CO 1020   4.762   3.431   6.251  0.0708 -0.2811  0.2004
 1021ETH     CO 1021   1.423   2.010   5.820  0.2801  0.0005 -0.1100
 1022ETH     CO 1022   1.728   0.730   6.193  0.1009  0.3294  0.1365
 1023ETH     CO 1023   0.066   1.522   5.350  0.0369  0.1138  0.3443
 1024ETH     CO 1024   3.012   6.539   5.245 -0.0696 -0.1559 -0.0103
 1025ETH     CO 1025   1.329   4.540   4.218 -0.1445  0.0759  0.2425
 1026ETH     CO 1026   5.282   2.617   2.031 -0.2669  0.0560 -0.1000
 1027ETH     CO 1027   0.720   3.959   2.017  0.0923  0.5134  0.2756
 1028ETH     CO 1028   0.487   4.716   2.937 -0.0554  0.1218  0.1450
 1029ETH     CO 1029   1.192   3.900   1.927 -0.2599 -0.3529 -0.1305
 1030ETH     CO 1030   2.643   0.991   0.933 -0.1941  0.1417 -0.0293
 1031ETH     CO 1031   5.079   0.079   6.434 -0.0470 -0.1715  0.4528
 1032ETH     CO 1032   2.026   2.842   4.137  0.1197 -0.1116  0.1831
 1033ETH     CO 1033   1.358   1.916   3.385 -0.0146 -0.1556  0.0825
 1034ETH     CO 1034   5.936   2.072   4.426 -0.2532  0.1193  0.3022
 1035ETH     CO 1035   0.787   5.965   5.442 -0.0904 -0.0921  0.0892
 1036ETH     CO 1036   3.213   6.479   0.479  0.0402  0.0142  0.0094
 1037ETH     CO 1037   0.303   0.616   0.150 -0.0137  0.1455 -0.1614
 1038ETH     CO 1038   0.349   4.255   1.415  0.1910  0.0011  0.0219
 1039ETH     CO 1039   3.907   5.885   5.069  0.3253 -0.1188 -0.1251
 1040ETH     CO 1040   3.357   0.284   6.056 -0.1125  0.1341 -0.0203
 1041ETH     CO 1041   1.537   4.905   0.012 -0.0960 -0.0169 -0.0261
 1042ETH     CO 1042   2.335   3.005   2.334  0.0327 -0.1882  0.0050
 1043ETH     CO 1043   5.827   0.905   3.614  0.0208 -0.2387  0.0029
 1044ETH     CO 1044   2.083   2.458   4.382 -0.0282  0.0283  0.0807
 1045ETH     CO 1045   5.108   0.751   5.619 -0.0614 -0.1958  0.3210
 1046ETH     CO 1046   0.868   0.578   5.109 -0.0596 -0.2529  0.0197
 1047ETH     CO 1047   5.822   1.886   2.812  0.1242 -0.6174  0.0535
 1048ETH     CO 1048   0.005   2.698   4.252 -0.0436 -0.0583  0.0545
 1049ETH     CO 1049   4.351   3.405   6.000 -0.0183 -0.2304  0.1942
 1050ETH     CO 1050   2.678   0.871   1.423 -0.0996  0.0179  0.1220
 1051ETH     CO 1051   6.401   2.081   1.636  0.0769 -0.1608  0.0115
 1052ETH     CO 1052   6.189   4.609   5.537 -0.0695  0.0729  0.0041
 1053ETH     CO 1053   4.950   0.417   3.809  0.1520 -0.1056  0.0951
 1054ETH     CO 1054   2.055   0.512   6.609  0.2569 -0.1046 -0.1883
 1055ETH     CO 1055   0.425   2.269   0.860 -0.0007  0.2026  0.3540
 1056ETH     CO 1056   0.919   1.116   1.098  0.1787 -0.0780  0.0155
 1057ETH     CO 1057   5.995   1.699   3.366  0.0084 -0.2685  0.0373
 1058ETH     CO 1058   0.176   2.363   1.257 -0.1419 -0.2683  0.2466
 1059ETH     CO 1059   6.374   4.345   5.006 -0.0412 -0.0301  0.2594
 1060ETH     CO 1060   3.907   3.600   3.433 -0.2381 -0.1198  0.1194
 1061ETH     CO 1061   4.619   2.160   1.000 -0.0982 -0.1822  0.0819
 1062ETH     CO 1062   4.935   1.877   0.635  0.0901 -0.2181 -0.0753
 1063ETH     CO 1063   5.615   0.407   5.309  0.0880  0.0041 -0.0210
 1064ETH     CO 1064   0.605   0.215   3.283 -0.1393 -0.1373  0.0821
 1065ETH     CO 1065   5.700   5.464   0.491 -0.0165  0.0419  0.0326
 1066ETH     CO 1066   3.239   2.778   6.430 -0.4711 -0.1085  0.1420
 1067ETH     CO 1067   4.241   3.139   0.550 -0.0800 -0.1968  0.2138
 1068ETH     CO 1068   4.527   1.977   6.056  0.0018 -0.3689 -0.1400
 1069ETH     CO 1069   5.878   2.609   2.997  0.2027 -0.0272 -0.1549
 1070ETH     CO 1070   5.038   6.290   2.258 -0.1275 -0.0442 -0.3663
 1071ETH     CO 1071   3.930   5.999   3.398 -0.3474  0.0454  0.1108
 1072ETH     CO 1072   0.790   0.951   6.375  0.0468 -0.3227 -0.2509
 1073ETH     CO 1073   0.846   0.820   0.221  0.1236 -0.1027  0.0660
 1074ETH     CO 1074   6.103   1.797   1.233 -0.0115  0.2803  0.0616
 1075ETH     CO 1075   1.836   6.409   5.096 -0.0323  0.1999 -0.0785
 1076ETH     CO 1076   1.521   0.708   3.629  0.2249 -0.1477  0.1119
 1077ETH     CO 1077   2.787   1.098   0.022  0.1063 -0.3463 -0.0957
 1078ETH     CO 1078   5.906   0.016   5.542 -0.0276 -0.1255 -0.1806
 1079ETH     CO 1079   1.178   5.170   0.408 -0.0101  0.1473  0.0322
 1080ETH     CO 1080   2.922   5.492   4.392 -0.0762 -0.0340 -0.2185
 1081ETH     CO 1081   0.528   1.563   4.926 -0.1896 -0.0898  0.2022
 1082ETH     CO 1082   0.950   5.944   1.818  0.1746  0.0862 -0.0163
 1083ETH     CO 1083   3.688   4.545   1.338  0.2381  0.2144  0.1126
 1084ETH     CO 1084   3.034   1.479   3.636 -0.1999 -0.2405 -0.2690
 1085ETH     CO 1085   0.199   1.018   1.289 -0.3481  0.1613  0.1567
 1086ETH     CO 1086   2.753   2.119   5.616  0.0570  0.3194 -0.0533
 1087ETH     CO 1087   5.712   4.156   2.561 -0.1949  0.0403 -0.2347
 1088ETH     CO 1088   3.470   1.428   2.392 -0.3499  0.4216  0.1384
 1089ETH     CO 1089   3.966   5.587   3.733  0.1035 -0.2242  0.0516
 1090ETH     CO 1090   3.753   1.851   2.306  0.2832 -0.2120  0.1470
 1091ETH     CO 1091   2.676   2.344   2.520  0.4160  0.1682  0.0188
 1092ETH     CO 1092   3.815   3.797   2.613  0.1136  0.2887 -0.1996
 1093ETH     CO 1093   6.258   5.464   4.302  0.0438 -0.1468  0.0541
 1094ETH     CO 1094   5.940   2.001   5.521 -0.0252 -0.0305 -0.3303
 1095ETH     CO 1095   3.444   6.164   3.376  0.1697 -0.0150  0.0759
 1096ETH     CO 1096   1.223   1.839   2.887 -0.1170 -0.2485 -0.2463
 1097ETH     CO 1097   4.906   1.415   2.096  0.0793 -0.0359  0.1703
 1098ETH     CO 1098   5.691   2.619   3.573  0.3607 -0.1220  0.1017
 1099ETH     CO 1099   5.371   6.210   3.627  0.3510 -0.1722 -0.2820
 1100ETH     CO 1100   2.725   1.514   3.215  0.4335 -0.0731  0.0646
 1101ETH     CO 1101   5.776   6.406   0.400 -0.1734  0.2343 -0.2079
 1102ETH     CO 1102   1.838   0.993   3.203  0.0008  0.3201 -0.0873
 1103ETH     CO 1103   6.112   6.301   4.588 -0.0127 -0.0177  0.0964
 1104ETH     CO 1104   0.539   4.545   2.374  0.3053  0.2171 -0.1485
 1105ETH     CO 1105   5.324   5.639   5.429  0.0260 -0.1049  0.2604
 1106ETH     CO 1106   4.724   3.285   3.985  0.1384  0.0527  0.0916
 1107ETH     CO 1107   5.796   3.536   6.215  0.1696 -0.0411 -0.0216
 1108ETH     CO 1108   1.684   6.491   5.580 -0.0750  0.0395  0.0763
 1109ETH     CO 1109   4.718   5.044   0.985  0.0148 -0.2323  0.1356
 1110ETH     CO 1110   0.857   0.005   0.396 -0.0970 -0.0335 -0.1708
 1111ETH     CO 1111   4.191   0.171   6.554 -0.2635  0.1501  0.0533
 1112ETH     CO 1112   5.079   3.478   1.829  0.1272 -0.2154 -0.0809
 1113ETH     CO 1113   4.998   0.965   3.837  0.0521 -0.0706 -0.3454
 1114ETH     CO 1114   4.931   5.319   5.454  0.1422  0.2361  0.0712
 1115ETH     CO 1115   5.695   2.982   3.989 -0.0451  0.1888  0.0908
 1116ETH     CO 1116   3.916   2.771   6.523 -0.1477  0.3716  0.0592
 1117ETH     CO 1117   3.325   1.789   2.037  0.4634 -0.0443 -0.0372
 1118ETH     CO 1118   0.542   0.397   2.249 -0.0052 -0.1606 -0.2560
 1119ETH     CO 1119   2.668   4.424   5.849 -0.0279 -0.0890 -0.1706
 1120ETH     CO 1120   5.825   2.417   2.542  0.0388  0.0147  0.2263
 1121ETH     CO 1121   4.927   1.443   3.980 -0.1709 -0.2158  0.2944
 1122ETH     CO 1122   4.719   2.421   4.452  0.1610  0.0469  0.2036
 1123ETH     CO 1123   5.211   2.429   4.376  0.0547  0.1205 -0.0266
 1124ETH     CO 1124   2.807   1.025   6.093  0.1213 -0.0915  0.1890
 1125ETH     CO 1125   4.255   5.753   5.500 -0.0968 -0.0570  0.0761
 1126ETH     CO 1126   5.150   4.778   3.583  0.1095 -0.0395 -0.3832
 1127ETH     CO 1127   1.194   0.447   3.962  0.2495 -0.1016  0.0681
 1128ETH     CO 1128   0.084   0.106   3.214  0.0565  0.0461 -0.1128
 1129ETH     CO 1129   6.360   1.893   4.589  0.2329  0.1398  0.0438
 1130ETH     CO 1130   0.486   2.792   6.582 -0.1357  0.1527  0.1779
 1131ETH     CO 1131   1.026   0.729   3.569  0.1382 -0.0888  0.1407
 1132ETH     CO 1132   2.193   3.163   2.873  0.1105  0.1102 -0.0611
 1133ETH     CO 1133   0.717   3.588   3.130  0.1021  0.0735  0.1714
 1134ETH     CO 1134   3.025   3.289   5.047  0.2130 -0.1676 -0.3895
 1135ETH     CO 1135   1.170   2.066   2.349 -0.1656  0.1602  0.1021
 1136ETH     CO 1136   4.654   2.270   0.468  0.2113 -0.0442  0.1115
 1137ETH     CO 1137   6.283   1.078   1.908 -0.0215  0.0549  0.5165
 1138ETH     CO 1138   0.737   5.596   3.350 -0.1089 -0.1950  0.0381
 1139ETH     CO 1139   0.399   4.761   3.459  0.0814 -0.2450 -0.0102
 1140ETH     CO 1140   4.142   3.945   4.765 -0.2747  0.1713  0.2694
 1141ETH     CO 1141   5.232   2.879   1.163 -0.2576  0.0746  0.0807
 1142ETH     CO 1142   6.530   0.352   0.715  0.3020  0.0021 -0.0426
 1143ETH     CO 1143   3.171   3.884   0.158 -0.1659 -0.0822 -0.0603
 1144ETH     CO 1144   3.279   1.783   1.193  0.0142  0.2300 -0.0755
 1145ETH     CO 1145   3.657   1.557   0.922  0.2173 -0.1208  0.0733
 1146ETH     CO 1146   3.357   5.408   0.677  0.1177 -0.2443  0.1699
 1147ETH     CO 1147   1.436   4.616   1.550  0.0495 -0.1324  0.2401
 1148ETH     CO 1148   0.984   5.634   0.887 -0.0554  0.0058  0.1074
 1149ETH     CO 1149   5.643   5.741   2.762 -0.4166 -0.1594 -0.0226
 1150ETH     CO 1150   1.264   6.438   3.876 -0.0596  0.2135  0.1545
 1151ETH     CO 1151   5.065   5.681   1.618  0.0166 -0.0352 -0.0445
 1152ETH     CO 1152   3.822   2.704   4.168 -0.2742  0.0142  0.0979
 1153ETH     CO 1153   1.271   6.407   0.973 -0.2588 -0.3456 -0.1711
 1154ETH     CO 1154   5.448   3.815   2.137  0.2546 -0.0289 -0.2472
 1155ETH     CO 1155   1.576   0.386   4.883  0.0775  0.1825 -0.2237
 1156ETH     CO 1156   6.045   5.912   4.309 -0.1883  0.2841  0.2350
 1157ETH     CO 1157   0.517   4.182   4.316 -0.0013 -0.0078  0.1774
 1158ETH     CO 1158   5.291   4.923   4.089 -0.0383  0.0118  0.1076
 1159ETH     CO 1159   3.236   3.129   3.748  0.3261 -0.0190  0.1361
 1160ETH     CO 1160   0.872   5.099   5.513  0.0725  0.2445  0.0954
 1161ETH     CO 1161   3.798   0.061   1.677  0.2445  0.1190  0.1889
 1162ETH     CO 1162   1.059   1.223   0.612 -0.0731 -0.0258 -0.1716
 1163ETH     CO 1163   5.025   1.165   0.131 -0.0781 -0.2156  0.1977
 1164ETH     CO 1164   2.576   3.133   0.750 -0.1930  0.0855  0.0759
 1165ETH     CO 1165   0.548   2.854   4.912  0.1028  0.2898  0.2490
 1166ETH     CO 1166   1.347   4.747   3.235  0.1721  0.0448 -0.2585
 1167ETH     CO 1167   0.510   4.262   3.412  0.0483 -0.0203  0.0116
 1168ETH     CO 1168   6.441   6.079   0.586 -0.0229  0.0806 -0.2979
 1169ETH     CO 1169   5.865   0.797   6.121 -0.2617 -0.3061 -0.1497
 1170ETH     CO 1170   0.840   0.947   2.934 -0.0647  0.1568 -0.3908
 1171ETH     CO 1171   4.638   6.171   1.273  0.1643  0.2269  0.1826
 1172ETH     CO 1172   4.343   3.710   6.446 -0.1633 -0.0457 -0.0997
 1173ETH     CO 1173   0.692   0.276   5.687 -0.1012 -0.2210  0.5603
 1174ETH     CO 1174   4.763   0.332   1.024 -0.1380  0.2757  0.2846
 1175ETH     CO 1175   5.862   0.874   1.753 -0.3360 -0.0061  0.3182
 1176ETH     CO 1176   5.741   6.341   2.838 -0.1535 -0.0330  0.2812
 1177ETH     CO 1177   1.788   2.150   4.781 -0.1103  0.0670 -0.2563
 1178ETH     CO 1178   2.088   4.217   1.272 -0.0992  0.0609 -0.0437
 1179ETH     CO 1179   5.136   0.496   4.306 -0.1356 -0.2601 -0.2881
 1180ETH     CO 1180   0.551   3.611   4.477 -0.5337 -0.1275 -0.1071
 1181ETH     CO 1181   2.230   1.041   6.394 -0.1559  0.1205  0.1255
 1182ETH     CO 1182   6.038   0.057   3.130 -0.1844 -0.3159 -0.0682
 1183ETH     CO 1183   1.122   6.128   0.541 -0.0649  0.1560 -0.0435
 1184ETH     CO 1184   2.596   4.338   4.831  0.1795  0.1264  0.1552
 1185ETH     CO 1185   5.355   4.207   2.984  0.1047 -0.3133  0.0548
 1186ETH     CO 1186   5.466   1.214   3.817  0.0334 -0.2665 -0.2355
 1187ETH     CO 1187   1.740   1.193   1.312  0.2184 -0.1449  0.1802
 1188ETH     CO 1188   1.325   5.078   6.102 -0.0283 -0.2931 -0.1984
 1189ETH     CO 1189   2.837   3.684   1.977 -0.1543 -0.1528 -0.2664
 1190ETH     CO 1190   0.555   0.241   0.003  0.0974  0.3278  0.0700
 1191ETH     CO 1191   3.550   6.310   4.195  0.0121  0.1762  0.0166
 1192ETH     CO 1192   3.226   6.348   2.672  0.1193 -0.4388 -0.2926
 1193ETH     CO 1193   5.732   3.261   1.920 -0.1406 -0.3043  0.3312
 1194ETH     CO 1194   6.203   3.923   2.605 -0.1296  0.0240  0.0461
 1195ETH     CO 1195   5.604   0.811   0.082  0.0845 -0.0115 -0.0667
 1196ETH     CO 1196   6.011   4.635   2.136 -0.2614 -0.3152  0.2124
 1197ETH     CO 1197   0.433   4.633   6.305 -0.1725 -0.0015 -0.0419
 1198ETH     CO 1198   4.404   5.398   2.530  0.1666 -0.2704 -0.0653
 1199ETH     CO 1199   6.080   0.713   0.792  0.3672  0.1114 -0.2784
 1200ETH     CO 1200   0.152   1.619   0.170 -0.1982  0.1690 -0.2651
 1201ETH     CO 1201   4.483   3.582   4.999  0.2493 -0.0573 -0.2496
 1202ETH     CO 1202   2.448   6.140   1.804 -0.0164  0.1102 -0.1572
 1203ETH     CO 1203   4.498   4.533   4.556 -0.2791 -0.0529  0.1848
 1204ETH     CO 1204   5.131   0.767   4.749  0.0950 -0.0677 -0.0583
 1205ETH     CO 1205   2.259   1.671   1.717  0.2383  0.0069  0.0795
 1206ETH     CO 1206   1.467   5.315   1.525  0.2520  0.2701 -0.2665
 1207ETH     CO 1207   3.305   2.954   3.194 -0.2385  0.3156  0.1569
 1208ETH     CO 1208   3.781   3.755   1.916  0.2686 -0.2472 -0.0702
 1209ETH     CO 1209   4.046   3.930   6.062 -0.1856  0.1188  0.2689
 1210ETH     CO 1210   3.400   2.131   5.321 -0.1203  0.0508 -0.3716
 1211ETH     CO 1211   5.356   2.373   1.392 -0.0380 -0.1116  0.1885
 1212ETH     CO 1212   2.469   2.175   4.252 -0.3635 -0.2708  0.2162
 1213ETH     CO 1213   1.718   6.426   1.679  0.0115 -0.2472  0.0892
 1214ETH     CO 1214   0.527   0.371   2.775 -0.1484 -0.1002 -0.1182
 1215ETH     CO 1215   0.682   4.198   1.027 -0.0092  0.2060  0.0192
 1216ETH     CO 1216   2.694   5.845   2.736  0.1111  0.1628 -0.2642
 1217ETH     CO 1217   3.395   2.585   5.119 -0.0359 -0.2557 -0.0210
 1218ETH     CO 1218   1.521   3.362   1.044 -0.2463 -0.1220  0.0245
 1219ETH     CO 1219   1.326   5.537   3.472  0.0219 -0.2864  0.2474
 1220ETH     CO 1220   5.293   5.846   2.401  0.1888 -0.2358  0.1652
 1221ETH     CO 1221   3.476   1.880   4.882  0.1827  0.0063 -0.0261
 1222ETH     CO 1222   6.045   2.373   1.981  0.1411  0.3063  0.1007
 1223ETH     CO 1223   4.380   6.508   3.728  0.1503 -0.1872 -0.1518
 1224ETH     CO 1224   5.577   2.228   2.138  0.0113  0.0596 -0.0880
 1225ETH     CO 1225   6.610   2.050   5.619  0.3897 -0.4141 -0.5060
 1226ETH     CO 1226   5.728   0.228   2.797  0.4031 -0.0612 -0.2568
 1227ETH     CO 1227   4.348   5.395   4.076 -0.4891  0.0476 -0.0098
 1228ETH     CO 1228   3.722   2.034   4.451  0.2455  0.2786 -0.1378
 1229ETH     CO 1229   0.740   2.546   1.973 -0.2817  0.1092  0.1071
 1230ETH     CO 1230   6.364   6.452   5.834 -0.0437 -0.3931 -0.1594
 1231ETH     CO 1231   2.793   5.673   3.217 -0.1459  0.0297 -0.2886
 1232ETH     CO 1232   5.192   3.274   2.752  0.2250 -0.1260  0.2795
 1233ETH     CO 1233   3.108   5.964   2.949 -0.1541  0.4053  0.2230
 1234ETH     CO 1234   4.332   0.362   4.690 -0.2376  0.2708  0.0878
 1235ETH     CO 1235   4.121   5.875   1.189  0.2272  0.0649  0.0135
 1236ETH     CO 1236   5.749   5.034   4.279 -0.4887  0.1022 -0.1889
 1237ETH     CO 1237   3.808   3.013   4.664 -0.0880 -0.0883  0.3257
 1238ETH     CO 1238   5.215   3.078   6.164  0.0454  0.2631  0.1696
 1239ETH     CO 1239   1.221   0.998   2.259 -0.1921  0.0400 -0.0138
 1240ETH     CO 1240   3.254   0.692   2.913 -0.0382 -0.0720 -0.2180
 1241ETH     CO 1241   3.345   4.602   3.582  0.1056 -0.0380 -0.2919
 1242ETH     CO 1242   2.076   1.124   2.584  0.0463  0.1686 -0.1078
 1243ETH     CO 1243   0.028   1.454   1.594 -0.0064  0.0940  0.2343
 1244ETH     CO 1244   4.221   3.804   2.153 -0.0556  0.0814  0.0748
 1245ETH     CO 1245   2.848   1.761   4.128 -0.2080  0.1590  0.0998
 1246ETH     CO 1246   0.901   4.464   6.428 -0.0643 -0.0134  0.1234
 1247ETH     CO 1247   4.378   5.995   3.963  0.1034 -0.2725 -0.1688
 1248ETH     CO 1248   4.292   3.819   0.294  0.3055 -0.1418  0.0334
 1249ETH     CO 1249   3.303   5.385   1.939  0.1342  0.1779 -0.1141
 1250ETH     CO 1250   4.635   0.339   6.333  0.3409 -0.2798  0.2497
 1251ETH     CO 1251   0.226   6.223   3.640 -0.5236  0.0778 -0.2453
 1252ETH     CO 1252   1.548   2.146   4.261  0.1158 -0.0297  0.0594
 1253ETH     CO 1253   3.158   5.927   6.383 -0.0193  0.1587 -0.0236
 1254ETH     CO 1254   3.266   0.345   5.570  0.3147  0.0267 -0.0129
 1255ETH     CO 1255   4.722   2.997   5.992  0.2723 -0.2933  0.3953
 1256ETH     CO 1256   0.816   3.892   5.877 -0.2345  0.0766  0.0110
 1257ETH     CO 1257   0.582   2.920   5.426 -0.2683 -0.4319  0.0114
 1258ETH     CO 1258   6.049   0.935   6.577 -0.0643 -0.0516  0.3608
 1259ETH     CO 1259   4.385   1.919   2.935  0.0883 -0.0284 -0.0095
 1260ETH     CO 1260   5.192   0.218   5.572  0.1731  0.0340 -0.2621
 1261ETH     CO 1261   4.193   0.918   0.532 -0.0702 -0.1593  0.1931
 1262ETH     CO 1262   5.302   2.250   3.594  0.1349  0.3910 -0.1115
 1263ETH     CO 1263   6.200   0.320   5.247 -0.0234 -0.2674 -0.1384
 1264ETH     CO 1264   2.022   5.838   0.955 -0.0301 -0.0771 -0.0415
 1265ETH     CO 1265   1.586   2.311   2.619  0.0753 -0.2022  0.1420
 1266ETH     CO 1266   3.494   2.610   2.913  0.4214 -0.0501  0.1801
 1267ETH     CO 1267   2.657   0.882   5.458 -0.1095  0.4314  0.2096
 1268ETH     CO 1268   1.421   3.364   5.082 -0.2674  0.2447 -0.2154
 1269ETH     CO 1269   0.264   2.178   4.191 -0.1409  0.0434 -0.1807
 1270ETH     CO 1270   2.037   4.516   4.987  0.3496  0.0491  0.1936
 1271ETH     CO 1271   5.049   0.647   0.020 -0.0905 -0.0008  0.1185
 1272ETH     CO 1272   4.748   4.784   3.099  0.0053  0.1475 -0.0204
 1273ETH     CO 1273   5.818   6.529   6.073 -0.0386  0.0707 -0.1075
 1274ETH     CO 1274   2.005   3.099   5.206  0.0627 -0.0434 -0.2204
 1275ETH     CO 1275   2.367   5.357   1.269 -0.0313 -0.0523  0.0403
 1276ETH     CO 1276   3.223   0.803   5.315  0.1481 -0.1698 -0.4003
 1277ETH     CO 1277   5.158   3.365   6.594  0.1367 -0.1535  0.1753
 1278ETH     CO 1278   1.305   3.861   3.113  0.2086  0.2344 -0.0622
 1279ETH     CO 1279   5.681   5.082   3.749 -0.1768  0.3647 -0.1093
 1280ETH     CO 1280   1.786   1.677   5.033  0.0141 -0.1903  0.0140
 1281ETH     CO 1281   2.940   6.115   2.213  0.0414 -0.0643 -0.0088
 1282ETH     CO 1282   2.530   6.431   3.946  0.1396  0.0161 -0.0584
 1283ETH     CO 1283   5.915   3.703   3.665 -0.1590  0.1029 -0.0295
 1284ETH     CO 1284   4.354   1.344   0.892 -0.2997  0.1481 -0.0556
 1285ETH     CO 1285   0.079   5.469   1.323  0.1671  0.0188  0.1348
 1286ETH     CO 1286   6.165   5.241   4.773 -0.1194 -0.2636 -0.0427
 1287ETH     CO 1287   6.340   5.488   5.540  0.0695 -0.1243  0.0490
 1288ETH     CO 1288   1.567   1.044   1.878  0.1242 -0.4246 -0.0398
 1289ETH     CO 1289   1.852   1.679   5.549  0.0938 -0.1250  0.1390
 1290ETH     CO 1290   6.473   4.273   3.206  0.3050  0.1386  0.2719
 1291ETH     CO 1291   1.063   2.661   3.804  0.1225 -0.0438 -0.1469
 1292ETH     CO 1292   2.769   2.671   3.485  0.4000  0.1343  0.1420
 1293ETH     CO 1293   2.764   0.504   3.408  0.2834  0.0125 -0.0359
 1294ETH     CO 1294   3.826   5.597   2.529  0.2888  0.1215 -0.0619
 1295ETH     CO 1295   3.025   4.471   0.062 -0.0417 -0.0509 -0.0277
 1296ETH     CO 1296   0.147   3.126   5.686  0.0193  0.2252 -0.0427
 1297ETH     CO 1297   0.480   3.282   6.053  0.0149 -0.0685  0.0328
 1298ETH     CO 1298   4.845   5.591   2.649 -0.0847  0.3453 -0.3731
 1299ETH     CO 1299   0.237   5.720   3.302 -0.0348 -0.3905  0.0226
 1300ETH     CO 1300   3.191   4.816   2.942  0.1111 -0.3573  0.3246
 1301ETH     CO 1301   2.586   1.734   2.721 -0.2069  0.2269  0.3395
 1302ETH     CO 1302   2.032   5.552   0.456  0.0495  0.2177 -0.4194
 1303ETH     CO 1303   3.113   2.047   2.531  0.1599 -0.0293  0.1779
 1304ETH     CO 1304   4.776   1.997   4.732 -0.3116  0.1714  0.1087
 1305ETH     CO 1305   2.873   0.476   5.852  0.0037 -0.0405  0.4363
 1306ETH     CO 1306   6.465   0.756   5.347 -0.3103  0.1197  0.0723
 1307ETH     CO 1307   5.661   3.243   4.393 -0.4688  0.0528  0.0538
 1308ETH     CO 1308   2.319   6.097   2.336 -0.1021 -0.1214  0.0987
 1309ETH     CO 1309   5.578   1.456   6.528  0.0253 -0.0618 -0.0150
 1310ETH     CO 1310   4.303   2.221   2.006 -0.0691 -0.1941  0.0676
 1311ETH     CO 1311   6.125   0.166   1.864  0.2057 -0.1443  0.2276
 1312ETH     CO 1312   2.472   0.205   6.609  0.2172  0.0154  0.3270
 1313ETH     CO 1313   0.812   3.317   4.865  0.3674  0.2487 -0.2198
 1314ETH     CO 1314   5.223   1.702   0.270  0.0148 -0.0243 -0.0326
 1315ETH     CO 1315   2.309   6.597   1.498  0.0105 -0.1434 -0.0291
 1316ETH     CO 1316   5.463   5.756   0.863 -0.2010 -0.2886  0.0235
 1317ETH     CO 1317   2.151   0.848   0.525 -0.1356 -0.1544 -0.1673
 1318ETH     CO 1318   4.172   4.245   5.759  0.3249 -0.1179 -0.1374
 1319ETH     CO 1319   4.175   5.096   1.931  0.0188 -0.0464 -0.3490
 1320ETH     CO 1320   3.440   1.136   3.152 -0.2492 -0.1109 -0.0848
 1321ETH     CO 1321   4.495   0.255   4.104  0.2902 -0.0666 -0.1072
 1322ETH     CO 1322   3.725   1.653   1.402  0.0311 -0.0615 -0.1468
 1323ETH     CO 1323   5.876   1.256   6.141 -0.0522  0.3475 -0.0082
 1324ETH     CO 1324   1.351   1.379   5.009  0.0652  0.0252  0.2516
 1325ETH     CO 1325   6.501   2.866   1.336  0.1346 -0.0330 -0.0108
 1326ETH     CO 1326   6.166   3.050   1.006 -0.0149  0.0904  0.2530
 1327ETH     CO 1327   6.244   2.119   2.678 -0.0403 -0.1272  0.0436
 1328ETH     CO 1328   2.757   5.224   0.573  0.0696  0.0457 -0.1475
 1329ETH     CO 1329   3.517   4.631   2.452 -0.1766  0.0476 -0.0427
 1330ETH     CO 1330   4.125   2.316   6.153  0.1765 -0.1706  0.0025
 1331ETH     CO 1331   4.691   1.477   5.691  0.0901  0.0074  0.1834
 1332ETH     CO 1332   1.663   0.569   0.880  0.0765  0.0645  0.1924
 1333ETH     CO 1333   6.015   1.863   2.206 -0.0171 -0.4705  0.3935
 1334ETH     CO 1334   5.620   4.860   6.522 -0.1223  0.0307  0.0343
 1335ETH     CO 1335   4.262   1.938   3.486 -0.1326  0.2033  0.2299
 1336ETH     CO 1336   5.845   4.966   1.299 -0.1083  0.2850 -0.1833
 1337ETH     CO 1337   2.851   5.687   0.673 -0.0642 -0.1877  0.1454
 1338ETH     CO 1338   5.469   4.006   1.163  0.1966  0.0409  0.0730
 1339ETH     CO 1339   6.180   0.272   5.988 -0.1828  0.2952 -0.1429
 1340ETH     CO 1340   2.655   1.030   2.022  0.2200  0.2805  0.0938
 1341ETH     CO 1341   3.517   4.550   6.516  0.0602 -0.0827 -0.0656
 1342ETH     CO 1342   4.826   0.665   2.932 -0.1085  0.0497  0.1513
 1343ETH     CO 1343   3.429   3.313   2.119 -0.1402  0.0898 -0.4933
 1344ETH     CO 1344   2.916   4.966   5.606  0.2786  0.0521  0.0063
 1345ETH     CO 1345   4.141   2.515   2.335 -0.1350  0.2480  0.1363
 1346ETH     CO 1346   6.456   0.702   5.929 -0.2075 -0.0792 -0.2408
 1347ETH     CO 1347   1.482   1.691   1.491 -0.1899  0.0604 -0.2312
 1348ETH     CO 1348   0.363   3.322   5.155 -0.2367  0.0291  0.1063
 1349ETH     CO 1349   1.279   4.703   5.635 -0.1351 -0.0197  0.2367
 1350ETH     CO 1350   5.579   5.879   0.146 -0.3062 -0.0708  0.0009
 1351ETH     CO 1351   0.430   3.638   2.669 -0.1136 -0.0814  0.0415
 1352ETH     CO 1352   4.713   5.589   3.696  0.2253  0.0621 -0.2424
 1353ETH     CO 1353   2.440   2.907   0.062  0.1137  0.2390  0.3456
 1354ETH     CO 1354   0.219   4.197   5.116  0.1153  0.0120  0.0654
 1355ETH     CO 1355   5.869   0.053   4.418 -0.2401  0.2106 -0.0704
 1356ETH     CO 1356   1.573   4.896   0.572  0.1810  0.0485 -0.0067
 1357ETH     CO 1357   3.470   0.423   1.638  0.2710 -0.2535  0.0163
 1358ETH     CO 1358   3.995   5.345   5.055  0.1344  0.2897  0.1204
 1359ETH     CO 1359   0.090   5.286   3.501 -0.1872  0.1135 -0.0546
 1360ETH     CO 1360   1.633   3.521   1.533 -0.1183  0.1314 -0.2059
 1361ETH     CO 1361   5.789   2.291   5.920  0.1891  0.3411  0.3830
 1362ETH     CO 1362   2.722   4.890   1.450  0.2654 -0.2619  0.0887
 1363ETH     CO 1363   4.873   6.548   5.941 -0.0409  0.0614 -0.0108
 1364ETH     CO 1364   1.549   3.071   5.493 -0.1065 -0.0566  0.1023
 1365ETH     CO 1365   5.704   5.542   2.347  0.2711 -0.0595 -0.0319
 1366ETH     CO 1366   0.992   0.751   4.604  0.0781  0.0818  0.2909
 1367ETH     CO 1367   4.620   3.391   4.558 -0.1093 -0.0608  0.1004
 1368ETH     CO 1368   5.958   2.631   0.686 -0.0836 -0.0514 -0.0074
 1369ETH     CO 1369   3.644   6.466   2.469  0.2623 -0.0009 -0.3177
 1370ETH     CO 1370   4.979   1.914   1.465 -0.0321 -0.3098  0.0532
 1371ETH     CO 1371   1.457   5.529   0.625  0.4084 -0.1979  0.2317
 1372ETH     CO 1372   0.785   1.815   1.987  0.2863  0.0903 -0.0785
 1373ETH     CO 1373   3.210   2.929   0.721 -0.3273  0.2842  0.0339
 1374ETH     CO 1374   2.854   3.581   0.703 -0.2159 -0.0478  0.2835
 1375ETH     CO 1375   5.305   3.158   1.562 -0.0589 -0.2643 -0.1620
 1376ETH     CO 1376   0.631   4.372   4.729  0.2585  0.2241 -0.1232
 1377ETH     CO 1377   1.811   4.004   2.977  0.1005 -0.1281  0.2985
 1378ETH     CO 1378   0.417   1.434   6.382  0.4059 -0.0495 -0.1541
 1379ETH     CO 1379   4.006   4.029   5.292 -0.0021  0.2258 -0.0079
 1380ETH     CO 1380   2.055   4.737   1.669 -0.0920  0.2859  0.4260
 1381ETH     CO 1381   1.735   5.235   5.190 -0.1043 -0.1020 -0.1844
 1382ETH     CO 1382   5.955   0.471   6.570  0.0547  0.2080  0.2319
 1383ETH     CO 1383   2.562   5.921   0.385 -0.0751 -0.1150  0.0930
 1384ETH     CO 1384   3.736   0.875   2.615 -0.0223 -0.1699 -0.3884
 1385ETH     CO 1385   0.358   0.426   0.883  0.3062  0.0294  0.1239
 1386ETH     CO 1386   6.020   1.332   3.635 -0.1418 -0.0698  0.0359
 1387ETH     CO 1387   2.447   0.315   3.776  0.3342  0.0438 -0.2491
 1388ETH     CO 1388   2.746   0.998   3.529  0.0641 -0.1514  0.0848
 1389ETH     CO 1389   3.961   2.239   4.049  0.2338  0.1575 -0.1315
 1390ETH     CO 1390   2.667   1.308   3.948  0.1843  0.1975  0.0547
 1391ETH     CO 1391   3.358   2.167   3.180  0.1181 -0.1471  0.2298
 1392ETH     CO 1392   4.214   4.103   1.630  0.2214 -0.0452 -0.2598
 1393ETH     CO 1393   2.439   3.155   4.997  0.0327  0.1126  0.1953
 1394ETH     CO 1394   3.132   4.010   3.355 -0.2676 -0.0209 -0.1142
 1395ETH     CO 1395   6.571   1.962   1.085  0.4092  0.0319 -0.0772
 1396ETH     CO 1396   4.072   5.414   1.618  0.2790 -0.1431 -0.4803
 1397ETH     CO 1397   2.358   3.596   3.773 -0.0278 -0.1313  0.0806
 1398ETH     CO 1398   0.702   1.273   2.565 -0.0689  0.0369  0.2452
 1399ETH     CO 1399   6.273   5.997   5.532 -0.1001 -0.0068 -0.0621
 1400ETH     CO 1400   4.406   4.098   2.835 -0.2279  0.1876 -0.2609
 1401ETH     CO 1401   4.133   0.386   5.364  0.2625  0.0501  0.0893
 1402ETH     CO 1402   1.198   6.272   6.001 -0.3758 -0.0400  0.0200
 1403ETH     CO 1403   5.509   0.353   1.603  0.3077  0.0297  0.0304
 1404ETH     CO 1404   2.840   1.953   1.655  0.0314 -0.1616  0.0297
 1405ETH     CO 1405   3.151   2.655   1.509 -0.1136 -0.0460  0.0885
 1406ETH     CO 1406   3.529   6.269   1.965  0.2252 -0.1671 -0.0382
 1407ETH     CO 1407   5.426   6.026   1.896 -0.1935 -0.1767  0.4081
 1408ETH     CO 1408   4.715   1.471   1.534 -0.0730  0.2525  0.1219
 1409ETH     CO 1409   1.691   2.962   2.660  0.0037  0.3765 -0.1100
 1410ETH     CO 1410   5.978   5.950   0.467 -0.1666  0.1932 -0.1735
 1411ETH     CO 1411   3.331   2.127   1.498 -0.4113 -0.0211  0.2513
 1412ETH     CO 1412   5.716   4.920   0.816  0.3107 -0.0277  0.3112
 1413ETH     CO 1413   0.388   0.924   2.712  0.1177  0.0664  0.0697
 1414ETH     CO 1414   3.725   2.597   5.538  0.0804  0.2041 -0.2326
 1415ETH     CO 1415   0.543   4.109   2.613  0.2981  0.0299  0.1385
 1416ETH     CO 1416   6.275   2.401   0.313 -0.1314 -0.2387  0.2591
 1417ETH     CO 1417   5.220   3.648   5.948  0.3563 -0.1544  0.4568
 1418ETH     CO 1418   6.206   1.388   4.842 -0.0073 -0.0069 -0.2104
 1419ETH     CO 1419   5.136   0.448   5.172 -0.1633 -0.2991  0.1798
 1420ETH     CO 1420   3.005   2.580   2.999 -0.0413  0.1470 -0.0392
 1421ETH     CO 1421   0.884   5.433   2.277  0.1528  0.3687  0.0590
 1422ETH     CO 1422   4.629   6.450   0.095 -0.0846 -0.2439 -0.2525
 1423ETH     CO 1423   0.102   4.605   4.756  0.0937  0.2752 -0.2429
 1424ETH     CO 1424   3.659   1.169   1.266 -0.1779  0.5455 -0.1169
 1425ETH     CO 1425   0.509   5.089   2.413  0.1167 -0.1407  0.1537
 1426ETH     CO 1426   3.111   3.610   6.312  0.0295 -0.3109 -0.1308
 1427ETH     CO 1427   1.464   2.344   3.140 -0.0578  0.1990 -0.1536
 1428ETH     CO 1428   5.133   5.018   6.280  0.0175 -0.1374  0.0477
 1429ETH     CO 1429   5.554   0.719   4.532  0.1874 -0.1170  0.1792
 1430ETH     CO 1430   1.921   2.770   4.821  0.1355  0.0978 -0.3896
 1431ETH     CO 1431   0.607   2.402   5.217 -0.1914  0.0776  0.1084
 1432ETH     CO 1432   2.623   2.487   1.486 -0.1063  0.0599  0.1214
 1433ETH     CO 1433   1.072   3.751   4.893 -0.1462  0.3517  0.0127
 1434ETH     CO 1434   2.909   0.538   1.715 -0.3147  0.0239  0.0180
 1435ETH     CO 1435   2.841   0.583   2.176  0.1646 -0.0709  0.1359
 1436ETH     CO 1436   2.566   1.007   4.389  0.2454 -0.0574 -0.0096
 1437ETH     CO 1437   0.482   6.504   4.449 -0.0952  0.1791  0.3392
 1438ETH     CO 1438   1.698   1.924   3.036 -0.0837 -0.2332 -0.0657
 1439ETH     CO 1439   2.194   1.268   3.463 -0.3177 -0.0935 -0.3423
 1440ETH     CO 1440   0.975   6.229   4.338 -0.1524 -0.2722 -0.1231
 1441ETH     CO 1441   0.966   1.643   2.474 -0.1817  0.2479  0.0084
 1442ETH     CO 1442   3.019   0.965   2.540 -0.1895  0.2100  0.1602
 1443ETH     CO 1443   1.765   1.499   3.287 -0.0908 -0.3256 -0.2940
 1444ETH     CO 1444   2.208   0.105   5.237  0.0459  0.2280 -0.3090
 1445ETH     CO 1445   5.537   3.408   3.100 -0.0429  0.0323 -0.2500
 1446ETH     CO 1446   2.760   5.090   2.977  0.1261  0.0205 -0.3694
 1447ETH     CO 1447   4.294   1.055   6.581 -0.1010 -0.1414  0.0710
 1448ETH     CO 1448   2.075   3.687   1.149  0.1948 -0.1581  0.0707
 1449ETH     CO 1449   4.055   4.519   3.125  0.0998 -0.2446  0.0886
 1450ETH     CO 1450   4.534   4.721   0.478 -0.0574  0.0891  0.0864
 1451ETH     CO 1451   3.637   3.992   3.454  0.2309  0.0159 -0.0570
 1452ETH     CO 1452   1.472   6.375   2.413  0.0271 -0.2146  0.2261
 1453ETH     CO 1453   6.290   0.370   3.442  0.4253 -0.0525 -0.2399
 1454ETH     CO 1454   5.814   4.358   5.071 -0.1844 -0.2118  0.2291
 1455ETH     CO 1455   3.814   5.902   6.548 -0.1212 -0.0104  0.1207
 1456ETH     CO 1456   2.359   1.660   0.915  0.0293  0.0565 -0.0505
 1457ETH     CO 1457   2.907   3.433   0.191 -0.2798  0.1236  0.1661
 1458ETH     CO 1458   1.420   5.353   2.091  0.1875  0.0714 -0.0111
 1459ETH     CO 1459   1.451   3.181   0.587  0.1064 -0.1984 -0.1512
 1460ETH     CO 1460   5.690   3.475   0.246 -0.1926 -0.1230 -0.0438
 1461ETH     CO 1461   3.481   1.692   2.784 -0.2455  0.0566  0.0966
 1462ETH     CO 1462   1.586   6.392   3.396 -0.0004 -0.1493  0.3129
 1463ETH     CO 1463   0.385   3.813   1.184  0.1410 -0.2839 -0.2591
 1464ETH     CO 1464   5.441   5.913   5.888 -0.2550 -0.3188 -0.0987
 1465ETH     CO 1465   0.497   2.589   4.232  0.0761  0.1583 -0.2030
 1466ETH     CO 1466   4.952   2.034   2.821 -0.1244 -0.0138 -0.0329
 1467ETH     CO 1467   1.104   0.543   1.484 -0.1703  0.1593 -0.1018
 1468ETH     CO 1468   1.954   0.227   2.647 -0.1692 -0.0908  0.1878
 1469ETH     CO 1469   5.016   1.134   1.559 -0.2075  0.1161 -0.1545
 1470ETH     CO 1470   4.292   1.909   4.977  0.2674 -0.2773  0.0962
 1471ETH     CO 1471   5.955   6.559   3.619  0.0847 -0.0611 -0.2975
 1472ETH     CO 1472   2.805   5.277   1.075 -0.2831 -0.0928  0.1344
 1473ETH     CO 1473   0.737   1.749   3.786 -0.3619  0.0421 -0.4418
 1474ETH     CO 1474   1.478   5.908   0.152  0.1453 -0.1557 -0.2527
 1475ETH     CO 1475   0.235   3.336   3.510  0.0236  0.1595  0.3006
 1476ETH     CO 1476   5.712   3.526   4.862 -0.0424 -0.2363  0.2110
 1477ETH     CO 1477   2.801   6.528   6.407  0.2183  0.2645 -0.1416
 1478ETH     CO 1478   2.507   4.514   0.312  0.5115  0.1212  0.0809
 1479ETH     CO 1479   6.058   2.197   3.667 -0.0197 -0.1700  0.2324
 1480ETH     CO 1480   3.645   4.983   2.120  0.0308 -0.2214 -0.2753
 1481ETH     CO 1481   0.984   2.954   5.789 -0.2594 -0.0769  0.1193
 1482ETH     CO 1482   1.889   2.004   1.633  0.0517  0.0304 -0.1589
 1483ETH     CO 1483   1.918   0.720   4.974 -0.2182  0.2223  0.1608
 1484ETH     CO 1484   4.807   4.341   2.763  0.2673 -0.4903 -0.1533
 1485ETH     CO 1485   2.777   0.606   2.790  0.0681 -0.0565  0.1230
 1486ETH     CO 1486   4.829   2.960   2.627 -0.1315 -0.0450 -0.0957
 1487ETH     CO 1487   3.062   1.268   2.116 -0.1287  0.2505  0.0418
 1488ETH     CO 1488   4.763   5.042   3.899  0.0791 -0.1826  0.0853
 1489ETH     CO 1489   3.115   4.648   6.192 -0.4449 -0.1547 -0.0071
 1490ETH     CO 1490   4.780   0.984   4.338  0.0069 -0.0998 -0.1043
 1491ETH     CO 1491   5.197   4.320   2.544 -0.2965  0.0504  0.1023
 1492ETH     CO 1492   0.387   3.585   3.945  0.1031 -0.1410 -0.2145
 1493ETH     CO 1493   4.699   6.119   5.298  0.0084  0.2657  0.0081
 1494ETH     CO 1494   1.615   6.019   0.621  0.1314 -0.1891 -0.0177
 1495ETH     CO 1495   6.572   4.951   1.186 -0.2480 -0.3867 -0.4648
 1496ETH     CO 1496   2.201   0.633   5.489  0.0767  0.1505 -0.0696
 1497ETH     CO 1497   1.610   4.268   3.909 -0.0597  0.2278  0.0360
 1498ETH     CO 1498   0.022   4.699   2.284  0.4847  0.1189  0.2870
 1499ETH     CO 1499   3.244   0.794   5.858 -0.0166 -0.0784 -0.2545
 1500ETH     CO 1500   0.167   3.998   4.680  0.1735 -0.1200 -0.0640
 1501ETH     CO 1501   3.604   5.554   4.529  0.1143  0.1802  0.0680
 1502ETH     CO 1502   2.992   2.273   1.170  0.0921 -0.0650  0.1423
 1503ETH     CO 1503   2.485   3.880   0.883 -0.0566 -0.0595  0.0138
 1504ETH     CO 1504   2.227   1.467   3.027  0.2599 -0.1900  0.3712
 1505ETH     CO 1505   4.502   4.365   0.991  0.1439  0.1569  0.0599
 1506ETH     CO 1506   1.245   6.397   1.973  0.0309  0.0338  0.0387
 1507ETH     CO 1507   4.801   3.194   5.170  0.2308  0.0901 -0.1811
 1508ETH     CO 1508   6.358   2.137   0.698 -0.1009  0.0477 -0.0968
 1509ETH     CO 1509   5.305   1.081   2.028 -0.1487  0.0153 -0.0294
 1510ETH     CO 1510   4.161   5.593   4.563 -0.3554  0.0935  0.2321
 1511ETH     CO 1511   0.607   2.335   6.368 -0.4112 -0.1547  0.0136
 1512ETH     CO 1512   3.342   0.786   2.029  0.0282  0.1925  0.1207
 1513ETH     CO 1513   2.177   4.149   6.492 -0.2136 -0.1544  0.3587
 1514ETH     CO 1514   3.910   4.675   4.564 -0.1335  0.0236 -0.1766
 1515ETH     CO 1515   3.209   0.561   4.317  0.0721  0.0282  0.0377
 1516ETH     CO 1516   0.204   5.977   4.686  0.0412  0.0827 -0.0274
 1517ETH     CO 1517   0.374   6.476   1.147  0.1168  0.1420  0.1850
 1518ETH     CO 1518   3.118   1.180   5.580  0.1621  0.0623  0.2956
 1519ETH     CO 1519   0.820   6.135   1.039  0.1049 -0.1682  0.1591
 1520ETH     CO 1520   3.783   1.772   5.765 -0.0124  0.1172 -0.1245
 1521ETH     CO 1521   4.097   0.487   3.929 -0.0571  0.0341 -0.1223
 1522ETH     CO 1522   0.934   5.196   4.163 -0.0405  0.0317 -0.1442
 1523ETH     CO 1523   1.725   4.761   3.934  0.0575 -0.3774 -0.0267
 1524ETH     CO 1524   3.827   3.248   2.931  0.2129 -0.0838 -0.0141
 1525ETH     CO 1525   1.260   0.879   5.152 -0.0093  0.1357 -0.3094
 1526ETH     CO 1526   2.172   5.843   2.774  0.0458  0.1251  0.0925
 1527ETH     CO 1527   1.558   2.540   4.565 -0.0047 -0.1847  0.0287
 1528ETH     CO 1528   4.601   5.426   0.130  0.1397 -0.0289  0.1672
 1529ETH     CO 1529   0.502   4.563   0.704  0.2037  0.0671  0.2966
 1530ETH     CO 1530   3.901   2.225   3.157  0.0516  0.2916  0.2613
 1531ETH     CO 1531   1.123   2.780   5.294 -0.1006 -0.2875 -0.2086
 1532ETH     CO 1532   0.305   3.977   3.045  0.2578  0.1011  0.2341
 1533ETH     CO 1533   0.931   4.680   5.047 -0.0541 -0.3282 -0.1231
 1534ETH     CO 1534   2.619   0.136   4.992  0.0018  0.0482  0.0686
 1535ETH     CO 1535   1.932   5.208   0.758 -0.1528  0.2478 -0.2261
 1536ETH     CO 1536   6.102   3.718   0.432 -0.0314  0.0658 -0.3271
 1537ETH     CO 1537   1.997   2.265   3.923 -0.1697 -0.1016 -0.2035
 1538ETH     CO 1538   1.220   1.257   0.141 -0.1729  0.2248 -0.2148
 1539ETH     CO 1539   4.728   6.591   2.655  0.2114  0.0446 -0.4122
 1540ETH     CO 1540   2.917   3.656   5.595  0.0702  0.0646 -0.1324
 1541ETH     CO 1541   6.091   4.368   5.992  0.2043  0.0209  0.1039
 1542ETH     CO 1542   0.396   0.304   4.154  0.2098 -0.0100  0.1537
 1543ETH     CO 1543   2.990   5.731   4.994 -0.1348 -0.3207 -0.3898
 1544ETH     CO 1544   5.860   0.485   4.818 -0.0332  0.1993  0.0929
 1545ETH     CO 1545   0.763   1.189   4.447 -0.2347  0.1664  0.2306
 1546ETH     CO 1546   2.810   2.730   1.019  0.1052 -0.2435 -0.2290
 1547ETH     CO 1547   5.506   3.423   3.666  0.1124 -0.1959 -0.2883
 1548ETH     CO 1548   2.360   0.632   1.876  0.2748  0.0136 -0.0518
 1549ETH     CO 1549   3.050   0.307   3.782 -0.1079 -0.3169  0.0500
 1550ETH     CO 1550   1.854   5.661   3.991  0.2754 -0.3482 -0.2772
 1551ETH     CO 1551   6.604   5.884   2.902 -0.2288 -0.3712 -0.0665
 1552ETH     CO 1552   6.396   1.795   3.689 -0.0684 -0.0456 -0.0154
 1553ETH     CO 1553   2.251   2.327   6.223  0.2140  0.2099 -0.0603
 1554ETH     CO 1554   1.712   1.075   0.379 -0.0207 -0.3019 -0.1632
 1555ETH     CO 1555   2.459   3.625   2.257  0.1679  0.0222 -0.0518
 1556ETH     CO 1556   1.229   3.459   6.418 -0.0466  0.1739 -0.1385
 1557ETH     CO 1557   3.645   5.855   2.960  0.5821  0.2858 -0.0016
 1558ETH     CO 1558   3.197   6.210   4.913  0.1326 -0.3298 -0.0526
 1559ETH     CO 1559   0.897   4.137   3.127  0.0992 -0.1037  0.2277
 1560ETH     CO 1560   4.310   3.328   1.238  0.1041 -0.0956  0.0720
 1561ETH     CO 1561   6.375   1.152   4.359 -0.3570  0.0382  0.0027
 1562ETH     CO 1562   6.130   4.801   2.888  0.3588  0.0394 -0.2738
 1563ETH     CO 1563   4.156   3.788   1.277 -0.2197  0.1663  0.0530
 1564ETH     CO 1564   3.143   4.206   2.424 -0.0581  0.0285 -0.1829
 1565ETH     CO 1565   3.105   3.729   4.856  0.2023  0.0089 -0.1499
 1566ETH     CO 1566   6.286   4.690   0.088  0.2539 -0.0423 -0.2794
 1567ETH     CO 1567   1.129   2.912   0.918 -0.2659 -0.0015  0.3423
 1568ETH     CO 1568   3.859   1.208   5.359 -0.0461  0.0392 -0.3283
 1569ETH     CO 1569   4.992   5.815   5.690 -0.0149  0.0524 -0.3193
 1570ETH     CO 1570   1.235   2.644   1.867 -0.2926 -0.3908 -0.0194
 1571ETH     CO 1571   2.949   0.812   0.577  0.1219 -0.1229  0.1230
 1572ETH     CO 1572   6.324   5.887   6.079 -0.2425 -0.0145 -0.2578
 1573ETH     CO 1573   1.922   2.437   0.708 -0.2162 -0.0047  0.0169
 1574ETH     CO 1574   4.064   0.776   5.711  0.3850  0.2592  0.0674
 1575ETH     CO 1575   4.395   3.606   3.200 -0.3425  0.0467  0.1656
 1576ETH     CO 1576   4.730   4.603   4.093 -0.0041  0.3441  0.0801
 1577ETH     CO 1577   0.566   1.250   3.942  0.0872  0.3461  0.2604
 1578ETH     CO 1578   0.545   5.314   4.459 -0.1412  0.2006  0.5129
 1579ETH     CO 1579   0.393   5.178   6.205 -0.1513  0.1908  0.0746
 1580ETH     CO 1580   2.572   4.585   6.297 -0.1158  0.1165  0.2977
 1581ETH     CO 1581   5.874   2.308   1.530  0.0923  0.0078 -0.0152
 1582ETH     CO 1582   5.006   0.455   1.472  0.1377  0.0470 -0.1360
 1583ETH     CO 1583   0.003   3.166   4.114 -0.2325 -0.1760  0.0365
 1584ETH     CO 1584   4.220   6.457   1.513  0.2669 -0.1915  0.1250
 1585ETH     CO 1585   5.074   0.503   1.987 -0.2171 -0.2583 -0.0564
 1586ETH     CO 1586   3.072   4.151   6.273 -0.1409 -0.2256 -0.2627
 1587ETH     CO 1587   4.426   6.019   6.481 -0.2964  0.3017  0.2148
 1588ETH     CO 1588   5.797   5.232   2.815  0.1686 -0.0950  0.2454
 1589ETH     CO 1589   4.853   3.928   6.124  0.0023  0.1431  0.1525
 1590ETH     CO 1590   5.209   2.434   2.525  0.0132  0.0658 -0.3754
 1591ETH     CO 1591   3.894   1.534   5.026 -0.1228 -0.4815 -0.1704
 1592ETH     CO 1592   0.326   6.601   1.840 -0.0347  0.1536 -0.1027
 1593ETH     CO 1593   0.669   5.880   2.887 -0.1270 -0.1866 -0.0495
 1594ETH     CO 1594   0.728   1.974   5.065 -0.2064 -0.0938 -0.1059
 1595ETH     CO 1595   3.251   3.977   5.793  0.1084  0.4870 -0.1981
 1596ETH     CO 1596   4.930   1.669   2.512 -0.0528 -0.2290 -0.1135
 1597ETH     CO 1597   1.270   1.884   5.092 -0.4220  0.2807 -0.1905
 1598ETH     CO 1598   3.359   2.529   0.305 -0.0074  0.0890  0.0048
 1599ETH     CO 1599   2.762   0.280   4.186 -0.4263 -0.0961  0.0408
 1600ETH     CO 1600   4.031   5.036   3.936 -0.2344  0.3175  0.1641
 1601ETH     CO 1601   2.099   4.673   4.446  0.0393  0.0678  0.0735
 1602ETH     CO 1602   1.602   5.379   0.187  0.1398 -0.2863 -0.0740
 1603ETH     CO 1603   1.617   3.904   0.405  0.1935 -0.2511 -0.0305
 1604ETH     CO 1604   6.024   5.094   0.411  0.1253 -0.0261  0.5262
 1605ETH     CO 1605   1.478   4.376   0.699  0.1659 -0.0597 -0.1615
 1606ETH     CO 1606   4.263   2.686   1.404  0.2755 -0.1624  0.2441
 1607ETH     CO 1607   2.337   0.893   3.787  0.1049  0.1297  0.1462
 1608ETH     CO 1608   1.559   2.281   1.018 -0.1847  0.0609  0.1030
 1609ETH     CO 1609   0.940   5.920   6.600  0.0703  0.2458 -0.0737
 1610ETH     CO 1610   6.525   3.314   0.094 -0.0740 -0.2131  0.4473
 1611ETH     CO 1611   0.301   0.613   5.694 -0.4415  0.1025  0.0450
 1612ETH     CO 1612   5.374   4.915   1.220 -0.4391  0.1875 -0.3463
 1613ETH     CO 1613   1.084   3.507   5.945 -0.2055 -0.1736 -0.0140
 1614ETH     CO 1614   1.304   2.662   2.441 -0.1965 -0.0404  0.1777
 1615ETH     CO 1615   3.820   4.847   2.850  0.1078 -0.2694 -0.1450
 1616ETH     CO 1616   0.496   2.771   5.895  0.0988 -0.0276  0.4456
 1617ETH     CO 1617   2.497   2.962   4.476 -0.0413  0.2005 -0.0134
 1618ETH     CO 1618   3.272   1.411   0.470  0.0483 -0.1542  0.2377
 1619ETH     CO 1619   5.320   0.728   3.404  0.0644  0.0614  0.0257
 1620ETH     CO 1620   4.434   6.334   3.216 -0.1961  0.2350  0.0183
 1621ETH     CO 1621   2.176   2.089   5.158 -0.0582  0.2604  0.0154
 1622ETH     CO 1622   0.326   3.237   6.514 -0.0706  0.1085  0.1997
 1623ETH     CO 1623   6.198   3.877   4.553 -0.0749  0.1606 -0.0429
 1624ETH     CO 1624   3.759   4.955   5.356 -0.0678  0.1248 -0.1552
 1625ETH     CO 1625   4.602   3.749   1.775 -0.1483 -0.3332 -0.1269
 1626ETH     CO 1626   5.276   1.822   3.238 -0.2163 -0.2664 -0.0093
 1627ETH     CO 1627   4.585   5.651   1.453 -0.3195  0.0359  0.1033
 1628ETH     CO 1628   2.934   3.555   3.648  0.2399 -0.2277  0.1297
 1629ETH     CO 1629   0.469   5.859   6.472 -0.0213  0.1508 -0.0223
 1630ETH     CO 1630   2.089   0.914   4.592 -0.0741 -0.1376 -0.2021
 1631ETH     CO 1631   5.242   4.536   1.531 -0.3931  0.3291 -0.0846
 1632ETH     CO 1632   3.448   3.383   4.589 -0.0848 -0.0621  0.0603
 1633ETH     CO 1633   2.481   2.412   3.166  0.0835 -0.0553  0.1009
 1634ETH     CO 1634   5.165   3.348   1.035 -0.0829  0.2324 -0.1626
 1635ETH     CO 1635   5.811   6.010   3.846 -0.0563  0.0244 -0.2021
 1636ETH     CO 1636   5.240   5.430   0.082  0.0968  0.2218 -0.2378
 1637ETH     CO 1637   1.042   2.451   1.042  0.0145  0.1638  0.1789
 1638ETH     CO 1638   5.857   2.189   0.380  0.0030 -0.0117  0.1419
 1639ETH     CO 1639   6.524   6.539   2.216 -0.0258 -0.2129 -0.0158
 1640ETH     CO 1640   4.082   6.305   0.145 -0.3220 -0.1182  0.0114
 1641ETH     CO 1641   1.720   4.332   3.346  0.4675 -0.2193  0.1527
 1642ETH     CO 1642   2.707   3.416   6.021  0.0066  0.2031  0.0089
 1643ETH     CO 1643   2.982   3.116   4.477 -0.2000  0.0464 -0.0188
 1644ETH     CO 1644   3.940   6.497   3.329 -0.1063  0.1556  0.0212
 1645ETH     CO 1645   1.984   4.506   2.648 -0.0327 -0.0704  0.3637
 1646ETH     CO 1646   6.006   5.806   5.172  0.0425  0.0479  0.0669
 1647ETH     CO 1647   2.277   2.919   1.487  0.1763  0.1526 -0.0976
 1648ETH     CO 1648   1.759   6.021   4.539  0.0884  0.2289 -0.5567
 1649ETH     CO 1649   1.826   2.725   5.614 -0.2814 -0.2258 -0.0739
 1650ETH     CO 1650   0.717   1.865   0.987  0.2993  0.3009 -0.0236
 1651ETH     CO 1651   5.914   4.744   4.627  0.0962  0.4619 -0.0349
 1652ETH     CO 1652   3.817   5.647   6.013  0.1287  0.3961 -0.0483
 1653ETH     CO 1653   5.800   3.595   5.710  0.2151 -0.0580 -0.0515
 1654ETH     CO 1654   6.368   2.411   5.246  0.1286 -0.0609 -0.0012
 1655ETH     CO 1655   3.863   0.838   0.124 -0.0503 -0.1582 -0.0730
 1656ETH     CO 1656   4.826   0.730   3.407  0.0780  0.0181 -0.3200
 1657ETH     CO 1657   4.809   2.611   2.218 -0.1474 -0.1231 -0.0597
 1658ETH     CO 1658   0.903   3.849   5.395 -0.3166  0.0607  0.1295
 1659ETH     CO 1659   4.221   2.963   6.080  0.0861  0.0406 -0.0076
 1660ETH     CO 1660   4.969   6.014   4.096  0.1280 -0.2417 -0.0928
 1661ETH     CO 1661   0.028   0.156   0.041 -0.1395 -0.0773  0.0863
 1662ETH     CO 1662   2.728   6.466   1.323 -0.2107  0.0792 -0.5686
 1663ETH     CO 1663   1.692   3.441   6.235  0.0042 -0.1083  0.4161
 1664ETH     CO 1664   4.742   0.432   5.733  0.3472  0.1884  0.0933
 1665ETH     CO 1665   2.007   5.222   4.191  0.1129 -0.0532 -0.0377
 1666ETH     CO 1666   1.019   1.478   4.160 -0.1394 -0.2199  0.0408
 1667ETH     CO 1667   1.477   5.632   4.908 -0.2539  0.2165  0.1649
 1668ETH     CO 1668   3.831   3.991   0.301  0.1280  0.0079 -0.1487
 1669ETH     CO 1669   4.445   2.455   4.816  0.2972 -0.2289 -0.0127
 1670ETH     CO 1670   6.229   4.401   4.413 -0.2984 -0.0758 -0.1396
 1671ETH     CO 1671   4.933   4.571   6.136 -0.1664 -0.0559 -0.1774
 1672ETH     CO 1672   2.072   3.197   0.985  0.1419 -0.2596 -0.0690
 1673ETH     CO 1673   0.892   3.606   1.201  0.3018  0.1817  0.1344
 1674ETH     CO 1674   0.869   4.601   3.443 -0.0630  0.0335 -0.0348
 1675ETH     CO 1675   5.881   2.832   4.798 -0.1175 -0.0503  0.2928
 1676ETH     CO 1676   2.481   3.425   6.505  0.2149 -0.0696  0.0152
 1677ETH     CO 1677   5.687   2.543   4.474 -0.0355 -0.1670 -0.1344
 1678ETH     CO 1678   4.807   4.981   5.822 -0.2408  0.2416  0.0475
 1679ETH     CO 1679   2.807   1.716   2.132  0.1767  0.1912 -0.1967
 1680ETH     CO 1680   4.880   6.351   0.513 -0.1451 -0.1633  0.0086
 1681ETH     CO 1681   6.280   3.727   6.354 -0.4086  0.2101  0.0958
 1682ETH     CO 1682   6.522   2.750   1.999  0.1071 -0.0728  0.0784
 1683ETH     CO 1683   5.294   4.079   1.718  0.3412 -0.2111 -0.1167
 1684ETH     CO 1684   2.283   0.526   6.000 -0.2560 -0.0204  0.1650
 1685ETH     CO 1685   1.544   5.103   3.491 -0.1369 -0.0062  0.1814
 1686ETH     CO 1686   6.486   5.992   2.331 -0.0968 -0.4979  0.0018
 1687ETH     CO 1687   4.681   2.232   3.237 -0.1685  0.0295  0.0726
 1688ETH     CO 1688   2.783   3.984   0.468 -0.1002 -0.2246 -0.1444
 1689ETH     CO 1689   0.583   3.800   3.589 -0.0748 -0.2938  0.0912
 1690ETH     CO 1690   5.388   1.915   2.594  0.0383  0.2473  0.1781
 1691ETH     CO 1691   2.519   4.220   2.475 -0.2570  0.0994  0.0093
 1692ETH     CO 1692   1.935   4.051   0.779 -0.1329  0.0671 -0.1041
 1693ETH     CO 1693   3.851   2.718   0.409 -0.0415 -0.0121 -0.0513
 1694ETH     CO 1694   0.649   6.431   5.635 -0.2854  0.0291  0.0846
 1695ETH     CO 1695   2.386   4.057   4.024  0.2644  0.1058 -0.2273
 1696ETH     CO 1696   6.156   5.588   2.676  0.1133  0.1335 -0.1371
 1697ETH     CO 1697   2.098   6.127   5.527 -0.2110 -0.5469 -0.1589
 1698ETH     CO 1698   2.163   4.101   2.122 -0.2749  0.2258 -0.3598
 1699ETH     CO 1699   2.942   5.561   0.055 -0.1741  0.2572 -0.1443
 1700ETH     CO 1700   0.081   4.960   2.714 -0.0509  0.1333  0.4073
 1701ETH     CO 1701   3.004   2.760   4.003 -0.2435 -0.2016 -0.2864
 1702ETH     CO 1702   3.760   4.226   4.818  0.1841 -0.1897  0.1993
 1703ETH     CO 1703   1.805   0.418   0.418  0.1264  0.1926 -0.0921
 1704ETH     CO 1704   0.860   6.179   5.010 -0.1920 -0.0753 -0.1354
 1705ETH     CO 1705   1.759   2.158   5.379  0.1145  0.1467  0.0809
 1706ETH     CO 1706   4.621   0.715   4.847  0.2232 -0.1196  0.0449
 1707ETH     CO 1707   1.966   4.712   6.016 -0.5070 -0.0257  0.1562
 1708ETH     CO 1708   2.253   6.048   4.115 -0.0624  0.1966 -0.1219
 1709ETH     CO 1709   2.777   5.313   5.099 -0.1619 -0.2057  0.0548
 1710ETH     CO 1710   2.020   3.607   4.801 -0.0135  0.0342 -0.2121
 1711ETH     CO 1711   4.815   6.120   1.743 -0.2649  0.3066 -0.0302
 1712ETH     CO 1712   1.713   4.331   6.357 -0.0099 -0.1125  0.0083
 1713ETH     CO 1713   3.002   0.191   2.587  0.1464 -0.1238  0.2046
 1714ETH     CO 1714   0.127   2.312   6.070 -0.2515 -0.0351 -0.4639
 1715ETH     CO 1715   0.083   4.394   4.219 -0.3284  0.3810 -0.4175
 1716ETH     CO 1716   4.030   2.524   4.579 -0.0059  0.0837  0.0275
 1717ETH     CO 1717   6.499   4.095   5.453  0.0229  0.0142  0.0966
 1718ETH     CO 1718   4.865   4.891   4.455  0.0538  0.0085  0.2685
 1719ETH     CO 1719   4.533   1.095   3.050 -0.2153  0.0078 -0.1372
 1720ETH     CO 1720   5.491   3.264   2.374 -0.0223  0.0173 -0.1706
 1721ETH     CO 1721   6.400   2.401   2.283 -0.1356 -0.1355 -0.1935
 1722ETH     CO 1722   2.429   2.475   5.793 -0.2854 -0.3722 -0.2108
 1723ETH     CO 1723   1.047   1.197   5.586  0.1076 -0.2743  0.1293
 1724ETH     CO 1724   0.420   0.826   4.845 -0.2246  0.1195 -0.2715
 1725ETH     CO 1725   4.537   5.439   5.120 -0.0973  0.0722 -0.1124
 1726ETH     CO 1726   1.929   1.495   0.711  0.1035 -0.2164 -0.0121
 1727ETH     CO 1727   6.125   3.736   1.882 -0.1524  0.4748 -0.0884
 1728ETH     CO 1728   0.729   4.637   4.301 -0.0393  0.0851 -0.0698
 1729ETH     CO 1729   0.112   0.601   3.057  0.0154  0.1027 -0.1039
 1730ETH     CO 1730   3.980   4.377   2.677 -0.3300  0.0718  0.2844
 1731ETH     CO 1731   4.116   0.418   2.478 -0.1286 -0.2475  0.1119
 1732ETH     CO 1732   4.533   6.388   0.843 -0.0840 -0.1583  0.0020
 1733ETH     CO 1733   3.061   5.244   1.517 -0.1388 -0.0459  0.0005
 1734ETH     CO 1734   5.562   1.783   5.229  0.1426  0.1268  0.1835
 1735ETH     CO 1735   2.569   5.805   4.652  0.1792 -0.0293  0.1163
 1736ETH     CO 1736   2.510   3.358   1.199  0.4380 -0.3339 -0.3725
 1737ETH     CO 1737   5.867   4.103   2.118 -0.1282 -0.2560  0.1167
 1738ETH     CO 1738   5.395   0.807   1.515  0.1363  0.1150  0.1550
 1739ETH     CO 1739   5.980   4.152   5.458  0.1125  0.0998 -0.3405
 1740ETH     CO 1740   1.562   4.665   4.873 -0.3197 -0.0728 -0.3785
 1741ETH     CO 1741   3.513   4.367   0.855  0.0461 -0.0166  0.0981
 1742ETH     CO 1742   4.679   6.601   1.963 -0.0766  0.0988  0.1317
 1743ETH     CO 1743   1.487   4.406   0.198 -0.0900  0.0618  0.3163
 1744ETH     CO 1744   1.723   3.408   4.045 -0.0947  0.2136  0.2540
 1745ETH     CO 1745   0.225   6.204   1.543  0.0958  0.1363 -0.0137
 1746ETH     CO 1746   4.918   4.329   0.534  0.0923  0.0763  0.1174
 1747ETH     CO 1747   1.947   6.094   0.266 -0.0533  0.0212 -0.1842
 1748ETH     CO 1748   0.763   1.520   2.997  0.1136  0.0008 -0.1802
 1749ETH     CO 1749   2.906   3.258   3.208  0.0917  0.2441  0.5386
 1750ETH     CO 1750   4.299   3.028   5.006  0.1765 -0.2167 -0.0702
 1751ETH     CO 1751   3.244   3.890   0.670 -0.1758 -0.2159 -0.3764
 1752ETH     CO 1752   3.367   3.430   5.408 -0.2177  0.0558  0.0874
 1753ETH     CO 1753   3.316   3.919   5.262 -0.1248 -0.0552  0.4229
 1754ETH     CO 1754   0.753   5.776   4.743  0.1686  0.2537 -0.0715
 1755ETH     CO 1755   2.961   5.486   2.533  0.2158 -0.0155  0.0325
 1756ETH     CO 1756   2.133   1.402   4.785  0.0551  0.1434 -0.3470
 1757ETH     CO 1757   5.941   5.238   1.917 -0.0823 -0.2426  0.0988
 1758ETH     CO 1758   5.449   4.377   5.329 -0.1583  0.2040 -0.2456
 1759ETH     CO 1759   3.872   2.138   4.967 -0.1209  0.0774 -0.1011
 1760ETH     CO 1760   5.763   2.533   5.449  0.2985 -0.2954 -0.0786
 1761ETH     CO 1761   5.459   2.464   0.851  0.3621 -0.3521  0.2344
 1762ETH     CO 1762   4.747   3.824   4.063 -0.0624 -0.1488  0.1055
 1763ETH     CO 1763   5.117   5.493   1.057  0.1124  0.0219 -0.1741
 1764ETH     CO 1764   1.905   0.656   2.324  0.0489 -0.2705  0.1524
 1765ETH     CO 1765   0.350   6.264   0.618 -0.1219  0.0909  0.3009
 1766ETH     CO 1766   5.705   4.515   5.722  0.1768 -0.2430 -0.0665
 1767ETH     CO 1767   2.930   6.596   5.813 -0.0747  0.1805 -0.0507
 1768ETH     CO 1768   0.998   0.076   4.709 -0.0691 -0.1502 -0.0992
 1769ETH     CO 1769   1.721   2.203   6.129 -0.0310  0.0416  0.0041
 1770ETH     CO 1770   6.490   5.012   0.460  0.1182 -0.0637 -0.0723
 1771ETH     CO 1771   1.377   1.588   0.456 -0.4012 -0.1461  0.3409
 1772ETH     CO 1772   1.768   3.443   3.029  0.1894  0.0367 -0.0414
 1773ETH     CO 1773   2.319   3.559   1.670 -0.1291 -0.0219 -0.1454
 1774ETH     CO 1774   4.220   0.995   2.508  0.0868 -0.1432  0.2590
 1775ETH     CO 1775   1.908   5.442   2.557 -0.3535  0.1735 -0.1182
 1776ETH     CO 1776   2.789   2.600   6.464  0.0929  0.2871  0.2784
 1777ETH     CO 1777   6.139   4.405   2.569  0.0281  0.0489 -0.0061
 1778ETH     CO 1778   2.131   1.117   0.973 -0.2764 -0.0685  0.0626
 1779ETH     CO 1779   0.421   5.104   3.852  0.0831 -0.0586  0.0137
 1780ETH     CO 1780   1.413   5.852   6.230 -0.1994  0.0804  0.1460
 1781ETH     CO 1781   2.834   3.936   4.493  0.0109 -0.1122  0.2307
 1782ETH     CO 1782   3.223   1.970   3.654 -0.0763  0.1628  0.3061
 1783ETH     CO 1783   0.998   5.668   4.296 -0.0814  0.3122  0.0824
 1784ETH     CO 1784   3.009   0.955   4.965 -0.3158  0.1158 -0.2472
 1785ETH     CO 1785   5.481   1.070   0.932  0.1842  0.0781 -0.2343
 1786ETH     CO 1786   2.247   6.368   6.431  0.0919 -0.3209 -0.0098
 1787ETH     CO 1787   3.956   2.559   1.868 -0.2813  0.2403  0.0971
 1788ETH     CO 1788   0.399   6.339   0.122 -0.0612 -0.0379  0.0913
 1789ETH     CO 1789   2.890   6.096   5.345  0.1794  0.0018 -0.3364
 1790ETH     CO 1790   4.299   2.042   0.187  0.1518  0.1155  0.1061
 1791ETH     CO 1791   1.318   3.101   6.089 -0.4761 -0.1671 -0.2626
 1792ETH     CO 1792   4.955   3.071   2.085 -0.1971 -0.0651 -0.2853
 1793ETH     CO 1793   1.666   6.106   5.858  0.3254  0.1036  0.1672
 1794ETH     CO 1794   4.766   3.959   2.354 -0.0621  0.1383  0.0647
 1795ETH     CO 1795   3.272   5.104   5.254 -0.1084  0.0589 -0.0439
 1796ETH     CO 1796   3.498   2.076   5.964 -0.0868 -0.0950 -0.1176
 1797ETH     CO 1797   4.746   1.724   0.165 -0.0441  0.1038  0.1116
 1798ETH     CO 1798   2.366   2.831   6.138 -0.2130  0.1629 -0.0507
 1799ETH     CO 1799   3.727   0.101   0.661  0.2280  0.3616  0.1348
 1800ETH     CO 1800   1.138   0.149   2.457  0.0379  0.2156  0.1679
 1801ETH     CO 1801   3.345   3.466   3.237  0.1590 -0.1266 -0.1837
 1802ETH     CO 1802   1.887   6.395   1.198 -0.1452  0.1017  0.0425
 1803ETH     CO 1803   0.510   0.877   0.567  0.1494 -0.2565 -0.3726
 1804ETH     CO 1804   3.662   3.028   5.183  0.2729  0.1471  0.1033
 1805ETH     CO 1805   5.674   1.979   6.555 -0.2725  0.0991  0.1862
 1806ETH     CO 1806   6.407   2.772   5.748 -0.0183  0.2603 -0.0450
 1807ETH     CO 1807   4.232   4.124   3.308 -0.0228  0.0795 -0.4954
 1808ETH     CO 1808   3.688   4.286   1.778 -0.1424  0.0679 -0.2228
 1809ETH     CO 1809   2.823   1.581   0.227  0.0947 -0.0919 -0.4225
 1810ETH     CO 1810   3.336   3.425   0.596 -0.4278 -0.1624 -0.2868
 1811ETH     CO 1811   5.581   3.958   5.151  0.2314 -0.0425 -0.0360
 1812ETH     CO 1812   0.433   3.700   1.708 -0.1661 -0.1623  0.2810
 1813ETH     CO 1813   2.856   3.720   1.150  0.1809  0.2449 -0.2340
 1814ETH     CO 1814   5.252   1.521   5.523  0.1604  0.0387  0.1315
 1815ETH     CO 1815   2.413   1.875   3.858  0.0181  0.1631  0.1732
 1816ETH     CO 1816   1.282   0.412   4.436 -0.0759  0.1717 -0.0048
 1817ETH     CO 1817   5.995   4.041   1.114  0.2764 -0.0555 -0.1368
 1818ETH     CO 1818   5.593   2.729   1.654  0.1517 -0.0718  0.0910
 1819ETH     CO 1819   0.920   5.067   3.672 -0.0276  0.1397 -0.1995
 1820ETH     CO 1820   4.594   3.021   6.464  0.1152 -0.1992  0.1464
 1821ETH     CO 1821   4.860   3.507   3.030 -0.0659 -0.2038 -0.0016
 1822ETH     CO 1822   2.808   4.605   3.751  0.2516 -0.1884 -0.1025
 1823ETH     CO 1823   5.495   1.201   0.434 -0.1651  0.0074 -0.1572
 1824ETH     CO 1824   4.067   3.124   4.287 -0.1669 -0.4277  0.1629
 1825ETH     CO 1825   2.919   5.129   3.947  0.0552 -0.1468 -0.0650
 1826ETH     CO 1826   6.478   4.279   1.164  0.1880 -0.4085 -0.1191
 1827ETH     CO 1827   5.055   1.434   6.318 -0.2803  0.1719  0.3979
 1828ETH     CO 1828   1.398   3.420   3.476  0.2577 -0.0157 -0.1062
 1829ETH     CO 1829   3.255   6.455   3.780 -0.4023  0.5214  0.1114
 1830ETH     CO 1830   3.546   2.429   4.695  0.1024  0.0822 -0.1428
 1831ETH     CO 1831   4.052   5.994   1.653  0.2169  0.1207  0.0130
 1832ETH     CO 1832   1.442   6.464   4.397  0.2979  0.0970 -0.2348
 1833ETH     CO 1833   2.437   4.575   3.114 -0.1128  0.3008 -0.1384
 1834ETH     CO 1834   2.985   3.196   1.092 -0.1759 -0.2719  0.0055
 1835ETH     CO 1835   3.503   1.398   3.554  0.0963  0.1668 -0.0084
 1836ETH     CO 1836   6.315   2.953   0.407  0.1599 -0.0481 -0.1921
 1837ETH     CO 1837   1.161   0.246   0.139  0.0814  0.0472 -0.0924
 1838ETH     CO 1838   4.235   1.414   4.365  0.0921  0.0478 -0.3042
 1839ETH     CO 1839   5.967   4.297   3.068 -0.1003 -0.2306 -0.1121
 1840ETH     CO 1840   3.906   1.341   6.150  0.1073 -0.2255 -0.2209
 1841ETH     CO 1841   4.395   4.352   5.024  0.0108  0.3748  0.0690
 1842ETH     CO 1842   2.562   4.338   5.412 -0.0569  0.0223 -0.2532
 1843ETH     CO 1843   1.532   3.666   2.663 -0.0035  0.1592 -0.1026
 1844ETH     CO 1844   4.471   5.116   5.524  0.3152  0.0314 -0.0117
 1845ETH     CO 1845   5.867   5.782   1.847  0.2004 -0.2812  0.1536
 1846ETH     CO 1846   6.528   4.098   6.039  0.1235  0.1977 -0.1000
 1847ETH     CO 1847   1.545   6.484   6.596  0.0053 -0.2403  0.0154
 1848ETH     CO 1848   2.458   2.594   3.994 -0.1759 -0.2123  0.1805
 1849ETH     CO 1849   5.426   4.662   4.853  0.2056  0.1878  0.0976
 1850ETH     CO 1850   6.570   4.630   0.800 -0.1214  0.0323 -0.1579
 1851ETH     CO 1851   3.611   0.593   3.934 -0.1859 -0.1135 -0.0251
 1852ETH     CO 1852   6.243   5.370   1.541 -0.1473 -0.1907 -0.0796
 1853ETH     CO 1853   1.130   1.050   1.586 -0.1257 -0.0874  0.2379
 1854ETH     CO 1854   4.746   0.952   6.353  0.1141  0.0468  0.2647
 1855ETH     CO 1855   2.267   4.894   2.758  0.3147 -0.1810  0.1600
 1856ETH     CO 1856   0.873   4.478   1.572  0.0779  0.0734  0.0184
 1857ETH     CO 1857   1.983   6.200   2.025 -0.0227  0.0478 -0.0832
 1858ETH     CO 1858   5.655   4.065   6.241  0.1149 -0.2108  0.0380
 1859ETH     CO 1859   4.435   4.328   2.318 -0.0570  0.0046 -0.0104
 1860ETH     CO 1860   5.706   1.586   4.717  0.0467 -0.0346 -0.3796
 1861ETH     CO 1861   4.533   0.961   1.466 -0.2243 -0.1221 -0.1879
 1862ETH     CO 1862   3.248   5.944   0.408  0.0642  0.0390  0.0915
 1863ETH     CO 1863   0.961   6.284   2.702  0.0158  0.1350 -0.1392
 1864ETH     CO 1864   4.798   5.093   2.741 -0.3549 -0.0358  0.2626
 1865ETH     CO 1865   4.009   2.623   2.833  0.0236  0.1195 -0.1983
 1866ETH     CO 1866   0.319   5.041   0.767 -0.2564  0.3316 -0.0035
 1867ETH     CO 1867   3.632   4.796   0.321 -0.1272  0.0785  0.2421
 1868ETH     CO 1868   1.514   0.836   4.744  0.2089 -0.1890  0.3333
 1869ETH     CO 1869   5.884   1.345   1.857  0.0631 -0.2636 -0.1201
 1870ETH     CO 1870   3.257   4.136   1.188  0.1908 -0.0539  0.0135
 1871ETH     CO 1871   4.005   4.950   3.420  0.0563  0.1586  0.1058
 1872ETH     CO 1872   0.977   3.127   2.011 -0.2038  0.0491  0.0609
 1873ETH     CO 1873   4.050   0.169   2.865 -0.2642 -0.1794  0.0915
 1874ETH     CO 1874   2.046   1.552   3.925  0.3229  0.0476 -0.1562
 1875ETH     CO 1875   2.459   2.127   2.105  0.0181 -0.1470  0.2084
 1876ETH     CO 1876   0.604   3.913   4.980 -0.4748  0.1538 -0.2094
 1877ETH     CO 1877   6.291   0.949   3.883 -0.1782 -0.0140  0.1033
 1878ETH     CO 1878   2.488   0.290   2.500 -0.1779 -0.1184 -0.1418
 1879ETH     CO 1879   0.227   4.243   6.562  0.2789  0.0427  0.1218
 1880ETH     CO 1880   5.038   4.699   5.435 -0.3454  0.2199  0.2007
 1881ETH     CO 1881   3.727   2.056   3.582 -0.0487 -0.2554 -0.0379
 1882ETH     CO 1882   2.673   1.671   1.277  0.0734 -0.1818  0.0373
 1883ETH     CO 1883   4.982   4.537   0.966  0.0099 -0.0303  0.1178
 1884ETH     CO 1884   6.254   5.522   0.382 -0.3305 -0.0366 -0.0626
 1885ETH     CO 1885   3.323   2.995   2.570  0.0925  0.2014 -0.1190
 1886ETH     CO 1886   0.173   5.408   4.138  0.0705 -0.0927 -0.2567
 1887ETH     CO 1887   0.623   0.560   6.078 -0.0673 -0.1932 -0.3789
 1888ETH     CO 1888   4.374   4.143   4.308  0.0380  0.2987  0.0645
 1889ETH     CO 1889   6.170   3.297   4.752  0.0505 -0.0553 -0.0530
 1890ETH     CO 1890   3.391   4.725   5.599 -0.1056  0.1161 -0.0574
 1891ETH     CO 1891   0.381   0.182   0.473  0.1302 -0.2075  0.1119
 1892ETH     CO 1892   4.874   4.455   4.894 -0.1389  0.1083 -0.5164
 1893ETH     CO 1893   2.046   6.171   3.605  0.0748  0.0986  0.3663
 1894ETH     CO 1894   3.590   4.080   6.387 -0.0373 -0.2117  0.3364
 1895ETH     CO 1895   4.258   0.778   4.375  0.0257  0.1515  0.1765
 1896ETH     CO 1896   3.638   5.391   4.013 -0.0372  0.1136 -0.2481
 1897ETH     CO 1897   4.555   5.923   4.849  0.1040  0.0468 -0.0698
 1898ETH     CO 1898   3.579   6.508   2.989 -0.5177 -0.0322 -0.2645
 1899ETH     CO 1899   3.390   3.808   2.203  0.0566  0.0011  0.3848
 1900ETH     CO 1900   3.959   2.120   5.453  0.0375 -0.0900 -0.2103
 1901ETH     CO 1901   3.345   4.059   2.944  0.4799  0.0976  0.2241
 1902ETH     CO 1902   5.997   3.507   2.298  0.0751  0.0735  0.2904
 1903ETH     CO 1903   2.039   2.993   0.531  0.2283 -0.0552 -0.1108
 1904ETH     CO 1904   1.375   1.577   5.492 -0.0096 -0.0624 -0.1799
 1905ETH     CO 1905   2.782   1.415   1.689 -0.1141  0.1126 -0.3749
 1906ETH     CO 1906   6.192   1.423   5.328  0.3503 -0.0065 -0.0778
 1907ETH     CO 1907   5.447   3.506   5.411 -0.0407  0.1085  0.2726
 1908ETH     CO 1908   6.062   3.296   1.445  0.3814 -0.0456  0.0736
 1909ETH     CO 1909   1.046   5.070   1.825 -0.0604 -0.4078  0.0367
 1910ETH     CO 1910   4.228   0.180   1.971  0.3034 -0.1176  0.2664
 1911ETH     CO 1911   5.956   1.056   0.424  0.3572 -0.1056  0.0412
 1912ETH     CO 1912   3.827   1.917   0.529 -0.2888  0.1430  0.0033
 1913ETH     CO 1913   3.268   6.443   1.041 -0.0563  0.3227  0.2543
 1914ETH     CO 1914   1.546   0.748   1.363 -0.1444  0.1110 -0.0700
 1915ETH     CO 1915   1.296   5.983   2.815 -0.1837 -0.0607  0.0712
 1916ETH     CO 1916   1.940   0.373   1.448 -0.0411  0.0405 -0.3036
 1917ETH     CO 1917   4.363   5.485   6.312 -0.2629 -0.0725  0.0539
 1918ETH     CO 1918   6.380   0.699   4.863 -0.0519  0.0319 -0.1084
 1919ETH     CO 1919   4.481   0.417   3.535 -0.0119  0.1894  0.0095
 1920ETH     CO 1920   1.919   6.548   4.542  0.0136 -0.0580  0.0172
 1921ETH     CO 1921   3.283   0.760   1.046 -0.0432  0.2821  0.0159
 1922ETH     CO 1922   2.723   1.989   4.608 -0.3492 -0.0836  0.1354
 1923ETH     CO 1923   4.611   0.445   2.262 -0.2126 -0.2295  0.1748
 1924ETH     CO 1924   5.057   2.613   5.279 -0.2405  0.0236  0.0279
 1925ETH     CO 1925   5.719   0.835   3.081 -0.2288  0.0923 -0.1698
 1926ETH     CO 1926   4.683   6.572   4.511  0.0120  0.2605 -0.2093
 1927ETH     CO 1927   6.065   4.777   6.204  0.0003  0.3606 -0.1698
 1928ETH     CO 1928   2.335   4.288   1.729  0.1747 -0.0311  0.1941
 1929ETH     CO 1929   6.386   1.671   2.830 -0.0951 -0.0201  0.0798
 1930ETH     CO 1930   0.602   2.414   1.455 -0.0873  0.0175  0.1584
 1931ETH     CO 1931   2.546   2.645   0.495  0.0368  0.2444  0.2011
 1932ETH     CO 1932   3.796   2.741   5.988  0.1616 -0.0057  0.0603
 1933ETH     CO 1933   2.521   0.663   0.205  0.2939 -0.0137 -0.2281
 1934ETH     CO 1934   5.191   1.199   3.067 -0.5602 -0.1147  0.0056
 1935ETH     CO 1935   3.816   2.054   1.741 -0.1520 -0.1226 -0.0112
 1936ETH     CO 1936   6.097   2.841   5.296  0.0100 -0.0432 -0.0884
 1937ETH     CO 1937   4.391   2.898   2.409 -0.1250 -0.0813 -0.2194
 1938ETH     CO 1938   5.765   4.681   1.717  0.1107 -0.2012  0.3823
 1939ETH     CO 1939   1.790   2.736   1.767 -0.0891 -0.1560  0.0558
 1940ETH     CO 1940   1.186   4.773   4.615  0.2108  0.1642  0.1290
 1941ETH     CO 1941   3.717   3.790   0.774  0.2280 -0.0659  0.3801
 1942ETH     CO 1942   6.502   3.882   0.784  0.0501 -0.1753  0.1089
 1943ETH     CO 1943   4.246   1.511   3.230  0.0717  0.0133  0.2075
 1944ETH     CO 1944   1.630   5.913   3.586 -0.3296  0.3716  0.2014
 1945ETH     CO 1945   0.240   0.904   6.114  0.0072  0.1005  0.0092
 1946ETH     CO 1946   1.612   2.536   5.156  0.0049  0.2535  0.0934
 1947ETH     CO 1947   4.260   1.519   6.611 -0.0822  0.1054 -0.1532
 1948ETH     CO 1948   0.332   3.736   6.007 -0.1179 -0.3374  0.1651
 1949ETH     CO 1949   0.242   2.094   5.033 -0.0289 -0.3542  0.1554
 1950ETH     CO 1950   0.834   6.436   6.530  0.0851  0.2976 -0.3397
 1951ETH     CO 1951   0.934   3.520   1.741  0.0471  0.2083  0.1913
 1952ETH     CO 1952   4.098   2.984   5.590  0.3250 -0.1131 -0.0878
 1953ETH     CO 1953   3.393   5.897   2.289  0.1064 -0.2096 -0.3556
 1954ETH     CO 1954   4.925   4.082   3.140 -0.0985  0.0784  0.1503
 1955ETH     CO 1955   0.137   5.596   6.054 -0.0592 -0.0277  0.1127
 1956ETH     CO 1956   3.293   5.112   2.520  0.1303 -0.0961 -0.4264
 1957ETH     CO 1957   2.067   3.685   6.597  0.0712 -0.0233 -0.1233
 1958ETH     CO 1958   3.145   4.636   4.111 -0.3606 -0.1323  0.0025
 1959ETH     CO 1959   2.915   4.361   0.881 -0.3941 -0.1806  0.1043
 1960ETH     CO 1960   1.418   5.308   5.703  0.0732 -0.2845  0.2340
 1961ETH     CO 1961   2.599   5.022   3.557 -0.2832 -0.2122  0.2528
 1962ETH     CO 1962   0.290   4.872   4.283 -0.0283 -0.1797 -0.0012
 1963ETH     CO 1963   4.930   5.681   5.031 -0.1880  0.1362  0.1115
 1964ETH     CO 1964   0.200   3.342   1.315 -0.1076  0.2089 -0.0563
 1965ETH     CO 1965   0.621   0.313   1.331  0.0824 -0.2386 -0.1303
 1966ETH     CO 1966   5.578   5.750   3.381 -0.1408  0.1244 -0.4094
 1967ETH     CO 1967   5.891   1.088   4.217  0.2901 -0.1440  0.4680
 1968ETH     CO 1968   5.383   2.092   0.531  0.1278  0.3590 -0.1995
 1969ETH     CO 1969   3.527   1.675   6.273 -0.3322  0.1029 -0.1802
 1970ETH     CO 1970   6.235   5.265   6.092 -0.1786 -0.2977  0.0257
 1971ETH     CO 1971   1.211   1.193   3.793  0.2860  0.2457 -0.1187
 1972ETH     CO 1972   4.963   5.190   1.442  0.2595 -0.1300 -0.0282
 1973ETH     CO 1973   4.547   1.363   2.639 -0.1331 -0.0346  0.1522
 1974ETH     CO 1974   2.606   0.468   0.755  0.2050 -0.1938 -0.0140
 1975ETH     CO 1975   1.870   4.730   0.907  0.0862 -0.0699  0.1055
 1976ETH     CO 1976   0.665   4.782   1.981 -0.0129  0.0724  0.0071
 1977ETH     CO 1977   2.260   1.947   3.086 -0.2534  0.1357  0.0166
 1978ETH     CO 1978   6.093   5.522   3.427 -0.0460  0.1777 -0.2780
 1979ETH     CO 1979   3.229   3.116   6.012  0.1432 -0.0661  0.2661
 1980ETH     CO 1980   0.269   2.255   3.224 -0.0359 -0.1356 -0.1123
 1981ETH     CO 1981   5.830   3.806   3.190  0.0830  0.0325  0.1568
 1982ETH     CO 1982   5.313   6.515   2.703 -0.1726  0.0793  0.0765
 1983ETH     CO 1983   6.240   6.078   3.565 -0.2948 -0.1251 -0.0068
 1984ETH     CO 1984   0.463   0.863   2.196  0.1652  0.0460  0.1336
 1985ETH     CO 1985   1.490   0.889   4.144  0.3192  0.0029  0.0584
 1986ETH     CO 1986   3.015   6.112   1.554 -0.1510  0.1075 -0.2749
 1987ETH     CO 1987   3.070   5.043   3.433  0.1566  0.0050 -0.4451
 1988ETH     CO 1988   0.066   2.903   5.151  0.2377 -0.1418  0.1328
 1989ETH     CO 1989   2.066   3.748   3.349 -0.1385  0.1585 -0.2930
 1990ETH     CO 1990   3.856   1.553   1.922 -0.2477  0.0681  0.1152
 1991ETH     CO 1991   5.334   5.009   1.683 -0.2321 -0.0696 -0.2712
 1992ETH     CO 1992   4.727   2.418   5.879 -0.2284 -0.1047 -0.2810
 1993ETH     CO 1993   6.541   5.814   5.161  0.0041 -0.0389  0.1100
 1994ETH     CO 1994   0.612   4.070   6.272  0.0938  0.0396  0.1337
 1995ETH     CO 1995   4.298   6.611   0.429 -0.2379 -0.0334  0.0141
 1996ETH     CO 1996   1.628   4.331   5.799 -0.0798  0.3902 -0.0925
 1997ETH     CO 1997   3.769   3.746   5.662 -0.2705 -0.1665  0.0144
 1998ETH     CO 1998   2.449   2.236   0.791 -0.1595  0.2364  0.0696
 1999ETH     CO 1999   5.117   5.333   4.681 -0.0184  0.1955  0.0545
 2000ETH     CO 2000   1.006   3.323   0.587  0.1366  0.1755 -0.1022
 2001ETH     CO 2001   0.115   5.874   1.000  0.1136  0.0692  0.1392
 2002ETH     CO 2002   6.221   6.556   0.627  0.0233  0.0948  0.0022
 2003ETH     CO 2003   6.593   6.245   6.269 -0.0242  0.0509  0.0025
 2004ETH     CO 2004   5.193   5.258   3.692  0.0365 -0.0527 -0.0511
 2005ETH     CO 2005   5.326   0.065   0.614 -0.2952  0.0374 -0.1637
 2006ETH     CO 2006   3.328   4.669   4.588 -0.2301  0.1049 -0.0085
 2007ETH     CO 2007   1.649   1.253   2.351 -0.0434  0.0482  0.1736
 2008ETH     CO 2008   1.759   4.952   2.952 -0.2451 -0.2031 -0.0276
 2009ETH     CO 2009   6.085   1.584   4.324  0.3407 -0.0727 -0.0940
 2010ETH     CO 2010   6.317   4.218   6.535  0.2343  0.0805 -0.2770
 2011ETH     CO 2011   4.902   4.869   1.901  0.0606  0.1318 -0.0451
 2012ETH     CO 2012   1.004   5.566   1.555  0.3078 -0.2256 -0.1305
 2013ETH     CO 2013   0.242   2.548   5.563 -0.1279  0.0072  0.2733
 2014ETH     CO 2014   0.500   5.712   2.199 -0.4870  0.3143  0.0245
 2015ETH     CO 2015   4.697   1.653   3.229 -0.1172  0.1118  0.1520
 2016ETH     CO 2016   2.851   2.847   4.917  0.1573  0.2722  0.1572
 2017ETH     CO 2017   0.539   0.714   3.306 -0.3277  0.3146  0.0423
 2018ETH     CO 2018   2.992   2.534   5.409 -0.0383 -0.0790 -0.2640
 2019ETH     CO 2019   1.895   2.002   2.177 -0.0917  0.0564  0.0686
 2020ETH     CO 2020   0.264   1.733   3.076  0.4005 -0.2184 -0.1103
 2021ETH     CO 2021   5.896   6.096   5.797 -0.0974 -0.1206 -0.0726
 2022ETH     CO 2022   2.240   5.004   0.418  0.2367 -0.0428 -0.2307
 2023ETH     CO 2023   4.309   3.026   3.852 -0.4244  0.0751 -0.1982
 2024ETH     CO 2024   5.421   1.696   0.795 -0.1950  0.0597  0.2555
 2025ETH     CO 2025   6.135   0.664   4.374  0.0935 -0.0301  0.1960
 2026ETH     CO 2026   4.320   1.803   2.434  0.2871  0.0852 -0.1254
 2027ETH     CO 2027   0.926   1.765   5.753 -0.2147  0.1330  0.2458
 2028ETH     CO 2028   1.181   0.552   2.856  0.1244  0.4059 -0.0762
 2029ETH     CO 2029   0.297   5.369   2.913 -0.3818  0.0550  0.2269
 2030ETH     CO 2030   1.921   4.443   0.428  0.1261  0.0689  0.0719
 2031ETH     CO 2031   0.945   2.668   0.130  0.2770  0.0715  0.0102
 2032ETH     CO 2032   1.062   2.723   4.733 -0.0720  0.1103 -0.3479
 2033ETH     CO 2033   0.301   3.108   0.484 -0.0813 -0.0842  0.1486
 2034ETH     CO 2034   2.389   5.480   0.803  0.2445 -0.0458  0.3172
 2035ETH     CO 2035   5.554   2.590   0.397  0.2641  0.1339  0.2568
 2036ETH     CO 2036   4.331   6.474   2.401  0.0064 -0.0464 -0.1099
 2037ETH     CO 2037   0.503   4.774   1.227 -0.0592  0.1962  0.1167
 2038ETH     CO 2038   3.352   5.910   5.399  0.1810 -0.1004 -0.1211
 2039ETH     CO 2039   3.746   3.597   5.073 -0.0379  0.0900 -0.0050
 2040ETH     CO 2040   1.017   4.016   2.640 -0.0652  0.3634 -0.0221
 2041ETH     CO 2041   5.802   5.574   5.666  0.2970  0.0260  0.3211
 2042ETH     CO 2042   4.278   4.562   1.378  0.1342 -0.1358  0.0883
 2043ETH     CO 2043   2.135   4.930   1.255 -0.0378  0.0896  0.0937
 2044ETH     CO 2044   3.805   1.365   0.489  0.2509  0.1521  0.1061
 2045ETH     CO 2045   1.589   0.177   3.970 -0.0375 -0.0562  0.0632
 2046ETH     CO 2046   1.944   1.991   3.461 -0.5809 -0.4035  0.0842
 2047ETH     CO 2047   1.026   2.958   3.406 -0.0005 -0.1388  0.3584
 2048ETH     CO 2048   1.111   0.259   6.281  0.2138  0.1285  0.1263
 2049ETH     CO 2049   5.608   4.632   3.232 -0.0156 -0.0514 -0.1253
 2050ETH     CO 2050   1.683   1.196   6.455 -0.0011 -0.1556 -0.1319
 2051ETH     CO 2051   2.764   6.292   2.927  0.1161  0.0877  0.2502
 2052ETH     CO 2052   4.646   5.785   3.100  0.4178 -0.1681 -0.1063
 2053ETH     CO 2053   4.449   4.242   3.835 -0.0461  0.3319  0.0317
 2054ETH     CO 2054   6.137   3.275   3.668 -0.1122  0.2139  0.0403
 2055ETH     CO 2055   2.460   3.496   3.174 -0.0384  0.0150  0.0905
 2056ETH     CO 2056   2.808   2.847   5.881 -0.0688 -0.0438  0.0942
 2057ETH     CO 2057   0.169   1.404   2.679  0.1224  0.3133 -0.1451
 2058ETH     CO 2058   6.098   2.274   6.494  0.3067  0.1608 -0.2934
 2059ETH     CO 2059   0.121   2.104   6.585 -0.0061  0.1779  0.5040
 2060ETH     CO 2060   0.307   1.544   1.157  0.0301 -0.0870  0.1545
 2061ETH     CO 2061   2.356   3.035   3.497 -0.1041 -0.4105 -0.0567
 2062ETH     CO 2062   0.114   2.048   2.729 -0.3187  0.3179 -0.2007
 2063ETH     CO 2063   2.310   2.596   2.733 -0.2403  0.3296 -0.0102
 2064ETH     CO 2064   1.243   4.334   6.122 -0.0258 -0.1637  0.0465
 2065ETH     CO 2065   2.906   4.531   3.261  0.4229 -0.2892 -0.0565
 2066ETH     CO 2066   2.300   2.240   0.317  0.0693  0.0426  0.2994
 2067ETH     CO 2067   1.365   2.779   2.965 -0.0916 -0.1654  0.3886
 2068ETH     CO 2068   6.366   3.276   5.189 -0.1332 -0.2804  0.2516
 2069ETH     CO 2069   4.149   4.540   4.081 -0.4254 -0.1942 -0.1896
 2070ETH     CO 2070   3.292   1.475   1.625 -0.0708 -0.1348  0.0760
 2071ETH     CO 2071   4.482   3.842   5.836 -0.1266 -0.0917  0.0592
 2072ETH     CO 2072   2.101   6.496   3.153 -0.3345  0.2408  0.2293
 2073ETH     CO 2073   5.871   1.826   3.964 -0.1634 -0.1713  0.1514
 2074ETH     CO 2074   4.211   2.020   4.444 -0.1950 -0.0411 -0.0774
 2075ETH     CO 2075   0.864   3.289   5.350  0.1819  0.0717 -0.1319
 2076ETH     CO 2076   3.696   6.401   5.223 -0.3403  0.1214 -0.0958
 2077ETH     CO 2077   0.333   5.297   1.958 -0.1172 -0.5575  0.2314
 2078ETH     CO 2078   0.362   2.765   1.049  0.0621  0.0256  0.1849
 2079ETH     CO 2079   6.096   0.307   0.368 -0.1668  0.2757 -0.1893
 2080ETH     CO 2080   3.982   6.271   0.910  0.2711  0.4436 -0.1766
 2081ETH     CO 2081   2.524   3.223   1.916 -0.1726  0.0665 -0.1577
 2082ETH     CO 2082   6.525   2.666   0.860  0.0798 -0.1391  0.2055
 2083ETH     CO 2083   1.595   2.056   0.540  0.2821 -0.0923 -0.0278
 2084ETH     CO 2084   5.999   1.267   2.936  0.1003  0.0988 -0.0819
 2085ETH     CO 2085   1.918   3.887   3.814  0.0271  0.1829  0.0740
 2086ETH     CO 2086   0.523   2.606   3.514  0.1274  0.0293  0.0135
 2087ETH     CO 2087   2.491   5.955   0.916 -0.1560  0.2058 -0.1534
 2088ETH     CO 2088   3.355   2.951   4.774 -0.1684 -0.0328 -0.2430
 2089ETH     CO 2089   0.596   1.860   6.171 -0.0015 -0.0702 -0.3004
 2090ETH     CO 2090   3.211   2.956   5.522  0.1909 -0.1371  0.1408
 2091ETH     CO 2091   3.841   4.134   2.217 -0.2210  0.4775 -0.1036
 2092ETH     CO 2092   5.441   4.488   2.152  0.3348 -0.2718  0.1767
 2093ETH     CO 2093   0.345   0.139   5.346 -0.0043  0.2060 -0.1913
 2094ETH     CO 2094   5.847   2.007   0.813  0.1492 -0.0552  0.1398
 2095ETH     CO 2095   2.317   1.659   2.269 -0.3226  0.1933  0.0654
 2096ETH     CO 2096   1.275   5.410   6.480  0.1324 -0.1531  0.1839
 2097ETH     CO 2097   4.172   5.337   0.976  0.2964  0.2271  0.0240
 2098ETH     CO 2098   0.423   3.466   0.851  0.0694 -0.2635 -0.0485
 2099ETH     CO 2099   2.380   0.781   2.356  0.0156  0.0569  0.0980
 2100ETH     CO 2100   4.268   0.746   2.085  0.0681 -0.2853 -0.1838
 2101ETH     CO 2101   2.449   5.071   1.849  0.0778  0.2407 -0.3681
 2102ETH     CO 2102   5.461   5.446   4.281 -0.1412 -0.1055  0.1722
 2103ETH     CO 2103   0.902   2.880   1.594 -0.0328  0.0232 -0.1283
 2104ETH     CO 2104   6.522   1.382   3.874  0.0369  0.0133  0.1015
 2105ETH     CO 2105   1.781   1.600   1.976 -0.2836  0.0270  0.4327
 2106ETH     CO 2106   5.429   3.088   4.852 -0.0752  0.1614  0.0314
 2107ETH     CO 2107   6.494   1.761   2.314 -0.1034 -0.0019 -0.2645
 2108ETH     CO 2108   3.478   3.592   6.055 -0.0345 -0.1925 -0.1349
 2109ETH     CO 2109   5.215   5.043   5.091  0.3290  0.3003 -0.2253
 2110ETH     CO 2110   6.329   2.626   2.778  0.3480 -0.0297 -0.0094
 2111ETH     CO 2111   5.784   1.479   5.654 -0.1399 -0.2986 -0.1959
 2112ETH     CO 2112   4.932   1.892   5.660  0.2158  0.0133 -0.0452
 2113ETH     CO 2113   4.380   5.958   3.501 -0.1893  0.2498 -0.0798
 2114ETH     CO 2114   1.665   1.405   4.278 -0.1167  0.0018  0.0165
 2115ETH     CO 2115   1.551   3.820   5.517 -0.2302 -0.1876 -0.1909
 2116ETH     CO 2116   0.254   2.358   1.893  0.2394 -0.1006 -0.1184
 2117ETH     CO 2117   6.044   3.598   1.015  0.2226 -0.0844  0.0864
 2118ETH     CO 2118   2.846   2.093   2.986 -0.0136  0.2130 -0.0119
 2119ETH     CO 2119   0.854   1.658   0.529  0.0442 -0.1106 -0.0448
 2120ETH     CO 2120   3.771   0.975   4.447  0.0570  0.0264  0.1870
 2121ETH     CO 2121   2.435   0.041   4.460 -0.0750  0.0995 -0.1461
 2122ETH     CO 2122   4.635   2.129   5.317  0.5498  0.2142 -0.0288
 2123ETH     CO 2123   0.285   4.151   0.675 -0.0158 -0.0040 -0.1515
 2124ETH     CO 2124   3.519   1.040   4.997  0.0065  0.0139  0.3562
 2125ETH     CO 2125   4.061   1.026   1.060 -0.1666 -0.0261  0.1209
 2126ETH     CO 2126   6.581   3.431   2.263  0.1905  0.2750  0.1137
 2127ETH     CO 2127   3.742   0.671   5.297  0.1765  0.1004  0.1135
 2128ETH     CO 2128   2.363   3.848   5.662  0.0323  0.0753  0.2176
 2129ETH     CO 2129   2.329   4.597   2.201  0.1182  0.2492  0.1028
 2130ETH     CO 2130   5.259   3.800   0.324  0.1457 -0.1238 -0.4114
 2131ETH     CO 2131   5.291   4.802   5.837  0.1264  0.3649 -0.1202
 2132ETH     CO 2132   0.046   1.627   4.884  0.3070 -0.0918 -0.1826
 2133ETH     CO 2133   5.481   6.236   0.949 -0.2798  0.0970 -0.0114
 2134ETH     CO 2134   2.034   5.197   0.008 -0.0557 -0.1964 -0.0005
 2135ETH     CO 2135   4.493   3.375   2.148 -0.0384  0.0770 -0.2755
 2136ETH     CO 2136   5.643   3.706   1.668  0.4393  0.1893  0.0291
 2137ETH     CO 2137   5.022   1.122   5.298 -0.0841  0.1641  0.0671
 2138ETH     CO 2138   0.222   2.580   0.450 -0.3656 -0.1658  0.0201
 2139ETH     CO 2139   0.433   0.478   1.771 -0.1422  0.2726 -0.0611
 2140ETH     CO 2140   2.589   1.110   2.660 -0.0274 -0.2415 -0.1475
 2141ETH     CO 2141   5.112   1.351   3.518 -0.1749 -0.0655  0.0365
 2142ETH     CO 2142   6.092   5.724   0.957  0.0475  0.4211  0.0555
 2143ETH     CO 2143   1.789   2.560   0.294  0.3405 -0.1349  0.0480
 2144ETH     CO 2144   4.007   1.838   6.190  0.0229 -0.0237 -0.3321
 2145ETH     CO 2145   4.468   1.560   3.802  0.1144  0.2838 -0.1770
 2146ETH     CO 2146   5.191   2.839   0.115  0.2489  0.1991 -0.1653
 2147ETH     CO 2147   2.732   4.687   2.674  0.1349 -0.1072 -0.1486
 2148ETH     CO 2148   0.124   1.321   0.609  0.3155 -0.2307  0.1930
 2149ETH     CO 2149   5.423   0.264   4.683  0.2960 -0.0463  0.2544
 2150ETH     CO 2150   0.521   1.422   1.601 -0.1078  0.0838 -0.3261
 2151ETH     CO 2151   6.029   4.531   0.535  0.0748 -0.0602  0.3190
 2152ETH     CO 2152   3.844   0.794   1.547 -0.1313 -0.0621 -0.3069
 2153ETH     CO 2153   4.279   5.146   2.982 -0.1836 -0.1245  0.2158
 2154ETH     CO 2154   6.293   4.873   1.616  0.2842 -0.3042  0.1628
 2155ETH     CO 2155   5.553   6.597   3.210  0.0849 -0.0557 -0.0822
 2156ETH     CO 2156   0.607   5.860   0.619  0.1373 -0.0336  0.0995
 2157ETH     CO 2157   1.598   0.133   1.102  0.0998 -0.3316  0.2386
 2158ETH     CO 2158   0.430   4.819   5.846 -0.0241  0.2930  0.2177
 2159ETH     CO 2159   0.179   3.410   3.037  0.1950  0.0417  0.1226
 2160ETH     CO 2160   0.236   5.299   0.139 -0.2121 -0.0058 -0.0541
 2161ETH     CO 2161   4.705   2.764   0.299 -0.0216  0.0083  0.1430
 2162ETH     CO 2162   2.447   4.781   5.091 -0.0267  0.1154 -0.0820
 2163ETH     CO 2163   0.288   6.178   5.330  0.1156 -0.0805  0.0385
 2164ETH     CO 2164   1.120   2.483   4.271 -0.0926  0.1473  0.2013
 2165ETH     CO 2165   3.038   4.505   1.450  0.1725 -0.2340 -0.0920
 2166ETH     CO 2166   1.978   0.917   5.821 -0.2254  0.1254 -0.0638
 2167ETH     CO 2167   4.468   2.883   4.550  0.0764 -0.1546  0.1141
 2168ETH     CO 2168   2.762   0.032   0.800 -0.1860  0.1377 -0.2863
 2169ETH     CO 2169   1.319   3.081   3.867  0.0733  0.0915  0.0868
 2170ETH     CO 2170   4.398   2.660   0.845  0.2688 -0.1735  0.0987
 2171ETH     CO 2171   0.948   0.192   1.821 -0.0178 -0.2002 -0.1872
 2172ETH     CO 2172   5.029   6.408   3.108 -0.0087 -0.0697 -0.3810
 2173ETH     CO 2173   3.443   4.348   5.997 -0.0479 -0.5992  0.0099
 2174ETH     CO 2174   3.668   3.072   0.703  0.1025 -0.2167  0.0103
 2175ETH     CO 2175   6.453   1.220   6.595 -0.2986  0.5692  0.2069
 2176ETH     CO 2176   0.683   4.339   5.320  0.1420 -0.0380 -0.0081
 2177ETH     CO 2177   4.908   5.791   2.091  0.0964  0.3858  0.1614
 2178ETH     CO 2178   0.346   3.957   5.515  0.2761  0.1817  0.1546
 2179ETH     CO 2179   3.431   0.614   6.463  0.0316 -0.1945 -0.0515
 2180ETH     CO 2180   2.085   5.212   5.776 -0.0540 -0.2720  0.3477
 2181ETH     CO 2181   3.304   1.822   0.664 -0.0866 -0.0096  0.0069
 2182ETH     CO 2182   5.393   4.486   6.214 -0.2764  0.1595 -0.0152
 2183ETH     CO 2183   1.874   6.197   2.544  0.0341 -0.0766 -0.2492
 2184ETH     CO 2184   6.222   1.892   5.017 -0.1496  0.2378 -0.0578
 2185ETH     CO 2185   0.062   4.402   2.759  0.0721 -0.0658 -0.3993
 2186ETH     CO 2186   1.664   4.018   5.046 -0.1949 -0.2599  0.2684
 2187ETH     CO 2187   0.668   6.110   3.406  0.2523 -0.0892 -0.4606
 2188ETH     CO 2188   5.729   5.401   6.605 -0.0280  0.0451 -0.0049
 2189ETH     CO 2189   6.539   4.467   1.602  0.0837  0.0736 -0.2068
 2190ETH     CO 2190   6.273   3.745   5.798 -0.3338  0.3355  0.1900
 2191ETH     CO 2191   0.901   4.189   3.740 -0.2249 -0.1815 -0.0661
 2192ETH     CO 2192   0.607   5.354   0.532  0.0424 -0.1240  0.2660
 2193ETH     CO 2193   3.752   2.286   0.212  0.0460  0.1974  0.1858
 2194ETH     CO 2194   3.595   4.453   3.120 -0.0234 -0.0686 -0.1563
 2195ETH     CO 2195   1.659   4.346   1.865  0.1532  0.1564  0.1506
 2196ETH     CO 2196   1.186   3.209   1.375  0.2413  0.2501 -0.0261
 2197ETH     CO 2197   2.362   2.071   1.366  0.0465 -0.1111 -0.1500
   6.61514   6.61514   6.61514
