trans-Octadecene box
 4500
    1ODT      C    1   3.154   1.245   0.929  0.3104  0.1493 -0.1030
    1ODT      D    2   3.671   1.041   1.015 -0.0489  0.2266  0.3151
    1ODT      C    3   4.084   0.893   1.159 -0.0106  0.0288  0.0779
    1ODT      C    4   4.431   0.696   1.288 -0.0978  0.0294  0.2997
    1ODT      C    5   4.676   0.208   1.222 -0.1197  0.0365  0.0786
    2ODT      C    6   0.169   2.118   5.490  0.0746  0.1680 -0.1896
    2ODT      D    7   0.500   2.090   5.352 -0.1716 -0.1888  0.3249
    2ODT      C    8   0.767   2.099   5.103  0.0723 -0.0448  0.1681
    2ODT      C    9   1.162   1.911   4.959  0.3340  0.0420  0.0211
    2ODT      C   10   1.431   1.597   5.206 -0.1628 -0.3562 -0.0083
    3ODT      C   11   6.149   0.716   6.314 -0.2050  0.2159  0.1046
    3ODT      D   12   6.182   0.210   6.260 -0.1328 -0.1819  0.1138
    3ODT      C   13   6.193  -0.195   6.414  0.1658 -0.1564  0.2273
    3ODT      C   14   5.825  -0.557   6.431  0.0684  0.1187 -0.0031
    3ODT      C   15   5.685  -0.776   6.093 -0.0731  0.0876  0.1148
    4ODT      C   16   1.361   6.926   3.150  0.2373  0.0857 -0.2643
    4ODT      D   17   1.744   6.880   2.909 -0.2216  0.1953 -0.2088
    4ODT      C   18   2.089   7.158   2.929 -0.0312 -0.1304 -0.2093
    4ODT      C   19   2.426   6.952   3.135 -0.1721 -0.1001  0.1358
    4ODT      C   20   2.608   6.793   3.492 -0.1189  0.1525  0.1571
    5ODT      C   21   3.231   5.089   5.919  0.1853 -0.0564  0.1227
    5ODT      D   22   3.181   5.480   6.028  0.3278  0.1653  0.1237
    5ODT      C   23   3.114   5.934   6.075 -0.0888 -0.1135 -0.0526
    5ODT      C   24   3.395   6.250   5.831 -0.0053  0.0377 -0.2500
    5ODT      C   25   3.224   6.626   5.869  0.0684  0.0848 -0.0599
    6ODT      C   26   0.803   4.157   6.842 -0.0436 -0.0088  0.1223
    6ODT      D   27   1.202   4.053   6.759  0.0834  0.2591 -0.0890
    6ODT      C   28   1.485   3.991   6.502 -0.3089  0.2231  0.3631
    6ODT      C   29   1.826   4.097   6.333  0.1156  0.0556 -0.2530
    6ODT      C   30   2.222   4.159   6.075  0.0337 -0.0202  0.3250
    7ODT      C   31   7.658   0.238   5.398 -0.1554 -0.2384 -0.4280
    7ODT      D   32   7.941   0.454   5.598  0.5055 -0.3300 -0.1168
    7ODT      C   33   8.222   0.674   5.749 -0.0556  0.2848  0.0862
    7ODT      C   34   8.237   1.095   5.893 -0.2966  0.1584  0.1808
    7ODT      C   35   8.512   1.338   6.166  0.1061 -0.3394 -0.2721
    8ODT      C   36   5.184   0.666   2.062 -0.0315  0.2519 -0.1557
    8ODT      D   37   5.203   1.178   1.960 -0.1003  0.2875 -0.0522
    8ODT      C   38   5.105   1.510   1.721 -0.1068  0.0383 -0.2208
    8ODT      C   39   4.952   1.761   1.448  0.0172 -0.0474 -0.0399
    8ODT      C   40   4.886   2.065   1.157  0.1245 -0.1490 -0.1977
    9ODT      C   41   6.849   1.806   1.712 -0.1890 -0.0815  0.0303
    9ODT      D   42   7.235   1.933   1.530  0.0503  0.2629 -0.1772
    9ODT      C   43   7.558   1.969   1.130 -0.2090  0.1857  0.1343
    9ODT      C   44   7.813   1.846   0.811  0.1479  0.1664  0.4347
    9ODT      C   45   7.927   1.505   0.466 -0.0751 -0.0694  0.1328
   10ODT      C   46   8.089   6.360   4.548  0.0767 -0.0264  0.2323
   10ODT      D   47   7.614   6.576   4.719  0.0780 -0.0324  0.2958
   10ODT      C   48   7.179   6.649   4.863 -0.1735 -0.0902  0.3460
   10ODT      C   49   7.281   6.605   5.334  0.0229 -0.1498 -0.3616
   10ODT      C   50   7.492   6.288   5.528 -0.2379 -0.2836  0.0811
   11ODT      C   51   2.136   1.479   4.157 -0.3857 -0.1396 -0.1498
   11ODT      D   52   2.394   1.805   4.087 -0.1868 -0.0819  0.2703
   11ODT      C   53   2.659   2.135   4.387  0.0458  0.2131 -0.2901
   11ODT      C   54   2.909   2.510   4.271  0.0419 -0.3722 -0.3937
   11ODT      C   55   3.242   2.804   4.330  0.0755 -0.1770 -0.1086
   12ODT      C   56   8.010   4.499   5.542 -0.0297  0.0051  0.1246
   12ODT      D   57   7.562   4.569   5.616  0.1261 -0.2872 -0.0329
   12ODT      C   58   7.105   4.620   5.591 -0.0088  0.2448 -0.2070
   12ODT      C   59   6.810   4.301   5.756 -0.1058 -0.0227 -0.0656
   12ODT      C   60   6.461   4.213   6.049  0.1311 -0.1509 -0.1178
   13ODT      C   61   8.181   0.119   2.061 -0.2987  0.1279 -0.1083
   13ODT      D   62   8.185  -0.062   2.519 -0.0344 -0.1897 -0.2063
   13ODT      C   63   8.119   0.039   3.025  0.0626 -0.0903 -0.2399
   13ODT      C   64   8.067  -0.386   3.272  0.1950 -0.2320 -0.1059
   13ODT      C   65   8.065  -0.744   3.589  0.0742  0.0618  0.3106
   14ODT      C   66   9.436   5.071   5.640 -0.1544 -0.1141  0.2310
   14ODT      D   67   9.819   5.070   5.761  0.3605  0.0950 -0.0164
   14ODT      C   68  10.233   4.929   6.007 -0.3002  0.0170  0.0435
   14ODT      C   69  10.364   4.652   6.454 -0.3305 -0.1341  0.1371
   14ODT      C   70  10.633   4.637   6.758  0.1117  0.0332 -0.1775
   15ODT      C   71   0.381   0.129   2.436 -0.0808  0.2232  0.5481
   15ODT      D   72   0.702   0.424   2.259  0.1138 -0.1931  0.0372
   15ODT      C   73   1.074   0.482   2.015  0.2025 -0.0225  0.0708
   15ODT      C   74   1.427   0.361   1.816 -0.1388  0.4390  0.0105
   15ODT      C   75   1.490   0.131   1.399 -0.0392  0.2491 -0.1671
   16ODT      C   76   5.680   2.318   4.377 -0.0270 -0.2079  0.0243
   16ODT      D   77   5.967   2.565   4.086 -0.3990  0.0646  0.1153
   16ODT      C   78   6.036   2.859   3.660  0.0873 -0.0135  0.3753
   16ODT      C   79   6.064   2.944   3.234  0.1156  0.1327  0.0550
   16ODT      C   80   6.058   2.805   2.808 -0.3341 -0.2765 -0.0051
   17ODT      C   81   5.870   5.378   4.149 -0.0950 -0.1282  0.1587
   17ODT      D   82   5.683   5.003   4.048 -0.2217 -0.1163 -0.2322
   17ODT      C   83   5.636   4.845   3.654  0.2212  0.2463  0.1427
   17ODT      C   84   5.699   4.771   3.177  0.0060 -0.4338  0.0160
   17ODT      C   85   5.633   4.642   2.832 -0.2854  0.2140  0.1198
   18ODT      C   86   6.235   2.610   6.188  0.0261 -0.1275 -0.0545
   18ODT      D   87   6.749   2.486   6.218 -0.1513  0.2112 -0.2360
   18ODT      C   88   6.941   2.038   6.169 -0.1016 -0.0867  0.2880
   18ODT      C   89   7.237   1.760   6.096 -0.1151 -0.3294  0.2262
   18ODT      C   90   7.641   1.975   5.865 -0.0395 -0.3515 -0.0499
   19ODT      C   91   7.271   2.368   6.098  0.1204 -0.2492  0.1797
   19ODT      D   92   7.342   2.657   5.750  0.3739 -0.0380  0.0170
   19ODT      C   93   7.179   2.830   5.498  0.1180  0.0826 -0.1147
   19ODT      C   94   6.874   3.004   5.350  0.0537 -0.0080 -0.3052
   19ODT      C   95   6.643   3.366   5.253  0.3294 -0.2192  0.1520
   20ODT      C   96   5.021   2.561   0.542  0.0637  0.1311  0.2773
   20ODT      D   97   4.841   2.146   0.635 -0.1206  0.0487 -0.1121
   20ODT      C   98   4.628   1.801   0.847  0.0249  0.1307  0.1549
   20ODT      C   99   4.915   1.476   0.981  0.0825 -0.1194  0.2347
   20ODT      C  100   5.197   1.253   1.298 -0.3841  0.1839  0.1712
   21ODT      C  101   1.673   3.623   2.709  0.1925  0.1321  0.0455
   21ODT      D  102   1.398   3.441   2.331 -0.1566  0.4174 -0.0652
   21ODT      C  103   1.211   3.289   2.001  0.5192  0.0831  0.3739
   21ODT      C  104   0.875   3.473   1.739  0.0152 -0.1570 -0.2427
   21ODT      C  105   0.426   3.556   1.621  0.2868  0.0650 -0.0168
   22ODT      C  106   4.888   4.259   1.782 -0.0267  0.0082 -0.2195
   22ODT      D  107   5.270   4.222   1.938  0.1217 -0.0983 -0.1449
   22ODT      C  108   5.492   3.975   2.225  0.0458 -0.2772  0.0377
   22ODT      C  109   5.347   3.727   2.452  0.0559  0.1378 -0.2754
   22ODT      C  110   5.391   3.346   2.528 -0.0366 -0.1303  0.1252
   23ODT      C  111   0.583   5.985   3.355 -0.0755 -0.0661  0.0590
   23ODT      D  112   0.521   5.591   3.669  0.0057 -0.2486 -0.1624
   23ODT      C  113   0.587   5.351   3.987 -0.0712  0.1348  0.0110
   23ODT      C  114   0.830   5.204   4.297 -0.0870  0.1343 -0.2357
   23ODT      C  115   0.801   5.222   4.738 -0.2011  0.2056  0.4254
   24ODT      C  116   1.691   2.687   6.545 -0.1862  0.1570 -0.0474
   24ODT      D  117   1.370   2.732   6.928  0.2097 -0.1909  0.1868
   24ODT      C  118   1.273   2.877   7.327 -0.4973  0.0927  0.3056
   24ODT      C  119   1.322   2.905   7.771 -0.0211 -0.0957 -0.3117
   24ODT      C  120   1.677   2.717   8.045  0.1507  0.1884 -0.3003
   25ODT      C  121   0.395   2.343   5.862 -0.1571 -0.1803 -0.2692
   25ODT      D  122   0.227   2.683   5.963 -0.0138  0.0349 -0.1020
   25ODT      C  123  -0.052   2.981   6.179 -0.1252  0.2862  0.0767
   25ODT      C  124  -0.528   2.954   6.133 -0.1468 -0.1281  0.0108
   25ODT      C  125  -0.823   3.180   6.374  0.0553 -0.0481  0.0921
   26ODT      C  126   7.245   6.134   6.760 -0.1008  0.0381  0.2921
   26ODT      D  127   7.237   5.931   6.371 -0.0960 -0.2470 -0.0800
   26ODT      C  128   7.294   5.598   6.182  0.2671 -0.1164  0.0566
   26ODT      C  129   7.529   5.265   6.183 -0.2993  0.2650 -0.1242
   26ODT      C  130   7.608   5.085   6.534 -0.1168  0.4090  0.0966
   27ODT      C  131   1.511   1.354   2.937  0.1023 -0.0536  0.0533
   27ODT      D  132   1.793   1.074   2.814 -0.0755 -0.2019 -0.1750
   27ODT      C  133   2.028   0.683   2.786  0.0512 -0.2049  0.6303
   27ODT      C  134   2.359   0.425   3.001 -0.0002 -0.1804 -0.1721
   27ODT      C  135   2.471   0.200   3.361  0.1186  0.1395 -0.1195
   28ODT      C  136   4.601   3.792   5.498  0.0298 -0.2620 -0.1534
   28ODT      D  137   4.525   3.807   5.900 -0.0505 -0.0472 -0.1241
   28ODT      C  138   4.193   3.651   6.174 -0.4221 -0.0029  0.0019
   28ODT      C  139   4.062   3.362   6.537  0.0222  0.1497 -0.3770
   28ODT      C  140   4.071   3.101   6.901  0.2793 -0.2250  0.0445
   29ODT      C  141   6.319   1.990   1.637 -0.2840 -0.1348  0.1674
   29ODT      D  142   6.512   2.090   2.025  0.1587  0.1782  0.0877
   29ODT      C  143   6.824   2.040   2.371  0.0902  0.0908  0.1790
   29ODT      C  144   6.880   1.951   2.799  0.2802  0.4503  0.1919
   29ODT      C  145   6.977   1.667   3.076 -0.0891 -0.2303  0.0383
   30ODT      C  146   1.327   5.149   3.437 -0.0210  0.2252  0.1187
   30ODT      D  147   1.405   5.617   3.492 -0.0251  0.1173 -0.2413
   30ODT      C  148   1.393   6.033   3.795 -0.1477  0.1256  0.0964
   30ODT      C  149   1.603   5.990   4.233 -0.1869 -0.0589  0.2417
   30ODT      C  150   1.585   5.639   4.494  0.1012  0.1085 -0.3610
   31ODT      C  151   0.981   1.881   6.374 -0.2191  0.2634  0.3157
   31ODT      D  152   1.358   1.704   6.285 -0.0582  0.1971 -0.2964
   31ODT      C  153   1.864   1.556   6.325 -0.0147  0.2342  0.0320
   31ODT      C  154   2.337   1.750   6.232 -0.0521 -0.0420 -0.1663
   31ODT      C  155   2.619   2.151   5.877 -0.0688  0.1820  0.0510
   32ODT      C  156   1.031   5.716   4.692  0.0518 -0.0441  0.1779
   32ODT      D  157   1.283   5.553   4.977 -0.0225  0.0566  0.1212
   32ODT      C  158   1.326   5.504   5.398  0.0130  0.2167 -0.1618
   32ODT      C  159   1.595   5.577   5.720 -0.1219  0.2765 -0.2865
   32ODT      C  160   2.012   5.710   5.814  0.0962  0.1181 -0.0153
   33ODT      C  161   4.446   6.405   3.909 -0.1061 -0.2970  0.0911
   33ODT      D  162   4.921   6.461   4.049  0.2878 -0.2411 -0.2495
   33ODT      C  163   5.237   6.745   3.895 -0.0373  0.2553  0.2681
   33ODT      C  164   5.229   7.206   3.871  0.2863 -0.2711  0.2234
   33ODT      C  165   5.193   7.370   4.211  0.3232 -0.2451  0.0926
   34ODT      C  166   6.075   6.720   5.898 -0.0030 -0.1748  0.0458
   34ODT      D  167   6.292   6.488   6.208  0.2529 -0.2419  0.3457
   34ODT      C  168   6.448   6.313   6.448  0.0066 -0.3072 -0.1845
   34ODT      C  169   6.792   6.355   6.787  0.3041  0.0814  0.0176
   34ODT      C  170   7.003   6.613   7.008  0.0357 -0.0689  0.0329
   35ODT      C  171   7.348   2.315   5.328 -0.0871  0.2579 -0.1724
   35ODT      D  172   7.343   2.353   4.945 -0.1654  0.2155 -0.0267
   35ODT      C  173   7.465   2.257   4.488 -0.0752  0.3680 -0.1279
   35ODT      C  174   7.790   2.041   4.279  0.0009  0.2005 -0.0745
   35ODT      C  175   8.131   2.007   3.971 -0.1256  0.1348  0.2463
   36ODT      C  176   7.793   2.992   1.332 -0.1480 -0.2091  0.0430
   36ODT      D  177   8.201   3.182   1.523  0.3604  0.1326 -0.1408
   36ODT      C  178   8.573   3.254   1.729 -0.0510  0.1622  0.0431
   36ODT      C  179   8.815   3.549   1.751  0.1109 -0.0852  0.0540
   36ODT      C  180   9.011   3.730   1.430 -0.1253 -0.0792  0.0259
   37ODT      C  181   6.824   3.545   4.246  0.1294  0.3238 -0.0674
   37ODT      D  182   7.010   3.234   4.635  0.2582 -0.3211 -0.0294
   37ODT      C  183   7.224   3.009   4.990 -0.1494 -0.0727 -0.0042
   37ODT      C  184   7.578   2.762   5.169  0.0602  0.3446  0.1107
   37ODT      C  185   7.848   2.533   5.136 -0.1840  0.2233 -0.1823
   38ODT      C  186   1.232   3.940   0.164 -0.2612 -0.2629 -0.2038
   38ODT      D  187   0.949   3.741   0.001 -0.1092 -0.0518 -0.0787
   38ODT      C  188   0.690   3.417  -0.139 -0.1409  0.4641  0.0914
   38ODT      C  189   0.313   3.289  -0.049 -0.0727 -0.1151  0.0918
   38ODT      C  190  -0.051   3.021  -0.043 -0.0656 -0.0554 -0.3022
   39ODT      C  191   0.529   5.878   4.255 -0.0485  0.1335  0.0738
   39ODT      D  192   0.205   5.855   3.996 -0.2000 -0.0251  0.0827
   39ODT      C  193  -0.275   5.742   3.936  0.1197 -0.0730  0.5833
   39ODT      C  194  -0.512   5.324   3.886  0.0712 -0.0891 -0.0421
   39ODT      C  195  -0.941   5.221   3.918  0.0267  0.1834 -0.0532
   40ODT      C  196   6.620   3.744   1.989  0.0666  0.1271  0.0563
   40ODT      D  197   6.147   3.929   1.922 -0.0485 -0.1189  0.0111
   40ODT      C  198   5.867   4.306   1.939  0.0703 -0.1061 -0.0034
   40ODT      C  199   5.588   4.485   1.642 -0.1487 -0.1783 -0.2061
   40ODT      C  200   5.114   4.692   1.716  0.0565  0.0489 -0.2515
   41ODT      C  201   8.743   4.522   7.165  0.0119 -0.1782  0.0869
   41ODT      D  202   8.956   4.276   6.730 -0.0724 -0.0689 -0.0863
   41ODT      C  203   8.966   4.111   6.369 -0.1218  0.0645 -0.0599
   41ODT      C  204   8.772   3.708   6.313 -0.1181 -0.4572  0.0242
   41ODT      C  205   8.433   3.535   5.992 -0.2104  0.2182 -0.4350
   42ODT      C  206   8.902   5.259   5.415  0.1488 -0.2159  0.1186
   42ODT      D  207   8.570   4.854   5.334 -0.0796  0.0091 -0.1212
   42ODT      C  208   8.320   4.630   5.167 -0.0465 -0.0050 -0.3704
   42ODT      C  209   8.213   4.199   5.097  0.0609  0.0484 -0.5308
   42ODT      C  210   8.063   3.696   5.143 -0.3834 -0.1666  0.3136
   43ODT      C  211   7.348   3.283   2.630  0.0877  0.0169  0.1500
   43ODT      D  212   7.729   3.193   2.643 -0.3133 -0.0809 -0.0561
   43ODT      C  213   8.056   3.164   2.400 -0.0494 -0.0465  0.1205
   43ODT      C  214   8.230   2.865   2.119 -0.0822 -0.0222  0.1812
   43ODT      C  215   8.559   2.827   1.938 -0.0425  0.2882 -0.1308
   44ODT      C  216   0.152   5.746   5.148 -0.1690 -0.0492 -0.0366
   44ODT      D  217  -0.141   6.050   5.131 -0.0419  0.0139  0.0901
   44ODT      C  218  -0.502   6.042   4.871  0.1549  0.0560  0.1177
   44ODT      C  219  -0.551   6.127   4.405  0.3785  0.0803 -0.0451
   44ODT      C  220  -0.631   6.093   4.004  0.1448 -0.1804 -0.0024
   45ODT      C  221   0.916   1.467   2.085 -0.1464  0.1963  0.2813
   45ODT      D  222   0.962   1.352   2.510  0.0866  0.2892  0.0606
   45ODT      C  223   0.841   1.133   2.891  0.0083  0.1808  0.0985
   45ODT      C  224   0.615   1.159   3.325 -0.3551  0.5584  0.0071
   45ODT      C  225   0.771   1.406   3.656 -0.2547  0.2455 -0.0395
   46ODT      C  226   1.318   0.754   0.522 -0.1256  0.0931 -0.3906
   46ODT      D  227   1.726   0.590   0.258  0.1656  0.1298  0.4858
   46ODT      C  228   2.062   0.687  -0.052  0.0079 -0.2561 -0.3662
   46ODT      C  229   2.521   0.635  -0.233  0.2099 -0.0026 -0.2094
   46ODT      C  230   2.895   0.653  -0.400  0.1475 -0.0599  0.1493
   47ODT      C  231   0.598   4.312   0.781 -0.3125 -0.0423 -0.0429
   47ODT      D  232   0.361   4.358   0.335  0.0724 -0.1286  0.1891
   47ODT      C  233   0.060   4.572   0.192  0.1995 -0.0015 -0.0872
   47ODT      C  234  -0.415   4.554   0.307 -0.1263 -0.1355  0.1070
   47ODT      C  235  -0.857   4.552   0.548  0.0329 -0.2506  0.1571
   48ODT      C  236   5.959   1.417   2.273 -0.1148  0.0944  0.0259
   48ODT      D  237   6.256   1.100   2.599  0.0793  0.1848 -0.2450
   48ODT      C  238   6.432   0.963   2.863  0.1006  0.0627  0.3394
   48ODT      C  239   6.702   0.663   3.179 -0.1505  0.0147  0.0812
   48ODT      C  240   7.048   0.850   3.460  0.0516  0.0735  0.0077
   49ODT      C  241   8.889   4.076   0.708 -0.1161  0.0949 -0.2102
   49ODT      D  242   8.855   3.712   0.932 -0.1383 -0.2087 -0.1638
   49ODT      C  243   8.561   3.367   1.250 -0.0690  0.0352 -0.0863
   49ODT      C  244   8.298   3.638   1.500 -0.0342 -0.1451 -0.0243
   49ODT      C  245   8.236   4.027   1.659  0.0024 -0.2008 -0.0620
   50ODT      C  246   8.171   2.235   0.824 -0.0294 -0.3006  0.1276
   50ODT      D  247   7.980   2.080   0.430  0.0331 -0.1293 -0.0572
   50ODT      C  248   7.542   2.123   0.315 -0.0947 -0.0920 -0.0311
   50ODT      C  249   7.014   2.216   0.420  0.0482  0.1298  0.0903
   50ODT      C  250   6.545   2.210   0.284  0.1036  0.0355  0.1134
   51ODT      C  251   5.711   3.996   1.034  0.2411 -0.0025 -0.2633
   51ODT      D  252   5.880   4.325   0.932  0.1412 -0.0558 -0.1360
   51ODT      C  253   5.930   4.734   0.647 -0.1902 -0.0156 -0.0334
   51ODT      C  254   5.699   4.880   0.398  0.0205 -0.1839 -0.0771
   51ODT      C  255   5.526   5.323   0.392  0.3784 -0.1451  0.0797
   52ODT      C  256   2.720   6.094   5.242  0.1039  0.1674  0.0397
   52ODT      D  257   2.995   6.206   4.855  0.1316  0.0633  0.0435
   52ODT      C  258   3.169   6.334   4.566  0.0004 -0.0108  0.0281
   52ODT      C  259   3.402   6.293   4.174  0.0181 -0.1198 -0.1607
   52ODT      C  260   3.717   6.357   3.854 -0.2221 -0.0239 -0.2089
   53ODT      C  261   7.681   1.170   3.581  0.1917 -0.0621 -0.3247
   53ODT      D  262   7.340   1.102   3.833 -0.0035 -0.0894 -0.0149
   53ODT      C  263   7.172   0.797   4.090  0.1600 -0.0038 -0.0615
   53ODT      C  264   6.850   0.809   4.252  0.0158  0.1769 -0.1651
   53ODT      C  265   6.592   0.768   4.609 -0.1051  0.1983  0.1371
   54ODT      C  266   1.932   4.231   0.334 -0.2879  0.0007 -0.0865
   54ODT      D  267   1.538   4.342   0.149  0.4518 -0.0051  0.2664
   54ODT      C  268   1.099   4.419   0.030  0.0320 -0.1504  0.0034
   54ODT      C  269   0.808   4.237   0.154  0.0437  0.2066 -0.0247
   54ODT      C  270   0.716   3.915   0.532 -0.2305  0.0207 -0.2641
   55ODT      C  271   1.481   4.071   5.199  0.4788 -0.0523  0.0792
   55ODT      D  272   1.075   3.877   4.995 -0.2422 -0.0668 -0.0251
   55ODT      C  273   0.927   4.117   4.617 -0.0014 -0.1969  0.0235
   55ODT      C  274   0.631   4.335   4.263  0.0033 -0.0738  0.0575
   55ODT      C  275   0.158   4.279   4.041  0.3642 -0.0709  0.0320
   56ODT      C  276   5.617   0.858   6.108 -0.0188 -0.4041 -0.0945
   56ODT      D  277   5.257   0.714   6.170  0.2759 -0.1257  0.2141
   56ODT      C  278   4.930   0.406   6.103  0.0707  0.0027 -0.1541
   56ODT      C  279   4.663   0.137   6.221 -0.3443  0.0367 -0.0152
   56ODT      C  280   4.151   0.105   6.247 -0.0853  0.1732 -0.3282
   57ODT      C  281   7.725   3.293   5.152  0.2677  0.0850 -0.1007
   57ODT      D  282   7.360   3.261   5.382 -0.1198 -0.0653  0.0063
   57ODT      C  283   7.069   3.324   5.693  0.2107 -0.2152 -0.1327
   57ODT      C  284   6.853   3.395   5.979  0.2506 -0.0406 -0.0358
   57ODT      C  285   6.539   3.740   5.945  0.0934  0.0153 -0.2237
   58ODT      C  286   8.289   1.074   0.514  0.0626 -0.1397  0.0911
   58ODT      D  287   8.425   0.891   0.795  0.0982 -0.1772 -0.1794
   58ODT      C  288   8.678   0.598   0.978  0.0101  0.1340  0.1205
   58ODT      C  289   8.763   0.276   1.263  0.0569 -0.1360 -0.1730
   58ODT      C  290   8.428   0.180   1.611  0.0504  0.0687  0.0891
   59ODT      C  291   7.423   5.206   1.298  0.1473  0.0310  0.1282
   59ODT      D  292   7.128   5.569   1.343 -0.1290 -0.2808  0.0924
   59ODT      C  293   6.846   5.851   1.294 -0.4817 -0.2531  0.1213
   59ODT      C  294   6.873   5.933   0.907  0.0207  0.3782 -0.0950
   59ODT      C  295   6.996   5.828   0.436 -0.0867 -0.2934  0.1650
   60ODT      C  296   6.953   1.377   4.745 -0.1420  0.0179 -0.4811
   60ODT      D  297   6.702   1.367   5.030 -0.0410 -0.0536  0.4862
   60ODT      C  298   6.375   1.440   5.413  0.0122  0.1949  0.0826
   60ODT      C  299   6.037   1.398   5.541 -0.2728 -0.0318  0.0017
   60ODT      C  300   5.902   1.035   5.460 -0.0532  0.0822  0.1078
   61ODT      C  301   6.357   6.708   1.776 -0.2405 -0.0561  0.3587
   61ODT      D  302   6.006   6.652   2.051 -0.0290 -0.3800 -0.0562
   61ODT      C  303   5.630   6.586   2.097 -0.0939 -0.0581  0.1853
   61ODT      C  304   5.434   6.287   2.356 -0.0724  0.1226  0.2555
   61ODT      C  305   5.573   6.206   2.748  0.2752  0.1835 -0.0146
   62ODT      C  306   7.902   2.112   6.335  0.0661  0.1141  0.0950
   62ODT      D  307   8.164   2.297   6.569 -0.4563 -0.0781 -0.0507
   62ODT      C  308   8.515   2.419   6.885  0.2191  0.2438  0.2977
   62ODT      C  309   8.551   2.097   7.271 -0.0984 -0.0152  0.3608
   62ODT      C  310   8.396   1.685   7.498  0.0626 -0.1768  0.0011
   63ODT      C  311   6.977   4.405   0.802 -0.0512  0.2094  0.0862
   63ODT      D  312   7.315   4.291   0.530  0.0681 -0.0575  0.0046
   63ODT      C  313   7.696   4.373   0.220  0.1352 -0.1881 -0.0614
   63ODT      C  314   7.818   4.302  -0.190  0.0111  0.0625  0.0579
   63ODT      C  315   7.935   4.211  -0.610 -0.1377 -0.0880 -0.1072
   64ODT      C  316   5.055   1.952   3.248  0.1194  0.1313  0.0093
   64ODT      D  317   4.876   1.844   2.920 -0.2201  0.0677 -0.0431
   64ODT      C  318   4.694   2.034   2.611  0.4968 -0.0296 -0.4192
   64ODT      C  319   4.317   2.215   2.316 -0.0299 -0.0950 -0.1184
   64ODT      C  320   4.020   2.043   2.043 -0.0412 -0.1071  0.2132
   65ODT      C  321   0.387   0.290   0.334 -0.1518 -0.1646  0.5002
   65ODT      D  322   0.325  -0.150   0.377  0.3090 -0.1179  0.0233
   65ODT      C  323  -0.044  -0.376   0.573 -0.0853 -0.0792  0.0929
   65ODT      C  324  -0.417  -0.567   0.461  0.1692  0.0799  0.4102
   65ODT      C  325  -0.627  -0.801   0.267  0.0599  0.2141 -0.1702
   66ODT      C  326   2.123   2.788   3.904  0.0541  0.1260 -0.0139
   66ODT      D  327   1.980   3.181   3.763 -0.1485 -0.0443 -0.3164
   66ODT      C  328   2.061   3.535   3.810 -0.4034  0.0173 -0.4593
   66ODT      C  329   2.343   3.819   4.034  0.1610  0.0460 -0.3093
   66ODT      C  330   2.717   3.836   4.371  0.2053  0.0085  0.2020
   67ODT      C  331   6.813   0.611   6.900  0.1070 -0.0785  0.0811
   67ODT      D  332   7.144   0.818   6.788  0.1540 -0.2585 -0.3005
   67ODT      C  333   7.487   1.105   6.692 -0.0571  0.0161  0.0304
   67ODT      C  334   7.914   1.153   6.805  0.2139  0.1067 -0.0442
   67ODT      C  335   8.427   1.163   6.726  0.2019  0.1817 -0.1055
   68ODT      C  336   5.426   3.014   3.735  0.0852 -0.4388  0.0729
   68ODT      D  337   5.475   2.811   4.242 -0.2725  0.1121  0.2693
   68ODT      C  338   5.308   2.589   4.508 -0.0719 -0.0262  0.3149
   68ODT      C  339   5.376   2.317   4.839  0.0432  0.0284  0.1330
   68ODT      C  340   5.684   2.212   5.015 -0.0653 -0.0554  0.2295
   69ODT      C  341   6.005   6.033   6.432 -0.1282 -0.2102  0.0115
   69ODT      D  342   5.879   5.880   6.770  0.3962  0.1219  0.0202
   69ODT      C  343   5.634   5.700   6.975 -0.2192  0.1097  0.2225
   69ODT      C  344   5.419   5.365   6.790 -0.0242  0.0901 -0.0478
   69ODT      C  345   5.202   5.015   6.481  0.2345  0.0039 -0.2599
   70ODT      C  346   5.960   0.755   2.744  0.2383  0.0305 -0.1892
   70ODT      D  347   5.785   0.958   2.439  0.1706  0.1996 -0.0207
   70ODT      C  348   5.719   1.003   2.076 -0.0314 -0.2707 -0.1341
   70ODT      C  349   5.462   0.835   1.685 -0.4446  0.3583  0.1170
   70ODT      C  350   4.974   0.899   1.623  0.1869  0.0255  0.1593
   71ODT      C  351   2.718   6.584   2.263 -0.1375  0.1061  0.0320
   71ODT      D  352   2.631   6.571   1.882  0.0923  0.1656 -0.1850
   71ODT      C  353   2.498   6.889   1.559 -0.1350 -0.0739 -0.3097
   71ODT      C  354   2.211   7.063   1.598 -0.1736 -0.0719  0.2076
   71ODT      C  355   2.014   7.375   1.562  0.2206 -0.3194 -0.1473
   72ODT      C  356   4.080   5.211   3.891 -0.1769  0.0477 -0.0025
   72ODT      D  357   4.298   4.792   3.974  0.1935 -0.0195 -0.1923
   72ODT      C  358   4.692   4.513   3.877 -0.0507  0.1425  0.2447
   72ODT      C  359   5.061   4.466   4.181 -0.0019  0.0713 -0.1242
   72ODT      C  360   5.475   4.478   4.167  0.2021 -0.0752 -0.1414
   73ODT      C  361   4.107   5.907   6.386  0.1409 -0.1724 -0.3387
   73ODT      D  362   4.258   6.312   6.552  0.0709 -0.2052  0.4153
   73ODT      C  363   4.588   6.589   6.677 -0.0544  0.1504 -0.0635
   73ODT      C  364   4.861   6.857   6.883 -0.0585 -0.0240  0.1490
   73ODT      C  365   5.045   7.023   7.373 -0.1071  0.1022  0.0971
   74ODT      C  366   6.769   1.251   1.829 -0.1332 -0.5358  0.0412
   74ODT      D  367   6.567   1.520   2.197 -0.0551  0.0377 -0.0555
   74ODT      C  368   6.592   1.458   2.593 -0.0066  0.0522 -0.1192
   74ODT      C  369   6.516   1.472   3.019 -0.1360 -0.0896 -0.3902
   74ODT      C  370   6.253   1.578   3.393 -0.0868 -0.1976  0.0888
   75ODT      C  371   6.358   2.332   1.320  0.0453  0.0296 -0.1274
   75ODT      D  372   6.336   1.946   1.081 -0.1890 -0.1313 -0.0103
   75ODT      C  373   6.032   1.780   0.816 -0.0744  0.0908 -0.3106
   75ODT      C  374   5.638   2.025   0.723 -0.0982 -0.4909 -0.0465
   75ODT      C  375   5.357   2.163   0.478 -0.0922 -0.0386  0.0972
   76ODT      C  376   1.495   3.350   0.787 -0.3721  0.0506 -0.1473
   76ODT      D  377   1.342   3.055   1.158  0.0909 -0.2402 -0.3533
   76ODT      C  378   1.044   3.079   1.555  0.1431  0.3389  0.0069
   76ODT      C  379   0.735   2.712   1.863  0.0694  0.0333 -0.0849
   76ODT      C  380   0.441   2.357   1.702 -0.3733 -0.0389  0.2212
   77ODT      C  381   0.268   2.716   2.106 -0.1418 -0.0696 -0.4744
   77ODT      D  382   0.138   2.752   1.680 -0.0183 -0.3521  0.0888
   77ODT      C  383   0.127   2.689   1.178 -0.0583 -0.1126  0.0635
   77ODT      C  384   0.190   2.473   0.795 -0.1562  0.0169 -0.1277
   77ODT      C  385   0.099   2.198   0.492  0.0470  0.1087  0.3872
   78ODT      C  386   6.698   5.754   4.168 -0.2644  0.2428  0.0217
   78ODT      D  387   6.739   5.397   4.140 -0.1707 -0.2036  0.0895
   78ODT      C  388   6.763   5.038   3.833 -0.1716 -0.0405 -0.2751
   78ODT      C  389   6.460   4.699   3.781  0.0108  0.1893  0.2749
   78ODT      C  390   6.241   4.251   3.637 -0.0186  0.0898 -0.1028
   79ODT      C  391   6.599   2.819   5.719  0.1908  0.3276 -0.1356
   79ODT      D  392   6.965   2.846   5.998  0.0613  0.1699 -0.1555
   79ODT      C  393   7.230   2.780   6.422 -0.0284 -0.4712  0.0843
   79ODT      C  394   7.355   2.836   6.853 -0.3214 -0.0771  0.1178
   79ODT      C  395   7.732   2.738   7.103  0.3061 -0.0746 -0.3716
   80ODT      C  396   9.360   0.711   1.098 -0.1325 -0.1722 -0.0161
   80ODT      D  397   9.781   0.575   1.247 -0.1130  0.0129 -0.1751
   80ODT      C  398  10.047   0.288   1.413 -0.0328 -0.1592  0.1017
   80ODT      C  399  10.151   0.058   1.805 -0.0016 -0.3297 -0.1458
   80ODT      C  400  10.360  -0.053   2.140 -0.0416 -0.1508  0.0434
   81ODT      C  401   8.922   1.299   2.946 -0.6533 -0.2249  0.4683
   81ODT      D  402   8.739   1.111   2.525 -0.1014 -0.0970 -0.1066
   81ODT      C  403   8.354   0.900   2.440 -0.1741 -0.0653 -0.2214
   81ODT      C  404   8.267   0.484   2.597  0.2401  0.0038 -0.1947
   81ODT      C  405   8.508   0.254   2.815  0.0235 -0.2132 -0.0201
   82ODT      C  406   5.303   2.104   6.823  0.1980 -0.2084 -0.0139
   82ODT      D  407   5.296   1.760   7.209  0.1309  0.1618 -0.1303
   82ODT      C  408   5.077   1.699   7.638 -0.3427  0.2162 -0.0824
   82ODT      C  409   4.722   1.432   7.740  0.0154  0.0936  0.0043
   82ODT      C  410   4.297   1.367   7.671  0.2809 -0.1430 -0.1450
   83ODT      C  411   2.481   5.845   5.587 -0.1236  0.2744  0.0650
   83ODT      D  412   2.925   5.737   5.539 -0.4369 -0.0488 -0.0439
   83ODT      C  413   3.302   5.716   5.606 -0.3652  0.2458 -0.3935
   83ODT      C  414   3.733   5.969   5.592 -0.1828 -0.2120 -0.0294
   83ODT      C  415   3.871   6.223   5.931  0.1730  0.0682  0.2076
   84ODT      C  416   3.262   5.572   3.506  0.0638 -0.3015  0.1893
   84ODT      D  417   3.156   5.548   3.831 -0.0035 -0.0104 -0.1834
   84ODT      C  418   3.056   5.175   4.241  0.0302  0.3740  0.0364
   84ODT      C  419   2.893   4.957   4.520 -0.1379 -0.1757  0.3587
   84ODT      C  420   2.878   4.878   4.918  0.1016  0.2605 -0.2470
   85ODT      C  421   8.404   3.585   0.860  0.1722 -0.1006  0.1602
   85ODT      D  422   8.715   3.620   0.455 -0.0364 -0.2057  0.3472
   85ODT      C  423   8.875   3.296   0.227  0.0801  0.1085 -0.2076
   85ODT      C  424   9.065   2.905   0.253 -0.1723  0.2087  0.3623
   85ODT      C  425   9.416   2.567   0.286  0.0611  0.2047 -0.0253
   86ODT      C  426   7.142   5.401   3.843  0.2406 -0.0975 -0.1968
   86ODT      D  427   6.900   5.630   3.614 -0.2015  0.2784  0.0560
   86ODT      C  428   6.611   5.764   3.319  0.0664 -0.1781 -0.1205
   86ODT      C  429   6.389   5.534   3.169 -0.1042  0.0829  0.0503
   86ODT      C  430   6.546   5.181   3.368  0.0839  0.2106 -0.1169
   87ODT      C  431   7.595   6.040   2.972 -0.4036  0.2005  0.0815
   87ODT      D  432   7.930   6.128   2.991 -0.3507  0.3330 -0.0270
   87ODT      C  433   8.202   6.326   3.081  0.2822 -0.1800  0.1590
   87ODT      C  434   8.589   6.375   3.146 -0.0635 -0.0334  0.1946
   87ODT      C  435   8.967   6.454   3.398  0.2083  0.0224 -0.1908
   88ODT      C  436   8.287   2.070   3.489  0.1296  0.1059  0.0037
   88ODT      D  437   7.863   2.195   3.578 -0.0860 -0.0097  0.1599
   88ODT      C  438   7.682   2.390   3.751 -0.1171  0.2806  0.0303
   88ODT      C  439   7.850   2.510   4.151 -0.2179  0.0735  0.3206
   88ODT      C  440   8.249   2.373   4.270 -0.1176 -0.1702  0.1683
   89ODT      C  441   9.217   1.692   1.314 -0.1593  0.0901  0.1024
   89ODT      D  442   9.540   1.551   1.126  0.1245  0.0072  0.0700
   89ODT      C  443   9.947   1.580   1.219  0.0313  0.1851  0.1189
   89ODT      C  444  10.301   1.757   0.999  0.0977  0.1422 -0.3014
   89ODT      C  445  10.344   1.787   0.543  0.2008  0.3966 -0.0549
   90ODT      C  446   5.159   3.833   5.920  0.1599 -0.0731  0.0072
   90ODT      D  447   5.121   3.830   5.432  0.0171  0.1311  0.0570
   90ODT      C  448   5.161   3.578   5.129 -0.2236 -0.0629  0.2810
   90ODT      C  449   5.435   3.288   5.042 -0.1709 -0.0552  0.1513
   90ODT      C  450   5.370   2.806   4.936 -0.3387 -0.0783 -0.0986
   91ODT      C  451   2.795   6.401   3.663  0.0263  0.0054 -0.0836
   91ODT      D  452   2.997   6.549   3.319 -0.2422 -0.1223 -0.2347
   91ODT      C  453   3.294   6.840   3.297  0.0177  0.3932 -0.0193
   91ODT      C  454   3.408   7.137   3.542  0.0448 -0.0435 -0.3903
   91ODT      C  455   3.673   7.381   3.585 -0.0275 -0.0920  0.1934
   92ODT      C  456   2.100   2.156   5.590  0.1104 -0.1101  0.1678
   92ODT      D  457   1.757   1.916   5.593  0.0106  0.0029  0.2028
   92ODT      C  458   1.611   1.585   5.793 -0.1634 -0.1531  0.1150
   92ODT      C  459   1.246   1.387   5.798 -0.0893  0.0627 -0.2121
   92ODT      C  460   1.001   1.046   5.841 -0.1449  0.0620 -0.0911
   93ODT      C  461   4.384   1.077   6.742 -0.0140 -0.0102 -0.1883
   93ODT      D  462   4.454   0.575   6.828 -0.0594 -0.4565 -0.1550
   93ODT      C  463   4.644   0.159   6.765 -0.2018 -0.0815 -0.1955
   93ODT      C  464   4.412  -0.122   6.669  0.2227  0.1150 -0.0200
   93ODT      C  465   4.137  -0.380   6.457 -0.0748  0.2993 -0.0264
   94ODT      C  466   2.625   1.539   4.422 -0.1025 -0.0109 -0.1762
   94ODT      D  467   2.537   1.176   4.668 -0.2749  0.2644 -0.3773
   94ODT      C  468   2.361   0.743   4.759  0.0662 -0.0844  0.1042
   94ODT      C  469   2.405   0.277   4.713 -0.0314 -0.0698 -0.3774
   94ODT      C  470   2.423  -0.223   4.740 -0.1543 -0.2522  0.3518
   95ODT      C  471   5.953   1.968   5.912 -0.1240  0.2083 -0.2996
   95ODT      D  472   5.790   1.620   5.975 -0.2101  0.2870  0.2282
   95ODT      C  473   5.569   1.281   5.706  0.2275  0.2186  0.0084
   95ODT      C  474   5.242   0.989   5.779 -0.1287 -0.2109 -0.0374
   95ODT      C  475   4.941   0.797   5.748 -0.2165  0.0581 -0.0359
   96ODT      C  476   5.884   1.176   3.557 -0.2327  0.2657  0.1078
   96ODT      D  477   5.739   1.490   3.402 -0.0352  0.0457 -0.2059
   96ODT      C  478   5.760   1.681   3.059  0.0251 -0.1170  0.0896
   96ODT      C  479   6.122   1.743   2.885 -0.2384 -0.4029  0.0114
   96ODT      C  480   6.326   1.829   2.519  0.0369  0.1598  0.0595
   97ODT      C  481   5.036   6.177   3.669  0.0460  0.0803 -0.1495
   97ODT      D  482   5.399   6.378   3.548  0.0401 -0.0160 -0.1658
   97ODT      C  483   5.595   6.863   3.526  0.1978 -0.1151 -0.4284
   97ODT      C  484   5.719   7.190   3.270 -0.2107  0.0346 -0.2443
   97ODT      C  485   5.857   7.594   3.201 -0.0577 -0.1555  0.0441
   98ODT      C  486   3.532   6.858   4.506 -0.0703  0.0150  0.1892
   98ODT      D  487   3.927   7.140   4.609 -0.2653 -0.2159 -0.0614
   98ODT      C  488   4.182   7.461   4.920 -0.0181 -0.2137  0.1422
   98ODT      C  489   4.560   7.446   5.078  0.1617 -0.0860 -0.1119
   98ODT      C  490   5.029   7.463   5.089  0.2818  0.0867  0.2275
   99ODT      C  491   2.283   2.956   4.883  0.1676  0.1015  0.2365
   99ODT      D  492   2.229   2.776   5.248 -0.2043 -0.1749 -0.0322
   99ODT      C  493   2.027   2.629   5.629 -0.1190 -0.0852 -0.0140
   99ODT      C  494   2.290   2.698   6.008  0.3968 -0.1538 -0.4309
   99ODT      C  495   2.652   2.535   6.237 -0.1366  0.2278 -0.0403
  100ODT      C  496   4.610   0.669   4.819  0.0109  0.1308 -0.0995
  100ODT      D  497   4.358   0.718   4.543  0.1894  0.0222 -0.0204
  100ODT      C  498   4.337   0.789   4.141 -0.0267  0.0630  0.3671
  100ODT      C  499   4.638   0.721   3.808 -0.0327 -0.0292  0.0599
  100ODT      C  500   5.057   0.679   3.884 -0.0552  0.0935 -0.1233
  101ODT      C  501   0.596   4.392   5.563  0.0977 -0.0339 -0.1304
  101ODT      D  502   0.874   4.752   5.483 -0.1269  0.1651  0.1394
  101ODT      C  503   1.205   4.967   5.492 -0.0885 -0.3377 -0.1268
  101ODT      C  504   1.521   5.068   5.180 -0.3535  0.1074  0.0259
  101ODT      C  505   1.694   5.263   4.837 -0.1296 -0.0800  0.1049
  102ODT      C  506   9.460   6.724   5.059  0.3373  0.0447  0.1695
  102ODT      D  507   9.181   6.620   5.404  0.0366  0.0716  0.0626
  102ODT      C  508   8.849   6.500   5.571 -0.1999  0.0721  0.1595
  102ODT      C  509   8.699   6.145   5.286  0.1069 -0.1711  0.4007
  102ODT      C  510   8.546   6.280   4.785  0.2978 -0.0449 -0.0915
  103ODT      C  511   3.707   2.780   0.742  0.0602 -0.2016  0.1052
  103ODT      D  512   3.947   3.103   0.869 -0.3806 -0.0442  0.0993
  103ODT      C  513   4.116   3.325   1.070  0.3471  0.1975  0.0036
  103ODT      C  514   4.437   3.588   1.008 -0.5122 -0.2594  0.1786
  103ODT      C  515   4.567   4.034   1.031  0.0921  0.0067  0.0020
  104ODT      C  516   6.798   2.634   6.881 -0.1324 -0.3357  0.1337
  104ODT      D  517   7.073   2.338   6.585 -0.0232 -0.1649  0.0926
  104ODT      C  518   7.357   2.031   6.511  0.0554  0.0842 -0.1508
  104ODT      C  519   7.738   1.660   6.511 -0.1628 -0.0817 -0.1163
  104ODT      C  520   8.165   1.601   6.641 -0.2670  0.0281  0.1242
  105ODT      C  521   1.163   0.827   3.617 -0.0190 -0.1772 -0.1680
  105ODT      D  522   1.225   1.222   3.875  0.1857  0.1487  0.2449
  105ODT      C  523   1.371   1.454   4.237 -0.4757  0.0136 -0.0249
  105ODT      C  524   1.761   1.321   4.413  0.0478  0.0799 -0.0485
  105ODT      C  525   2.105   1.029   4.394  0.0830 -0.0438 -0.3367
  106ODT      C  526   4.531   2.494   0.091  0.0510  0.1659  0.0841
  106ODT      D  527   4.129   2.258   0.215 -0.1003  0.1073  0.1995
  106ODT      C  528   3.781   2.125   0.143  0.1548 -0.0401  0.1879
  106ODT      C  529   3.464   1.842   0.019  0.0695 -0.2065  0.2748
  106ODT      C  530   2.993   1.778   0.025 -0.0264 -0.1592  0.0311
  107ODT      C  531   2.320   5.080   2.227  0.1117 -0.1617  0.2255
  107ODT      D  532   2.480   4.666   2.023 -0.3147 -0.0477 -0.0587
  107ODT      C  533   2.672   4.339   2.068  0.3199 -0.4164  0.3003
  107ODT      C  534   2.941   4.234   2.362  0.1430 -0.0773 -0.2187
  107ODT      C  535   3.314   3.995   2.332 -0.1072  0.1385 -0.0902
  108ODT      C  536   3.327   4.078   5.230  0.3703  0.1682 -0.0323
  108ODT      D  537   3.540   4.255   5.447  0.0311 -0.0056 -0.0647
  108ODT      C  538   3.668   4.324   5.832 -0.2715 -0.0903  0.2373
  108ODT      C  539   3.938   4.475   6.242  0.1712 -0.1114  0.0106
  108ODT      C  540   4.346   4.702   6.449 -0.0324  0.2887  0.0058
  109ODT      C  541   6.240   0.929   6.752  0.3554  0.0912  0.0637
  109ODT      D  542   6.569   0.857   6.529 -0.1239 -0.0699  0.2261
  109ODT      C  543   6.848   0.607   6.413 -0.0349 -0.0086 -0.1364
  109ODT      C  544   7.322   0.567   6.408  0.0231 -0.0683  0.2438
  109ODT      C  545   7.784   0.616   6.634  0.3863  0.0927 -0.2572
  110ODT      C  546   1.601   0.164   4.337 -0.1842  0.0784 -0.3639
  110ODT      D  547   1.691  -0.258   4.154 -0.0134 -0.0145 -0.1530
  110ODT      C  548   1.581  -0.700   4.079  0.4783  0.0832  0.0240
  110ODT      C  549   1.893  -0.867   3.663 -0.0001 -0.2049  0.0705
  110ODT      C  550   2.308  -0.903   3.579  0.1451 -0.2428 -0.1431
  111ODT      C  551   9.249   4.392   7.093  0.3238 -0.1194  0.1231
  111ODT      D  552   9.202   4.099   7.501  0.0459 -0.0175 -0.0387
  111ODT      C  553   9.184   3.724   7.742 -0.2207 -0.3207  0.1255
  111ODT      C  554   9.065   3.340   7.868  0.0003 -0.0061  0.0745
  111ODT      C  555   9.331   3.022   8.119  0.1815  0.0490  0.1368
  112ODT      C  556   4.765   3.656   3.572 -0.2122  0.0128 -0.0196
  112ODT      D  557   4.721   3.824   3.146  0.5853  0.0724 -0.0702
  112ODT      C  558   4.947   3.985   2.765  0.0299  0.0261 -0.1955
  112ODT      C  559   5.291   4.267   2.597 -0.0813 -0.0052  0.0581
  112ODT      C  560   5.450   4.481   2.337 -0.2644 -0.0918  0.0859
  113ODT      C  561   5.279   0.192   1.997 -0.2554  0.0921 -0.2174
  113ODT      D  562   5.686   0.394   2.094 -0.0529  0.2442  0.2787
  113ODT      C  563   6.016   0.544   2.287 -0.1238  0.0893  0.1316
  113ODT      C  564   6.190   0.880   2.204  0.2483  0.3964  0.0876
  113ODT      C  565   6.280   1.190   2.009 -0.1008 -0.0308 -0.0014
  114ODT      C  566   1.339   6.321   1.142  0.1056  0.5372  0.0667
  114ODT      D  567   1.206   6.448   1.436 -0.3583  0.0260  0.0475
  114ODT      C  568   0.953   6.690   1.753  0.2652  0.1745  0.0227
  114ODT      C  569   0.763   6.645   2.088  0.0084  0.2958 -0.1454
  114ODT      C  570   0.308   6.505   2.270 -0.1126 -0.1988 -0.0025
  115ODT      C  571   8.474   6.554   1.132 -0.0005  0.1746  0.0090
  115ODT      D  572   8.556   6.340   0.720 -0.1971  0.0421 -0.2845
  115ODT      C  573   8.588   5.996   0.510  0.4181  0.0747 -0.3517
  115ODT      C  574   8.496   5.583   0.449  0.0612 -0.0735  0.1791
  115ODT      C  575   8.550   5.429  -0.058 -0.2519 -0.0775  0.1149
  116ODT      C  576   1.159   7.007   0.719  0.0662 -0.0384 -0.1056
  116ODT      D  577   1.507   6.973   0.447  0.0382  0.1177 -0.0377
  116ODT      C  578   1.559   6.944  -0.025  0.1050  0.1412  0.0834
  116ODT      C  579   1.630   7.133  -0.373 -0.1713  0.0284 -0.0735
  116ODT      C  580   1.704   7.352  -0.731  0.2897 -0.0504  0.0302
  117ODT      C  581   7.590   0.149   0.005 -0.2134 -0.3238 -0.4515
  117ODT      D  582   7.748  -0.323  -0.033  0.1951  0.2281 -0.1303
  117ODT      C  583   7.826  -0.735   0.154 -0.1877  0.1897 -0.1614
  117ODT      C  584   7.784  -1.014  -0.024 -0.0370  0.2212  0.0457
  117ODT      C  585   7.809  -1.450  -0.068 -0.0646  0.2520  0.1892
  118ODT      C  586   3.569   6.123   1.057  0.2183  0.0042 -0.0923
  118ODT      D  587   3.344   5.971   0.777  0.0113  0.0224 -0.0766
  118ODT      C  588   3.337   5.948   0.325 -0.0108  0.2032  0.0261
  118ODT      C  589   3.361   6.129  -0.132 -0.2988  0.0711  0.1099
  118ODT      C  590   3.105   6.232  -0.413  0.0159 -0.0924  0.0517
  119ODT      C  591   1.840   3.339   4.772  0.1755  0.1269  0.0717
  119ODT      D  592   1.637   3.561   5.117 -0.0342 -0.1031 -0.1033
  119ODT      C  593   1.638   3.710   5.543  0.2583 -0.3200  0.1224
  119ODT      C  594   1.680   4.221   5.619 -0.2919 -0.1335  0.2577
  119ODT      C  595   1.341   4.456   5.542 -0.0774 -0.0916  0.0833
  120ODT      C  596   9.391   6.397   2.765  0.0335 -0.2652 -0.3883
  120ODT      D  597   9.017   6.182   2.781 -0.1555 -0.1836 -0.0041
  120ODT      C  598   8.731   5.942   3.014 -0.1610 -0.2300  0.0719
  120ODT      C  599   8.293   5.800   2.897  0.0222 -0.1724 -0.2193
  120ODT      C  600   8.143   5.485   2.504  0.0388 -0.0895  0.0169
  121ODT      C  601   8.681   6.596   6.166  0.0689 -0.0790  0.2596
  121ODT      D  602   8.826   7.012   6.087 -0.0778  0.1042  0.1012
  121ODT      C  603   8.748   7.384   5.940  0.1102  0.1775 -0.0233
  121ODT      C  604   8.740   7.783   5.778  0.1587 -0.1102  0.0572
  121ODT      C  605   8.750   8.218   5.718 -0.2316  0.3320  0.1336
  122ODT      C  606   5.976   6.281   2.438 -0.4329 -0.2355 -0.0066
  122ODT      D  607   6.105   6.361   2.866  0.1812 -0.1230 -0.2183
  122ODT      C  608   6.327   6.183   3.111  0.1406 -0.1831  0.0763
  122ODT      C  609   6.140   5.989   3.449  0.0037  0.0858  0.0146
  122ODT      C  610   5.817   6.098   3.711 -0.0600  0.1099  0.1579
  123ODT      C  611   1.480   0.982   7.046 -0.1811 -0.2643  0.0007
  123ODT      D  612   1.481   1.427   7.202  0.0582  0.1201  0.2740
  123ODT      C  613   1.343   1.662   7.619  0.2863 -0.0670  0.0209
  123ODT      C  614   1.249   1.475   7.923  0.1243 -0.0721 -0.1060
  123ODT      C  615   1.392   1.128   8.134 -0.0035  0.0889  0.4369
  124ODT      C  616   8.010   6.451   6.505  0.0659 -0.0111  0.0704
  124ODT      D  617   7.768   6.007   6.596  0.1247 -0.2040  0.0281
  124ODT      C  618   7.565   5.611   6.632  0.0421 -0.2636  0.3506
  124ODT      C  619   7.124   5.519   6.725 -0.0274 -0.0574  0.1254
  124ODT      C  620   6.856   5.607   7.147  0.2462  0.4103 -0.0857
  125ODT      C  621   1.651   0.575   2.295  0.1479 -0.0221  0.0147
  125ODT      D  622   1.938   0.239   2.356 -0.0065  0.0510  0.2580
  125ODT      C  623   1.881  -0.184   2.353 -0.2781 -0.0155  0.0152
  125ODT      C  624   1.722  -0.644   2.307 -0.2876 -0.0594  0.3124
  125ODT      C  625   1.911  -1.019   2.047  0.0884 -0.0744  0.1765
  126ODT      C  626   2.710   6.657   6.110  0.1969 -0.0428 -0.1426
  126ODT      D  627   2.403   6.513   6.354  0.2162  0.2586  0.1114
  126ODT      C  628   2.072   6.208   6.514 -0.1314 -0.0321  0.5075
  126ODT      C  629   1.888   6.095   6.917  0.3499  0.0435 -0.0705
  126ODT      C  630   1.599   6.246   7.259  0.2161  0.1175  0.2170
  127ODT      C  631   7.178   0.432   7.119 -0.0320  0.1040 -0.2447
  127ODT      D  632   7.056   0.352   7.523  0.1582  0.0357 -0.1238
  127ODT      C  633   6.815   0.421   7.994 -0.0997 -0.2627  0.3536
  127ODT      C  634   6.582   0.284   8.356  0.3053  0.1837 -0.2770
  127ODT      C  635   6.455   0.203   8.755 -0.1928 -0.2682  0.0691
  128ODT      C  636   2.243   6.080   6.114  0.1102  0.1730  0.0677
  128ODT      D  637   2.502   6.310   5.854 -0.2235 -0.0272 -0.0916
  128ODT      C  638   2.864   6.278   5.753 -0.1075 -0.1360 -0.0613
  128ODT      C  639   3.124   6.214   5.429  0.0479 -0.0288 -0.0137
  128ODT      C  640   3.376   6.116   5.237  0.0628  0.0063  0.3131
  129ODT      C  641   2.267   1.791   0.358 -0.0838  0.1920  0.0115
  129ODT      D  642   2.035   2.062   0.553 -0.0462  0.2004  0.0836
  129ODT      C  643   1.619   2.130   0.691 -0.0337  0.1508  0.0939
  129ODT      C  644   1.441   2.367   1.086  0.3521  0.2170  0.0727
  129ODT      C  645   1.452   2.251   1.594 -0.0619  0.0391 -0.0811
  130ODT      C  646   7.287   5.031   4.960  0.1982 -0.0508  0.1105
  130ODT      D  647   7.279   5.432   5.112 -0.2910  0.2373 -0.0425
  130ODT      C  648   7.450   5.827   5.313 -0.1007  0.0508 -0.2268
  130ODT      C  649   7.793   5.919   5.385 -0.1985  0.1329 -0.1707
  130ODT      C  650   8.094   6.119   5.564 -0.0159 -0.2414 -0.1701
  131ODT      C  651   5.707   7.157   6.673  0.2058 -0.2012  0.3255
  131ODT      D  652   5.905   6.918   6.867  0.2542  0.0612  0.1258
  131ODT      C  653   5.989   6.752   7.312 -0.0185  0.2883  0.0868
  131ODT      C  654   5.910   6.607   7.674  0.0539  0.0894 -0.0308
  131ODT      C  655   5.824   6.633   8.085  0.3747  0.1545 -0.3553
  132ODT      C  656   5.243   1.672   4.727  0.0951  0.1570 -0.2668
  132ODT      D  657   5.123   1.486   4.358  0.1105  0.0800 -0.0060
  132ODT      C  658   4.900   1.216   4.026 -0.1354  0.0638 -0.1642
  132ODT      C  659   4.508   1.234   3.942  0.2982 -0.0252  0.2484
  132ODT      C  660   4.065   1.073   3.835 -0.0236 -0.2006  0.1022
  133ODT      C  661   4.376   1.954   7.018 -0.1719  0.0514  0.1324
  133ODT      D  662   4.052   1.711   7.208 -0.1371 -0.1124 -0.1596
  133ODT      C  663   3.856   1.412   7.410  0.0268  0.2365  0.0879
  133ODT      C  664   3.966   1.053   7.685 -0.0908 -0.3147 -0.1434
  133ODT      C  665   3.893   0.711   7.933  0.0246 -0.1702 -0.1899
  134ODT      C  666   1.085   0.789   1.022  0.0418  0.2563 -0.0295
  134ODT      D  667   1.520   0.594   0.923 -0.2071 -0.2313 -0.2009
  134ODT      C  668   1.910   0.603   0.778 -0.0988 -0.1253 -0.0792
  134ODT      C  669   2.191   0.748   0.453  0.0253  0.2740 -0.3272
  134ODT      C  670   2.483   0.881   0.331  0.0634  0.1707 -0.0777
  135ODT      C  671   2.734   0.184   5.517 -0.2328  0.2118 -0.1926
  135ODT      D  672   2.501   0.074   5.189  0.0806 -0.0387 -0.1669
  135ODT      C  673   2.296  -0.289   5.239 -0.1956 -0.1338 -0.0737
  135ODT      C  674   2.427  -0.644   5.330 -0.3222  0.0018 -0.2526
  135ODT      C  675   2.136  -0.973   5.482  0.0984 -0.1467  0.0473
  136ODT      C  676   1.319   2.427   2.550  0.1151  0.0728  0.2441
  136ODT      D  677   1.558   2.584   2.202  0.0297  0.3109 -0.0627
  136ODT      C  678   1.723   2.995   2.002  0.2687  0.0924 -0.1202
  136ODT      C  679   2.116   3.200   1.918 -0.0477 -0.0355  0.0944
  136ODT      C  680   2.254   3.474   1.567  0.0107  0.1569  0.1343
  137ODT      C  681   7.704   1.490   2.641 -0.0932 -0.1499 -0.3065
  137ODT      D  682   7.810   1.368   3.055 -0.1288 -0.1169 -0.1757
  137ODT      C  683   8.033   0.958   3.126  0.1294  0.1755 -0.0559
  137ODT      C  684   8.180   0.579   3.116  0.1893 -0.0600  0.2759
  137ODT      C  685   8.498   0.246   3.438 -0.0994 -0.0496  0.0311
  138ODT      C  686   4.078   5.124   0.556  0.2169 -0.1231 -0.1146
  138ODT      D  687   4.210   4.811   0.327  0.3125 -0.2593  0.0332
  138ODT      C  688   4.097   4.373   0.108 -0.0649 -0.0895  0.2495
  138ODT      C  689   4.046   3.906   0.308  0.1355  0.1749  0.0240
  138ODT      C  690   3.970   3.631   0.666  0.0366  0.0941 -0.0983
  139ODT      C  691   9.193   5.558   0.227 -0.1485 -0.0788  0.0641
  139ODT      D  692   9.397   5.893   0.461  0.1128 -0.0136  0.1861
  139ODT      C  693   9.594   6.259   0.424 -0.0838 -0.3036 -0.0943
  139ODT      C  694   9.856   6.548   0.343 -0.2297 -0.1491 -0.0498
  139ODT      C  695  10.275   6.650   0.425  0.2640 -0.2199  0.1282
  140ODT      C  696   4.305   5.966   5.982  0.1923  0.0426 -0.0303
  140ODT      D  697   4.315   6.397   6.056  0.1601 -0.0752  0.1628
  140ODT      C  698   4.416   6.846   6.071  0.0670  0.1125 -0.1329
  140ODT      C  699   4.396   7.255   5.768 -0.0702 -0.0054  0.1354
  140ODT      C  700   4.487   7.735   5.903  0.0180  0.1236  0.2719
  141ODT      C  701   6.154   5.706   5.586  0.3198  0.3007  0.1748
  141ODT      D  702   5.874   5.569   5.292 -0.1914  0.0180 -0.3576
  141ODT      C  703   5.584   5.163   5.050  0.0199 -0.1144  0.0258
  141ODT      C  704   5.161   5.100   4.975  0.0187  0.0367 -0.1962
  141ODT      C  705   4.805   5.070   4.613  0.2260 -0.0826 -0.2703
  142ODT      C  706   4.843   6.293   2.235  0.0235  0.0679 -0.1843
  142ODT      D  707   4.609   6.215   1.862  0.0156 -0.0919  0.1562
  142ODT      C  708   4.341   6.431   1.653  0.0838 -0.0292  0.1241
  142ODT      C  709   4.303   6.634   1.215 -0.0899  0.1657  0.2706
  142ODT      C  710   4.460   6.943   0.963 -0.1829  0.0964 -0.0674
  143ODT      C  711   3.749   7.140   1.208  0.0386 -0.2124 -0.0376
  143ODT      D  712   4.096   7.068   1.382 -0.2241  0.0615  0.2630
  143ODT      C  713   4.438   6.931   1.632 -0.3746  0.1459  0.2962
  143ODT      C  714   4.823   6.707   1.759  0.0362  0.1434  0.1752
  143ODT      C  715   5.159   6.371   1.878 -0.1524  0.1644  0.3140
  144ODT      C  716   7.217   5.277   0.867  0.0693 -0.3356  0.0032
  144ODT      D  717   7.291   5.000   0.579 -0.0571 -0.1216  0.0911
  144ODT      C  718   7.383   4.845   0.220  0.0850 -0.1816  0.0409
  144ODT      C  719   7.545   4.731  -0.138  0.0265 -0.1890  0.0143
  144ODT      C  720   7.914   4.734  -0.418  0.1784  0.0594 -0.0827
  145ODT      C  721   5.026   2.982   2.442  0.0562  0.0296 -0.1422
  145ODT      D  722   4.617   2.787   2.313  0.0577 -0.0896  0.0714
  145ODT      C  723   4.292   2.586   2.023 -0.0103 -0.0638 -0.0572
  145ODT      C  724   3.929   2.811   1.753  0.0793 -0.2671 -0.0282
  145ODT      C  725   3.493   2.905   1.669 -0.1486  0.3304  0.1694
  146ODT      C  726   3.517   0.837   0.484  0.1516  0.1533 -0.1856
  146ODT      D  727   3.064   1.019   0.497  0.2332  0.1816 -0.0794
  146ODT      C  728   2.701   1.092   0.746 -0.0966 -0.0533  0.0619
  146ODT      C  729   2.260   0.852   1.006 -0.1357 -0.0015  0.1892
  146ODT      C  730   1.873   0.965   1.084 -0.2700  0.0470 -0.1051
  147ODT      C  731   4.715   0.471   1.776  0.2123  0.0299  0.2178
  147ODT      D  732   4.388   0.239   1.684 -0.0810 -0.2685  0.2301
  147ODT      C  733   3.915   0.097   1.815  0.0056 -0.0037 -0.1210
  147ODT      C  734   3.568  -0.108   1.683  0.0346 -0.1114  0.2329
  147ODT      C  735   3.312  -0.277   1.408  0.2832  0.0446  0.2255
  148ODT      C  736   8.787   1.022   1.937  0.1676  0.3040  0.3576
  148ODT      D  737   8.719   1.605   1.821  0.0973 -0.5712  0.0971
  148ODT      C  738   8.713   2.056   2.015  0.1183 -0.0882  0.1174
  148ODT      C  739   9.012   2.303   2.235 -0.3025 -0.0840 -0.0691
  148ODT      C  740   9.322   2.487   2.331  0.0661  0.2821 -0.1970
  149ODT      C  741   2.189   1.034   5.149  0.4500 -0.1311 -0.3135
  149ODT      D  742   2.312   1.164   5.574 -0.2519 -0.1800 -0.2162
  149ODT      C  743   2.690   1.155   5.753  0.0351  0.0267 -0.2694
  149ODT      C  744   3.142   1.295   5.972  0.0590 -0.0902  0.2274
  149ODT      C  745   3.493   1.579   5.996  0.0510 -0.0129  0.2828
  150ODT      C  746   5.949   3.696   3.840  0.0469  0.0757 -0.1061
  150ODT      D  747   5.855   3.204   3.981 -0.1333 -0.1245  0.0452
  150ODT      C  748   6.041   3.001   4.334 -0.0471 -0.0608  0.0330
  150ODT      C  749   5.928   2.701   4.711 -0.0873  0.0700  0.2036
  150ODT      C  750   6.073   2.534   5.134 -0.1022  0.1245  0.0883
  151ODT      C  751   6.714   6.404   4.846 -0.1072 -0.0122 -0.3366
  151ODT      D  752   6.696   6.901   4.877  0.1110  0.2877  0.1438
  151ODT      C  753   6.714   7.110   5.317 -0.1465 -0.0601 -0.2357
  151ODT      C  754   6.865   7.364   5.812 -0.1231  0.2972  0.0634
  151ODT      C  755   6.907   7.300   6.214 -0.0021  0.2462  0.0151
  152ODT      C  756   8.505   6.779   3.895  0.0185  0.1199 -0.1691
  152ODT      D  757   8.244   7.069   3.645 -0.1292  0.2603  0.0365
  152ODT      C  758   7.959   7.356   3.511  0.1452 -0.1545  0.0635
  152ODT      C  759   7.691   7.556   3.298  0.2363  0.0758 -0.0992
  152ODT      C  760   7.261   7.631   3.182 -0.0103 -0.0133 -0.1521
  153ODT      C  761   9.433   5.134   4.714  0.0776  0.0565 -0.2462
  153ODT      D  762   9.534   4.689   4.450  0.2246 -0.1813 -0.0483
  153ODT      C  763   9.394   4.313   4.539  0.3518  0.1126  0.1082
  153ODT      C  764   9.385   3.824   4.512 -0.0023 -0.1056 -0.0218
  153ODT      C  765   9.660   3.532   4.537 -0.0521 -0.2329  0.0481
  154ODT      C  766   7.217   2.707   4.542  0.1158  0.0749  0.1475
  154ODT      D  767   6.932   2.701   4.807  0.4135 -0.2379 -0.1897
  154ODT      C  768   6.926   2.446   5.166 -0.2444 -0.2966 -0.2615
  154ODT      C  769   6.823   2.081   5.227  0.3311 -0.1001  0.0230
  154ODT      C  770   6.476   1.890   5.126 -0.3826 -0.2870  0.1361
  155ODT      C  771   0.969   1.801   5.896 -0.2409  0.2362  0.3983
  155ODT      D  772   1.083   1.905   5.484  0.1918 -0.1631  0.0579
  155ODT      C  773   1.196   2.342   5.180  0.0865 -0.3277 -0.0933
  155ODT      C  774   1.020   2.506   4.901  0.0475 -0.1477 -0.0036
  155ODT      C  775   0.925   2.837   4.814 -0.2733 -0.0018  0.1742
  156ODT      C  776   1.356   1.846   1.130  0.0519  0.0957  0.1222
  156ODT      D  777   1.825   2.026   1.134 -0.0163  0.1423 -0.0165
  156ODT      C  778   2.202   2.356   0.957  0.1920  0.0918  0.4046
  156ODT      C  779   2.254   2.645   0.672 -0.2276  0.1185  0.0129
  156ODT      C  780   2.549   3.056   0.642  0.1267  0.4110 -0.0246
  157ODT      C  781   1.284   6.866   2.121  0.1326 -0.2908 -0.0958
  157ODT      D  782   1.497   6.801   1.711  0.2998  0.3049 -0.0397
  157ODT      C  783   1.760   6.829   1.405  0.1661  0.2052  0.4569
  157ODT      C  784   1.998   6.583   1.166  0.0962 -0.1737 -0.0099
  157ODT      C  785   2.210   6.186   1.115  0.4729 -0.0856 -0.2677
  158ODT      C  786   7.526   6.010   0.377 -0.1749 -0.2466  0.1822
  158ODT      D  787   7.201   6.077   0.062  0.1316  0.4539 -0.3233
  158ODT      C  788   6.801   6.233   0.059  0.2655  0.0247 -0.1005
  158ODT      C  789   6.461   6.485   0.195  0.0106 -0.2910  0.0554
  158ODT      C  790   6.393   6.643   0.502  0.0663  0.1715  0.1660
  159ODT      C  791   6.701   3.545   0.634  0.2149 -0.0473 -0.0813
  159ODT      D  792   7.051   3.248   0.538  0.0655  0.1111 -0.3114
  159ODT      C  793   7.203   2.879   0.677  0.0087  0.1235 -0.1482
  159ODT      C  794   7.145   2.488   0.832  0.3064 -0.0758 -0.0585
  159ODT      C  795   7.175   2.319   1.191  0.2418 -0.0192  0.1387
  160ODT      C  796   1.370   6.781   2.634 -0.2344 -0.0628  0.0669
  160ODT      D  797   0.997   6.460   2.567 -0.1431 -0.0216 -0.0501
  160ODT      C  798   0.719   6.245   2.459  0.1973  0.1892 -0.6031
  160ODT      C  799   0.482   5.956   2.619  0.2884  0.3127 -0.1871
  160ODT      C  800   0.033   5.765   2.572 -0.0068  0.1959  0.2912
  161ODT      C  801   2.708   3.546   1.415 -0.0382  0.0656  0.2443
  161ODT      D  802   2.673   3.839   0.986 -0.0690 -0.1963 -0.3098
  161ODT      C  803   2.780   4.250   0.905 -0.0612 -0.0781  0.0488
  161ODT      C  804   3.122   4.506   0.732  0.1795  0.1910 -0.1261
  161ODT      C  805   3.134   4.976   0.658 -0.0629  0.1195  0.1104
  162ODT      C  806   0.562   4.074   5.181 -0.0262 -0.1464 -0.3245
  162ODT      D  807   0.576   4.487   4.957  0.1572 -0.2770  0.0739
  162ODT      C  808   0.580   4.815   4.545  0.2155 -0.0858 -0.0905
  162ODT      C  809   0.358   5.112   4.411  0.2879  0.0821 -0.0100
  162ODT      C  810  -0.018   5.412   4.262  0.0221 -0.3506 -0.0706
  163ODT      C  811   5.144   4.714   2.891  0.0063 -0.0084 -0.0716
  163ODT      D  812   4.826   5.027   2.726 -0.1954 -0.1431 -0.0459
  163ODT      C  813   4.586   5.357   2.837 -0.2371 -0.0536 -0.0993
  163ODT      C  814   4.525   5.607   3.206 -0.0129 -0.1036  0.1931
  163ODT      C  815   4.391   5.498   3.554  0.1568  0.1129  0.0772
  164ODT      C  816   2.715   4.415   4.577  0.1236 -0.0223  0.1271
  164ODT      D  817   2.550   4.270   4.134  0.2376  0.1700  0.2922
  164ODT      C  818   2.136   4.271   4.038  0.1749  0.0438 -0.0220
  164ODT      C  819   1.793   4.484   4.003  0.1844  0.2624 -0.0450
  164ODT      C  820   1.485   4.715   4.243  0.1544  0.1021 -0.1610
  165ODT      C  821   1.099   6.865   7.024 -0.1326 -0.0636 -0.0286
  165ODT      D  822   1.184   6.667   7.397  0.2409  0.1513 -0.0188
  165ODT      C  823   1.200   6.398   7.845  0.0502 -0.0086 -0.2054
  165ODT      C  824   1.021   6.037   8.129  0.2591 -0.0165 -0.1510
  165ODT      C  825   0.648   5.864   8.262 -0.0197 -0.0682  0.0106
  166ODT      C  826   9.081   0.508   6.143  0.1062 -0.0713 -0.2428
  166ODT      D  827   9.154   0.878   5.957 -0.0069 -0.2262  0.2922
  166ODT      C  828   9.202   1.284   6.021  0.1100  0.3348 -0.0020
  166ODT      C  829   8.996   1.652   5.773 -0.0744  0.1251  0.0558
  166ODT      C  830   8.973   1.796   5.371  0.0094 -0.2728  0.4151
  167ODT      C  831   9.121   1.256   5.400 -0.1428 -0.0780 -0.1369
  167ODT      D  832   9.523   1.386   5.562 -0.3179  0.0204  0.1003
  167ODT      C  833   9.841   1.613   5.515 -0.0422 -0.1723 -0.3422
  167ODT      C  834  10.253   1.486   5.522 -0.1725  0.0801 -0.1277
  167ODT      C  835  10.526   1.213   5.375 -0.1310 -0.1774 -0.1856
  168ODT      C  836   2.850   6.830   0.754  0.2284  0.1794 -0.1988
  168ODT      D  837   3.231   6.850   0.502  0.0195  0.1015 -0.2415
  168ODT      C  838   3.511   6.969   0.266 -0.3543  0.0919  0.2233
  168ODT      C  839   3.512   7.027  -0.174  0.0863  0.2365  0.0647
  168ODT      C  840   3.394   6.683  -0.409 -0.0322  0.2810 -0.0957
  169ODT      C  841   1.609   3.501   3.809  0.2267  0.2427 -0.2124
  169ODT      D  842   1.543   3.286   3.509  0.3723 -0.1093  0.0716
  169ODT      C  843   1.316   3.029   3.242 -0.1981  0.1627 -0.2223
  169ODT      C  844   1.344   2.761   2.928  0.0342 -0.2682  0.0440
  169ODT      C  845   1.514   2.959   2.492 -0.1002 -0.0888  0.0690
  170ODT      C  846   6.168   3.834   2.815 -0.1197 -0.2249 -0.2480
  170ODT      D  847   6.541   3.917   2.535  0.0034  0.0343 -0.1647
  170ODT      C  848   6.553   4.252   2.260  0.1778  0.1970  0.2510
  170ODT      C  849   6.299   4.697   2.293  0.0840  0.0694 -0.1193
  170ODT      C  850   6.461   4.997   2.414  0.0151  0.0641  0.0728
  171ODT      C  851   8.691   4.338   3.753  0.3301  0.2873  0.1325
  171ODT      D  852   8.436   4.718   3.775  0.0025  0.1759  0.0363
  171ODT      C  853   8.243   5.095   3.580  0.1714  0.0861 -0.1605
  171ODT      C  854   8.188   5.535   3.631 -0.2697 -0.1067 -0.1389
  171ODT      C  855   8.318   5.933   3.456 -0.3217  0.0056 -0.0258
  172ODT      C  856   3.287   6.581   0.074 -0.4061 -0.1303  0.1620
  172ODT      D  857   2.906   6.408  -0.025  0.0432 -0.2329 -0.0872
  172ODT      C  858   2.692   5.996  -0.109 -0.2059  0.4767 -0.0194
  172ODT      C  859   2.684   5.542  -0.165 -0.0872 -0.1508  0.1279
  172ODT      C  860   2.574   5.310  -0.505 -0.0825 -0.1418  0.0576
  173ODT      C  861   8.865   3.111   4.352 -0.2099 -0.0133 -0.0693
  173ODT      D  862   8.471   2.845   4.138  0.0634  0.1249  0.0607
  173ODT      C  863   8.039   3.007   4.223 -0.1601  0.0437  0.2093
  173ODT      C  864   7.860   3.375   4.125 -0.3018 -0.0087  0.0481
  173ODT      C  865   7.592   3.762   4.115 -0.0097  0.1841 -0.3109
  174ODT      C  866   3.856   6.934   0.727  0.0365 -0.1302  0.1148
  174ODT      D  867   3.873   7.348   0.540 -0.1437  0.0051  0.4186
  174ODT      C  868   4.240   7.761   0.465  0.0898  0.1026  0.0671
  174ODT      C  869   4.543   7.866   0.777  0.0884 -0.1704  0.0483
  174ODT      C  870   5.016   7.652   0.892  0.0669  0.3635  0.0645
  175ODT      C  871   8.162   0.975   5.304 -0.0418  0.0634 -0.2135
  175ODT      D  872   8.133   0.565   5.173  0.1932  0.0553 -0.0021
  175ODT      C  873   8.013   0.138   5.063  0.2979 -0.0098  0.0282
  175ODT      C  874   7.636   0.040   4.811 -0.0254  0.2144  0.0239
  175ODT      C  875   7.340  -0.032   4.599  0.1177 -0.1087  0.0263
  176ODT      C  876   9.454   2.507   4.584 -0.0268  0.2352  0.0352
  176ODT      D  877   9.335   2.698   4.199  0.0486  0.0582 -0.1010
  176ODT      C  878   9.098   2.814   3.936  0.2929 -0.1392  0.0562
  176ODT      C  879   8.759   3.002   3.747 -0.0392 -0.0703  0.0561
  176ODT      C  880   8.403   3.208   3.739  0.1353  0.2024  0.0352
  177ODT      C  881   0.126   4.480   5.717 -0.3577 -0.1875  0.0583
  177ODT      D  882   0.025   4.074   5.534 -0.0116  0.1933  0.3228
  177ODT      C  883   0.289   3.706   5.370  0.0330 -0.0950 -0.3960
  177ODT      C  884   0.735   3.714   5.397  0.2270  0.1068  0.3953
  177ODT      C  885   1.027   4.032   5.517  0.0181 -0.0074  0.2773
  178ODT      C  886   8.075   2.327   7.126  0.3411 -0.0167 -0.0581
  178ODT      D  887   8.278   2.749   7.190 -0.0983  0.0940 -0.0281
  178ODT      C  888   8.643   3.013   7.066  0.1384  0.1231  0.1185
  178ODT      C  889   9.028   3.242   6.943 -0.3642 -0.2809 -0.0366
  178ODT      C  890   9.428   3.465   6.798 -0.0806 -0.1537  0.0944
  179ODT      C  891   6.715   7.036   4.304 -0.1425  0.1263  0.2217
  179ODT      D  892   6.449   6.752   4.438  0.0080 -0.1172  0.2482
  179ODT      C  893   6.258   6.595   4.739 -0.0066 -0.0857  0.0423
  179ODT      C  894   5.818   6.525   4.894  0.1798 -0.1754 -0.0415
  179ODT      C  895   5.388   6.381   4.922  0.0776  0.1631  0.1339
  180ODT      C  896   5.431   6.012   1.509  0.1515 -0.2063  0.0673
  180ODT      D  897   5.551   6.449   1.575  0.0613  0.2139  0.2414
  180ODT      C  898   5.298   6.863   1.803 -0.4375 -0.3697  0.1131
  180ODT      C  899   5.142   6.890   2.227  0.1104 -0.4140  0.1282
  180ODT      C  900   4.799   6.802   2.626 -0.3452 -0.0036  0.0611
  181ODT      C  901   8.204   3.417   1.993 -0.2851  0.0362  0.2993
  181ODT      D  902   8.517   3.791   2.054 -0.0908 -0.2309 -0.0685
  181ODT      C  903   8.756   4.107   1.732  0.0194  0.0521  0.1536
  181ODT      C  904   8.775   4.545   1.509 -0.0973  0.2349 -0.1321
  181ODT      C  905   8.630   4.894   1.320  0.2944  0.4688 -0.2984
  182ODT      C  906   1.585   4.190   2.019  0.2383 -0.2040  0.1120
  182ODT      D  907   1.176   4.367   2.275  0.2497  0.0284  0.2647
  182ODT      C  908   0.766   4.414   2.244 -0.0834 -0.6314  0.0751
  182ODT      C  909   0.577   3.956   2.141  0.3033 -0.1630  0.1934
  182ODT      C  910   0.433   3.555   2.291  0.2194 -0.0641  0.1227
  183ODT      C  911   2.229   5.272   5.676 -0.1296 -0.0555  0.2180
  183ODT      D  912   2.331   5.289   6.200  0.0959  0.1767 -0.4231
  183ODT      C  913   2.180   5.030   6.607  0.0913  0.4259  0.2058
  183ODT      C  914   1.731   4.832   6.549  0.0090 -0.1325 -0.1089
  183ODT      C  915   1.521   4.503   6.366  0.0164  0.2285 -0.2450
  184ODT      C  916   8.230   1.307   4.819  0.1805  0.0866  0.0093
  184ODT      D  917   7.949   1.209   4.557 -0.0247 -0.1374  0.3509
  184ODT      C  918   7.684   0.925   4.335 -0.2059  0.1919  0.1301
  184ODT      C  919   7.724   0.728   3.937  0.0704 -0.1555  0.1353
  184ODT      C  920   7.479   0.669   3.628 -0.0453  0.0236  0.0047
  185ODT      C  921   7.920   4.254   2.191  0.3115 -0.2720  0.1596
  185ODT      D  922   7.907   3.843   2.089  0.3107  0.0438 -0.2472
  185ODT      C  923   7.772   3.624   1.746 -0.4322 -0.1209 -0.1686
  185ODT      C  924   7.852   3.532   1.375  0.0274  0.0676  0.3711
  185ODT      C  925   8.016   3.295   0.984 -0.0486 -0.0460  0.0169
  186ODT      C  926   7.613   4.085   1.791 -0.0325  0.2496 -0.1011
  186ODT      D  927   7.261   4.281   1.560  0.0004 -0.2066 -0.1185
  186ODT      C  928   7.025   4.554   1.279 -0.1045  0.2400  0.1732
  186ODT      C  929   6.912   4.858   1.031 -0.0390  0.2095  0.1098
  186ODT      C  930   6.672   4.900   0.618  0.2181  0.2677 -0.1712
  187ODT      C  931   4.354   1.616   5.138  0.2946 -0.0738  0.1156
  187ODT      D  932   4.056   1.867   5.182 -0.2379 -0.1407 -0.0253
  187ODT      C  933   3.628   2.108   5.075 -0.0783 -0.0843  0.1707
  187ODT      C  934   3.315   2.372   5.192 -0.0195 -0.0089  0.0894
  187ODT      C  935   2.870   2.548   5.070  0.1210  0.2418  0.0186
  188ODT      C  936   1.749   0.748   5.302  0.1158 -0.0048  0.0524
  188ODT      D  937   2.070   0.688   5.583 -0.0179 -0.0303  0.1112
  188ODT      C  938   2.242   0.795   5.967  0.0093  0.2683  0.2168
  188ODT      C  939   2.338   1.213   6.099  0.3162  0.1935  0.2244
  188ODT      C  940   2.670   1.366   6.283 -0.0236  0.1459  0.1086
  189ODT      C  941   3.107   5.829   1.191  0.0949  0.0949 -0.1269
  189ODT      D  942   3.021   6.218   1.288 -0.0800 -0.0685 -0.0274
  189ODT      C  943   2.941   6.589   1.447  0.0245 -0.0296 -0.1007
  189ODT      C  944   2.967   6.900   1.808  0.2783  0.0202  0.2568
  189ODT      C  945   3.222   7.251   2.034  0.0820  0.2416  0.1012
  190ODT      C  946   3.803   5.954   7.121 -0.0558  0.0885  0.0304
  190ODT      D  947   3.800   6.273   6.822  0.0085 -0.0908  0.0519
  190ODT      C  948   3.702   6.527   6.384  0.0117 -0.3381 -0.2058
  190ODT      C  949   3.787   6.678   6.051 -0.1216  0.2013 -0.3377
  190ODT      C  950   4.047   6.729   5.765 -0.2186 -0.1981  0.0559
  191ODT      C  951   3.210   3.829   6.326 -0.0763  0.4132  0.1620
  191ODT      D  952   3.023   4.135   6.619  0.0623 -0.3615 -0.3314
  191ODT      C  953   2.638   4.502   6.574 -0.1304 -0.1529 -0.1389
  191ODT      C  954   2.503   4.777   6.356 -0.0603 -0.1300 -0.4947
  191ODT      C  955   2.223   4.846   6.040 -0.3333  0.0513  0.0648
  192ODT      C  956   1.199   2.261   2.057  0.0002 -0.1338 -0.2915
  192ODT      D  957   0.986   2.377   1.624 -0.0183 -0.0052 -0.0854
  192ODT      C  958   1.041   2.632   1.292  0.1088 -0.0286 -0.1479
  192ODT      C  959   1.042   2.671   0.902 -0.0123 -0.4083 -0.2472
  192ODT      C  960   0.921   2.623   0.472 -0.0077 -0.0881 -0.0078
  193ODT      C  961   4.977   2.654   6.863  0.1538 -0.1616  0.2514
  193ODT      D  962   4.557   2.802   6.845  0.1407  0.0581  0.0233
  193ODT      C  963   4.219   2.623   6.890 -0.1026 -0.1510  0.1539
  193ODT      C  964   3.988   2.263   6.904  0.0520  0.4022 -0.3406
  193ODT      C  965   3.779   1.942   6.899 -0.1990 -0.0588 -0.1852
  194ODT      C  966   6.019   4.689   1.277  0.3374 -0.2638 -0.0226
  194ODT      D  967   5.536   4.610   1.160  0.1577  0.0819  0.0852
  194ODT      C  968   5.183   4.493   1.028  0.1493 -0.0281  0.1508
  194ODT      C  969   4.897   4.393   1.283 -0.0898 -0.0125 -0.0247
  194ODT      C  970   4.530   4.429   1.497 -0.4447 -0.1095  0.4840
  195ODT      C  971   9.392   3.931   6.507  0.0911  0.0397 -0.2684
  195ODT      D  972   9.034   3.763   6.719  0.2042  0.2935 -0.1154
  195ODT      C  973   8.634   3.511   6.748 -0.1225 -0.0791 -0.1648
  195ODT      C  974   8.435   3.456   7.218 -0.4107  0.1192  0.1388
  195ODT      C  975   8.143   3.522   7.619 -0.1204  0.1552 -0.0293
  196ODT      C  976   7.618   6.951   1.009 -0.0729  0.3652  0.0296
  196ODT      D  977   7.918   7.195   0.811  0.0456  0.0238 -0.2958
  196ODT      C  978   8.263   7.259   0.628  0.1832 -0.0381 -0.2085
  196ODT      C  979   8.693   7.369   0.755  0.0546 -0.0569  0.0740
  196ODT      C  980   9.038   7.153   0.709 -0.3063  0.0845  0.2010
  197ODT      C  981   7.441   6.153   4.919 -0.0900 -0.0522  0.2919
  197ODT      D  982   7.674   6.078   4.580 -0.0497  0.2771  0.3303
  197ODT      C  983   7.946   5.957   4.228 -0.0977  0.2313  0.2671
  197ODT      C  984   8.323   6.094   3.979 -0.0284 -0.0406  0.4429
  197ODT      C  985   8.544   6.348   3.686  0.1270  0.2792  0.1239
  198ODT      C  986   3.978   5.980   3.579  0.1183 -0.1932  0.0504
  198ODT      D  987   4.120   6.337   3.520 -0.0372  0.2334  0.1415
  198ODT      C  988   4.206   6.760   3.527 -0.1063 -0.0301 -0.1372
  198ODT      C  989   4.127   7.170   3.706  0.3343  0.2737 -0.2345
  198ODT      C  990   4.152   7.591   3.718  0.0504 -0.1612 -0.2408
  199ODT      C  991   4.010   1.189   5.206 -0.0751 -0.2695 -0.1192
  199ODT      D  992   4.328   1.207   5.489 -0.1185 -0.0836  0.0293
  199ODT      C  993   4.481   1.069   5.856 -0.0914  0.1303  0.1947
  199ODT      C  994   4.685   0.953   6.350 -0.1749 -0.2753 -0.1752
  199ODT      C  995   4.484   0.589   6.387 -0.0200  0.1704  0.1259
  200ODT      C  996   3.484   7.064   5.773 -0.0698  0.0463 -0.0193
  200ODT      D  997   3.665   7.230   6.105 -0.4110 -0.0058  0.0235
  200ODT      C  998   3.792   7.163   6.623 -0.1830  0.1217  0.3024
  200ODT      C  999   3.856   7.384   6.991 -0.0646  0.0691  0.0951
  200ODT      C 1000   4.247   7.470   7.162 -0.2465  0.0316  0.1746
  201ODT      C 1001   0.746   5.915   6.941 -0.0999  0.2359  0.0689
  201ODT      D 1002   0.707   5.837   7.281  0.1009 -0.0551 -0.2752
  201ODT      C 1003   0.535   6.077   7.608  0.0048 -0.2089  0.1170
  201ODT      C 1004   0.567   6.366   7.997 -0.1891  0.2063 -0.5945
  201ODT      C 1005   0.914   6.586   8.279 -0.0169 -0.0944  0.2186
  202ODT      C 1006   1.002   4.310   1.796 -0.0459 -0.0030 -0.1498
  202ODT      D 1007   0.733   4.076   1.589 -0.3557 -0.0371 -0.0826
  202ODT      C 1008   0.743   3.872   1.259  0.4458 -0.0860  0.2996
  202ODT      C 1009   1.042   3.737   0.945  0.1311 -0.1105 -0.4148
  202ODT      C 1010   1.135   3.646   0.604  0.3974  0.0612 -0.1219
  203ODT      C 1011   3.544   5.841   3.153 -0.1638  0.4661  0.1669
  203ODT      D 1012   3.557   6.152   3.420  0.0614 -0.0639 -0.0317
  203ODT      C 1013   3.737   6.632   3.334 -0.1589 -0.0316  0.0500
  203ODT      C 1014   3.839   6.991   3.200  0.2656  0.0086  0.0450
  203ODT      C 1015   3.972   7.531   3.266 -0.0703 -0.0624  0.1576
  204ODT      C 1016   2.919   0.689   5.610 -0.0680  0.1013 -0.2328
  204ODT      D 1017   3.168   0.324   5.874  0.0660 -0.2042  0.0903
  204ODT      C 1018   3.214   0.142   6.310  0.0126 -0.0325 -0.0353
  204ODT      C 1019   3.383  -0.276   6.304  0.0499  0.0543  0.1037
  204ODT      C 1020   3.208  -0.809   6.326  0.0473  0.3282 -0.0430
  205ODT      C 1021   4.341   5.375   4.490 -0.3991 -0.0596 -0.0430
  205ODT      D 1022   4.495   5.168   4.227 -0.5176 -0.0111  0.3435
  205ODT      C 1023   4.914   5.049   4.126 -0.0273 -0.0897  0.1677
  205ODT      C 1024   5.185   4.859   3.885  0.1497  0.1109  0.1732
  205ODT      C 1025   5.322   4.476   3.664  0.1911  0.1934 -0.0021
  206ODT      C 1026   2.269   4.085   4.534 -0.2871 -0.1315  0.1616
  206ODT      D 1027   2.567   4.023   4.868  0.0527  0.2352  0.1833
  206ODT      C 1028   2.839   4.277   5.131 -0.0858  0.0033 -0.0664
  206ODT      C 1029   2.738   4.543   5.390 -0.0420  0.0977 -0.1507
  206ODT      C 1030   2.420   4.843   5.529 -0.0304 -0.1735  0.0499
  207ODT      C 1031   1.141   0.078   4.330 -0.1864 -0.1698 -0.3200
  207ODT      D 1032   1.175  -0.379   4.097  0.1625 -0.1695 -0.5253
  207ODT      C 1033   1.064  -0.720   3.841 -0.2669  0.0724 -0.2194
  207ODT      C 1034   0.678  -0.809   4.049  0.1467 -0.1148 -0.0764
  207ODT      C 1035   0.390  -0.938   3.735 -0.1130 -0.0816 -0.1060
  208ODT      C 1036   0.901   4.827   7.137  0.0471  0.0119 -0.0825
  208ODT      D 1037   0.887   5.097   6.735 -0.0234  0.2166 -0.3448
  208ODT      C 1038   0.558   5.112   6.448  0.0105  0.0800  0.3130
  208ODT      C 1039   0.418   5.426   6.164 -0.4096  0.1003  0.2930
  208ODT      C 1040  -0.003   5.278   6.134  0.1430 -0.2657  0.1624
  209ODT      C 1041   0.096   4.359   5.021  0.1470  0.0802  0.2595
  209ODT      D 1042   0.350   4.157   4.658 -0.0295  0.0382 -0.0318
  209ODT      C 1043   0.477   3.847   4.366  0.0306 -0.1393 -0.2561
  209ODT      C 1044   0.223   3.665   4.030 -0.2763 -0.0974 -0.1221
  209ODT      C 1045  -0.170   3.915   3.932 -0.0362 -0.1448 -0.0949
  210ODT      C 1046   1.710   4.411   0.699 -0.0995 -0.2456 -0.3347
  210ODT      D 1047   1.433   4.514   1.041  0.1331  0.0213 -0.0453
  210ODT      C 1048   1.071   4.553   1.248 -0.1174  0.2426 -0.3209
  210ODT      C 1049   0.655   4.465   1.275  0.2234 -0.0110  0.1102
  210ODT      C 1050   0.351   4.139   1.238 -0.0941 -0.1196  0.0897
  211ODT      C 1051   8.925   5.096   7.185  0.0142  0.0913  0.0809
  211ODT      D 1052   8.940   5.349   6.883  0.1753  0.1984 -0.1855
  211ODT      C 1053   8.705   5.713   6.738 -0.0200  0.0770 -0.0910
  211ODT      C 1054   8.684   6.165   6.757 -0.0408 -0.0386 -0.0519
  211ODT      C 1055   8.965   6.490   6.956 -0.1431  0.1900  0.1461
  212ODT      C 1056   3.730   6.922   4.996 -0.0648  0.0777  0.4196
  212ODT      D 1057   3.781   7.340   5.219  0.2809 -0.0441 -0.0474
  212ODT      C 1058   3.569   7.619   5.575 -0.2605 -0.0152  0.0765
  212ODT      C 1059   3.436   7.991   5.634 -0.1373 -0.0405  0.0322
  212ODT      C 1060   3.574   8.250   5.982  0.1981  0.0607 -0.0836
  213ODT      C 1061   8.136   6.751   2.158 -0.2024 -0.1840 -0.2413
  213ODT      D 1062   8.413   6.502   2.091  0.3530 -0.0679  0.1130
  213ODT      C 1063   8.650   6.259   1.913  0.3442 -0.1824 -0.0443
  213ODT      C 1064   8.663   5.889   1.915  0.0477  0.1571  0.1666
  213ODT      C 1065   8.790   5.466   2.103 -0.4903  0.1407  0.1241
  214ODT      C 1066   0.479   2.267   4.216  0.0816  0.2595  0.3557
  214ODT      D 1067   0.781   2.251   4.491  0.1728  0.0468  0.0805
  214ODT      C 1068   1.237   2.202   4.510 -0.0693 -0.1789  0.3511
  214ODT      C 1069   1.503   2.281   4.795  0.1529 -0.0967  0.2567
  214ODT      C 1070   1.640   2.091   5.117  0.1379  0.1772  0.0438
  215ODT      C 1071   6.280   6.389   0.894 -0.0631  0.0372 -0.1284
  215ODT      D 1072   6.089   6.550   1.328  0.1035 -0.2915  0.3152
  215ODT      C 1073   5.877   6.846   1.643 -0.0519 -0.0318  0.0113
  215ODT      C 1074   5.554   7.251   1.520 -0.0476 -0.1468  0.0616
  215ODT      C 1075   5.652   7.575   1.303  0.2596  0.1782 -0.4161
  216ODT      C 1076   9.392   5.986   4.357  0.0670 -0.1614  0.2120
  216ODT      D 1077   9.372   5.725   4.742  0.2842  0.0832 -0.0873
  216ODT      C 1078   9.197   5.479   4.978 -0.1768  0.1710  0.0838
  216ODT      C 1079   8.899   5.207   4.954 -0.0487 -0.0182  0.1899
  216ODT      C 1080   8.553   4.990   4.869 -0.1531  0.1373 -0.1639
  217ODT      C 1081   6.371   5.116   1.848  0.3068 -0.2205  0.0967
  217ODT      D 1082   6.034   5.257   2.160 -0.3095  0.2278  0.0354
  217ODT      C 1083   5.600   5.264   2.283 -0.2637 -0.0168 -0.1694
  217ODT      C 1084   5.211   4.969   2.278 -0.2965  0.1510 -0.2669
  217ODT      C 1085   4.957   4.609   2.365 -0.3199 -0.0099 -0.1921
  218ODT      C 1086   2.605   5.735   1.345 -0.1359  0.2126  0.1303
  218ODT      D 1087   2.739   5.605   1.707 -0.1845 -0.1308  0.2255
  218ODT      C 1088   2.767   5.542   2.153  0.3515  0.0787  0.1997
  218ODT      C 1089   2.687   5.312   2.543  0.0140 -0.1400 -0.0977
  218ODT      C 1090   2.778   4.905   2.465 -0.1233  0.0206  0.1390
  219ODT      C 1091   6.735   1.029   2.302 -0.1949  0.1742  0.0981
  219ODT      D 1092   6.486   0.597   2.448  0.0800  0.1238 -0.0674
  219ODT      C 1093   6.475   0.373   2.884 -0.0946  0.1678 -0.0538
  219ODT      C 1094   6.425   0.235   3.249  0.6323  0.1410 -0.1508
  219ODT      C 1095   6.396   0.223   3.681  0.0477 -0.0954  0.0849
  220ODT      C 1096   6.715   4.922   0.122  0.2184 -0.1994 -0.1460
  220ODT      D 1097   6.513   4.522  -0.103  0.3502 -0.0247 -0.3259
  220ODT      C 1098   6.400   4.067  -0.253  0.0543 -0.0362 -0.0057
  220ODT      C 1099   6.250   3.601  -0.246  0.0983 -0.0904 -0.0378
  220ODT      C 1100   6.226   3.351  -0.649  0.1926 -0.2692  0.2337
  221ODT      C 1101   3.563   1.702   3.440  0.1869  0.2898 -0.0655
  221ODT      D 1102   3.668   1.728   3.067 -0.0519 -0.1030 -0.1553
  221ODT      C 1103   3.501   1.794   2.733 -0.5515 -0.2572  0.2505
  221ODT      C 1104   3.363   1.544   2.388 -0.1695 -0.1296  0.2132
  221ODT      C 1105   3.516   1.375   2.024  0.1917  0.1054  0.2734
  222ODT      C 1106   5.024   0.085   2.603 -0.0976 -0.0080  0.2258
  222ODT      D 1107   5.458   0.001   2.425  0.0600 -0.1448 -0.1954
  222ODT      C 1108   5.746  -0.112   2.069 -0.0669  0.1807 -0.0415
  222ODT      C 1109   6.166  -0.033   2.011  0.2032  0.0121  0.0378
  222ODT      C 1110   6.362   0.285   2.060 -0.0653  0.0502  0.1868
  223ODT      C 1111   6.429   2.888   7.173  0.0958 -0.1214 -0.2129
  223ODT      D 1112   6.565   3.161   6.898  0.1954 -0.2067  0.0373
  223ODT      C 1113   6.762   3.607   6.871 -0.0722  0.2737  0.2944
  223ODT      C 1114   7.177   3.729   6.707 -0.3028  0.1439  0.1784
  223ODT      C 1115   7.745   3.713   6.636 -0.2492 -0.1029 -0.2289
  224ODT      C 1116   7.146   3.794   3.783 -0.1609 -0.0890 -0.0542
  224ODT      D 1117   7.197   4.148   4.051 -0.1553 -0.0552  0.1681
  224ODT      C 1118   7.448   4.223   4.373 -0.0654 -0.1764 -0.1269
  224ODT      C 1119   7.439   4.310   4.778  0.2477  0.1896 -0.1353
  224ODT      C 1120   7.157   4.473   5.076 -0.0773  0.1320  0.0483
  225ODT      C 1121   5.671   1.776   6.905 -0.2876 -0.0714 -0.2558
  225ODT      D 1122   5.764   2.238   6.791 -0.4867 -0.2004  0.0145
  225ODT      C 1123   5.961   2.619   6.620  0.3186 -0.2450 -0.4415
  225ODT      C 1124   6.123   2.964   6.775  0.0912  0.2870  0.2038
  225ODT      C 1125   5.987   3.196   7.152 -0.1317  0.0991 -0.0557
  226ODT      C 1126   6.567   2.997   3.438  0.3070 -0.0960  0.0686
  226ODT      D 1127   6.179   3.309   3.525 -0.0647 -0.1212  0.0821
  226ODT      C 1128   5.699   3.380   3.428 -0.0235  0.0638  0.1192
  226ODT      C 1129   5.144   3.344   3.452  0.1199 -0.3641  0.4278
  226ODT      C 1130   4.743   3.233   3.280 -0.0889  0.0897  0.0161
  227ODT      C 1131   7.719   6.150   1.570 -0.0594  0.0694 -0.0549
  227ODT      D 1132   8.087   5.941   1.651  0.0019  0.3805 -0.0749
  227ODT      C 1133   8.491   5.983   1.458  0.1885 -0.1607 -0.2165
  227ODT      C 1134   8.964   5.827   1.532  0.1024  0.1299 -0.1736
  227ODT      C 1135   9.063   5.464   1.689 -0.1829  0.1811  0.0037
  228ODT      C 1136   7.267   4.251   7.166 -0.0918  0.1536  0.0664
  228ODT      D 1137   7.555   3.881   7.064  0.0510 -0.1645 -0.1151
  228ODT      C 1138   7.961   3.660   7.134  0.1045  0.1861 -0.1714
  228ODT      C 1139   8.237   3.949   7.340 -0.1706 -0.0119  0.0750
  228ODT      C 1140   8.634   4.107   7.503  0.0553  0.0285  0.0346
  229ODT      C 1141   6.222   3.384   3.064  0.0965  0.1047  0.1900
  229ODT      D 1142   6.396   3.386   2.665  0.1896  0.0023  0.1907
  229ODT      C 1143   6.256   3.597   2.345  0.2692 -0.0790  0.1174
  229ODT      C 1144   5.996   3.991   2.379 -0.1600  0.0308 -0.2092
  229ODT      C 1145   5.940   4.357   2.423 -0.0978  0.2226  0.0879
  230ODT      C 1146   8.262   2.773   0.895  0.2217  0.1130 -0.0454
  230ODT      D 1147   7.974   2.549   1.155 -0.3994  0.2193  0.0660
  230ODT      C 1148   7.593   2.467   1.257  0.1336 -0.2470 -0.0258
  230ODT      C 1149   7.329   2.583   1.576 -0.1286  0.0380 -0.2253
  230ODT      C 1150   7.432   2.575   2.015  0.0861  0.1666 -0.0161
  231ODT      C 1151   5.138   5.805   6.662  0.0208  0.1329  0.1234
  231ODT      D 1152   4.942   5.391   6.705  0.0415  0.1551 -0.0400
  231ODT      C 1153   4.695   5.078   6.466 -0.1341  0.0585 -0.1547
  231ODT      C 1154   4.853   4.939   6.133 -0.1319  0.1953  0.2380
  231ODT      C 1155   4.844   4.747   5.744  0.0651  0.1936 -0.0256
  232ODT      C 1156   3.149   5.501   2.602  0.0885  0.2253 -0.4513
  232ODT      D 1157   3.469   5.161   2.563 -0.3700 -0.2559  0.0753
  232ODT      C 1158   3.922   5.082   2.458 -0.1434 -0.0306 -0.0386
  232ODT      C 1159   4.298   5.097   2.513  0.3854  0.1682  0.0068
  232ODT      C 1160   4.513   4.747   2.543  0.2579  0.4160  0.0003
  233ODT      C 1161   3.895   4.816   7.118 -0.0034  0.1552  0.1259
  233ODT      D 1162   4.028   5.206   7.209 -0.2311 -0.1977 -0.1513
  233ODT      C 1163   4.225   5.699   7.129  0.2250 -0.3807 -0.2887
  233ODT      C 1164   4.266   5.912   6.821  0.0211 -0.2542 -0.1840
  233ODT      C 1165   4.633   5.955   6.618 -0.1889  0.1033  0.0675
  234ODT      C 1166   4.797   4.142   3.547  0.1071 -0.2827 -0.0956
  234ODT      D 1167   5.105   4.077   3.823  0.2262 -0.1058 -0.1663
  234ODT      C 1168   5.208   3.925   4.283  0.1987 -0.4374  0.2588
  234ODT      C 1169   5.208   4.118   4.601 -0.4413  0.0916 -0.1774
  234ODT      C 1170   5.310   4.053   5.031  0.2694 -0.3124 -0.1455
  235ODT      C 1171   1.255   6.455   2.972 -0.0081 -0.1932  0.1846
  235ODT      D 1172   0.891   6.697   3.046 -0.3490  0.2211  0.0970
  235ODT      C 1173   0.778   7.038   3.244  0.3018 -0.0415  0.0018
  235ODT      C 1174   0.719   7.562   3.365 -0.0339  0.3914  0.0470
  235ODT      C 1175   0.601   7.940   3.138 -0.2148  0.2690 -0.1550
  236ODT      C 1176   0.067   1.500   2.011 -0.2322  0.2603  0.2552
  236ODT      D 1177   0.160   1.805   1.673 -0.0552  0.2846  0.0477
  236ODT      C 1178   0.191   2.006   1.366 -0.0210 -0.0898  0.0525
  236ODT      C 1179  -0.067   2.186   1.133 -0.1429 -0.1210 -0.2035
  236ODT      C 1180  -0.349   2.667   1.206 -0.3274  0.3854 -0.0085
  237ODT      C 1181   7.125   5.168   5.860 -0.0631 -0.0089 -0.0836
  237ODT      D 1182   7.112   5.118   6.341  0.0292 -0.0368 -0.1986
  237ODT      C 1183   7.121   4.833   6.588 -0.1418 -0.0155 -0.2424
  237ODT      C 1184   7.050   4.679   6.918  0.1366 -0.1601 -0.3383
  237ODT      C 1185   6.867   4.490   7.427 -0.0265  0.1413 -0.1321
  238ODT      C 1186   5.214   2.820   0.868  0.3183  0.2006 -0.0084
  238ODT      D 1187   4.918   2.602   1.033  0.0459  0.2584 -0.1643
  238ODT      C 1188   4.569   2.420   1.195  0.2360 -0.0017 -0.2179
  238ODT      C 1189   4.131   2.239   1.115  0.3103 -0.3448 -0.2489
  238ODT      C 1190   3.907   1.955   0.985 -0.2915 -0.1382  0.0740
  239ODT      C 1191   3.026   2.243   0.817  0.1085 -0.0402 -0.1507
  239ODT      D 1192   2.999   2.371   1.271 -0.0300  0.3349 -0.0306
  239ODT      C 1193   3.232   2.462   1.704 -0.1206  0.3838  0.1423
  239ODT      C 1194   3.066   2.800   1.981 -0.2419 -0.1066 -0.0994
  239ODT      C 1195   2.999   3.194   1.941 -0.3104 -0.0041  0.0526
  240ODT      C 1196   1.988   5.059   3.988 -0.0128  0.2846  0.1769
  240ODT      D 1197   1.856   4.982   4.393  0.0687 -0.2017 -0.0959
  240ODT      C 1198   1.495   4.837   4.698 -0.1033  0.0382 -0.2342
  240ODT      C 1199   1.435   4.520   4.966 -0.0589  0.1976 -0.2222
  240ODT      C 1200   1.021   4.364   5.151  0.1636  0.3297  0.0804
  241ODT      C 1201   5.060   5.849   1.800 -0.2247 -0.1029  0.0871
  241ODT      D 1202   5.575   5.993   1.951 -0.2189 -0.0547 -0.4723
  241ODT      C 1203   6.067   6.139   1.911 -0.2059 -0.1417  0.0228
  241ODT      C 1204   6.432   6.262   2.123 -0.2318 -0.0512 -0.1683
  241ODT      C 1205   6.536   6.288   2.549  0.0686  0.3826 -0.2406
  242ODT      C 1206   9.168   4.298   5.845  0.0635  0.1972  0.1856
  242ODT      D 1207   9.488   4.289   6.160 -0.0923 -0.3314 -0.0145
  242ODT      C 1208   9.759   4.292   6.530  0.0633  0.1882  0.0843
  242ODT      C 1209   9.714   4.348   6.939  0.0947  0.0636  0.0922
  242ODT      C 1210   9.971   4.682   7.191  0.2004 -0.0125 -0.1732
  243ODT      C 1211   4.475   6.360   2.688  0.1644  0.0348  0.0275
  243ODT      D 1212   4.454   6.138   3.181  0.1946  0.3301 -0.1756
  243ODT      C 1213   4.527   6.056   3.576  0.2437  0.2812  0.0126
  243ODT      C 1214   4.247   5.767   3.903 -0.1657 -0.0792  0.3724
  243ODT      C 1215   3.966   5.682   4.227  0.0546 -0.1929  0.2075
  244ODT      C 1216   0.735   0.337   5.329  0.1536  0.0497  0.0507
  244ODT      D 1217   0.776   0.529   4.998  0.0903 -0.1154 -0.0662
  244ODT      C 1218   0.781   0.984   4.988 -0.0222  0.1471 -0.1838
  244ODT      C 1219   0.694   1.163   4.759  0.0668  0.1692 -0.3073
  244ODT      C 1220   0.913   1.348   4.389  0.0502  0.0244  0.5126
  245ODT      C 1221   0.365   3.998   3.684  0.4042  0.0558  0.1780
  245ODT      D 1222   0.373   4.136   3.290 -0.0171  0.1256  0.0922
  245ODT      C 1223   0.060   4.124   2.936  0.1513 -0.2500  0.1077
  245ODT      C 1224  -0.052   4.455   2.675  0.1305  0.1170 -0.0035
  245ODT      C 1225  -0.315   4.698   2.555 -0.0133 -0.1161 -0.1624
  246ODT      C 1226   2.265   0.895   1.539 -0.0447  0.0107  0.4395
  246ODT      D 1227   2.278   1.015   1.869 -0.0127  0.0263 -0.1100
  246ODT      C 1228   2.234   1.376   2.048 -0.0249  0.0334  0.3440
  246ODT      C 1229   2.362   1.590   2.293  0.2480  0.2725  0.0806
  246ODT      C 1230   2.489   1.657   2.734 -0.0062 -0.1589  0.0940
  247ODT      C 1231   2.408   0.538   5.250  0.0981 -0.0577  0.0623
  247ODT      D 1232   2.021   0.235   5.137  0.2952 -0.2220  0.1602
  247ODT      C 1233   1.850  -0.062   4.863  0.0021 -0.0963 -0.3811
  247ODT      C 1234   1.973  -0.403   4.842 -0.1244  0.2945  0.0151
  247ODT      C 1235   2.057  -0.834   5.008  0.3118  0.1717  0.1029
  248ODT      C 1236   0.476   1.925   3.272  0.1777  0.1421 -0.0548
  248ODT      D 1237   0.658   2.070   3.596 -0.3409  0.0957  0.0463
  248ODT      C 1238   0.630   2.518   3.704  0.1070  0.0111 -0.1567
  248ODT      C 1239   0.477   2.968   3.622  0.0009  0.0220  0.0802
  248ODT      C 1240   0.219   3.046   3.471  0.1955  0.1146 -0.1097
  249ODT      C 1241   1.944   6.816   6.410  0.2981 -0.0790  0.1329
  249ODT      D 1242   1.570   6.899   6.262  0.1163  0.0930 -0.0111
  249ODT      C 1243   1.249   7.108   6.506 -0.0656 -0.1872 -0.0859
  249ODT      C 1244   1.068   7.318   6.871 -0.1833 -0.4458  0.2917
  249ODT      C 1245   1.333   7.337   7.250  0.0880  0.0584  0.4483
  250ODT      C 1246   8.474   0.970   1.571 -0.2628  0.1074 -0.1251
  250ODT      D 1247   8.170   0.975   1.346  0.2817 -0.0594 -0.2227
  250ODT      C 1248   7.958   0.903   0.962 -0.0889  0.2316 -0.0403
  250ODT      C 1249   7.769   0.902   0.569 -0.1183 -0.4675 -0.2480
  250ODT      C 1250   7.414   1.131   0.392  0.0066  0.2626  0.2261
  251ODT      C 1251   8.818   2.519   4.294 -0.0751  0.1888 -0.1331
  251ODT      D 1252   8.515   2.605   4.660 -0.5057 -0.1532 -0.1271
  251ODT      C 1253   8.349   2.607   5.099 -0.1579  0.0264 -0.0099
  251ODT      C 1254   8.293   2.304   5.512  0.2236 -0.1099  0.1642
  251ODT      C 1255   8.389   2.163   6.028 -0.1755  0.0085 -0.0917
  252ODT      C 1256   5.632   2.568   3.514 -0.1121 -0.2010  0.0206
  252ODT      D 1257   5.585   2.819   3.230 -0.0102  0.1362 -0.0469
  252ODT      C 1258   5.634   3.083   2.958  0.1419 -0.0559 -0.2149
  252ODT      C 1259   5.485   3.525   2.989 -0.0383 -0.1951 -0.1974
  252ODT      C 1260   5.221   3.827   3.154 -0.0650  0.0875  0.2639
  253ODT      C 1261   1.695   5.548   3.934  0.2047 -0.0116 -0.0660
  253ODT      D 1262   2.049   5.570   4.111 -0.1439  0.1930  0.1488
  253ODT      C 1263   2.380   5.769   4.263 -0.4780  0.3248 -0.2320
  253ODT      C 1264   2.525   5.929   4.631 -0.0293 -0.3263  0.1934
  253ODT      C 1265   2.359   5.798   5.089 -0.1317  0.1468 -0.3330
  254ODT      C 1266   3.510   3.110   1.072 -0.1175  0.1211  0.0552
  254ODT      D 1267   3.642   3.261   1.401 -0.0011  0.1343  0.0020
  254ODT      C 1268   3.988   3.375   1.568 -0.2259 -0.1254 -0.0774
  254ODT      C 1269   4.098   3.534   1.885 -0.1623 -0.1994 -0.1084
  254ODT      C 1270   4.157   3.499   2.295 -0.1186  0.2130  0.0656
  255ODT      C 1271   5.253   1.341   5.236  0.1343  0.1103  0.1324
  255ODT      D 1272   5.179   1.691   5.648 -0.2730 -0.2029 -0.2394
  255ODT      C 1273   4.834   2.006   5.741 -0.1253  0.1520 -0.1838
  255ODT      C 1274   4.623   2.327   6.012  0.2062  0.0683  0.0828
  255ODT      C 1275   4.379   2.357   6.324 -0.1325 -0.2782 -0.0586
  256ODT      C 1276   1.257   4.051   2.641  0.0896 -0.1404 -0.1260
  256ODT      D 1277   1.278   3.802   2.951  0.0497 -0.0118 -0.1392
  256ODT      C 1278   1.352   3.744   3.388  0.1303  0.1444 -0.0965
  256ODT      C 1279   1.272   3.862   3.811 -0.1968 -0.0709  0.0004
  256ODT      C 1280   1.278   3.813   4.244  0.0202  0.3407 -0.1271
  257ODT      C 1281   7.087   6.786   6.540  0.0249  0.4885 -0.1707
  257ODT      D 1282   6.998   6.332   6.357  0.1867  0.3362  0.0471
  257ODT      C 1283   6.707   6.091   6.031  0.3663  0.0697 -0.0056
  257ODT      C 1284   6.419   5.801   6.017  0.0052  0.3689  0.2093
  257ODT      C 1285   5.982   5.604   6.139 -0.1872  0.3449 -0.2752
  258ODT      C 1286   8.037   0.196   6.723  0.0913  0.0825 -0.2086
  258ODT      D 1287   8.150  -0.147   6.826  0.0462 -0.2550  0.1576
  258ODT      C 1288   8.181  -0.532   6.948 -0.0983 -0.1173 -0.2300
  258ODT      C 1289   8.516  -0.750   7.154 -0.1275  0.0731 -0.0415
  258ODT      C 1290   8.726  -1.232   7.210  0.0320  0.1159  0.1677
  259ODT      C 1291   2.918   7.098   5.898 -0.1959  0.1158 -0.1056
  259ODT      D 1292   2.885   7.021   6.334  0.0099 -0.1205  0.0824
  259ODT      C 1293   2.984   7.096   6.663 -0.1255 -0.1143 -0.1200
  259ODT      C 1294   2.906   6.925   6.974 -0.1485  0.1186  0.1680
  259ODT      C 1295   2.761   6.791   7.438  0.3185  0.3204 -0.2772
  260ODT      C 1296   7.373   0.545   2.543 -0.1928 -0.1709  0.1369
  260ODT      D 1297   7.453   0.801   2.930 -0.2182  0.0628  0.0707
  260ODT      C 1298   7.380   1.183   3.182  0.1547  0.3024 -0.2929
  260ODT      C 1299   7.081   1.376   3.502 -0.1270  0.1275 -0.0048
  260ODT      C 1300   6.724   1.641   3.619 -0.2267  0.0151  0.0910
  261ODT      C 1301   3.894   4.645   5.225 -0.4059  0.5561  0.0577
  261ODT      D 1302   4.049   4.604   5.603 -0.1534  0.1326 -0.1181
  261ODT      C 1303   4.327   4.590   5.798 -0.0955 -0.2447  0.4243
  261ODT      C 1304   4.561   4.439   6.108  0.0295 -0.0455  0.0708
  261ODT      C 1305   4.814   4.024   6.334  0.0924  0.2831  0.1379
  262ODT      C 1306   2.290   4.269   1.732  0.2331  0.1200  0.0808
  262ODT      D 1307   2.280   4.677   1.516 -0.0024  0.0901  0.0052
  262ODT      C 1308   2.462   4.753   1.189  0.0618  0.1391  0.2157
  262ODT      C 1309   2.898   4.795   1.045  0.0894  0.2289 -0.1509
  262ODT      C 1310   3.302   5.002   1.127  0.1528  0.1108  0.2605
  263ODT      C 1311   3.900   3.251   3.060  0.1191 -0.0581 -0.2740
  263ODT      D 1312   3.894   2.860   3.051  0.0949 -0.1224 -0.1352
  263ODT      C 1313   3.848   2.599   2.746  0.0757  0.0834  0.1715
  263ODT      C 1314   3.878   2.667   2.276 -0.1042 -0.1129  0.2635
  263ODT      C 1315   3.734   2.396   1.910  0.2500 -0.0087  0.2615
  264ODT      C 1316   0.349   2.936   0.815 -0.0875 -0.1735  0.2308
  264ODT      D 1317   0.090   3.007   0.474  0.0929 -0.0611  0.0120
  264ODT      C 1318  -0.172   3.334   0.260 -0.0665 -0.4606 -0.1458
  264ODT      C 1319  -0.074   3.670   0.121 -0.0999  0.3472 -0.2083
  264ODT      C 1320  -0.109   3.909  -0.150 -0.1618 -0.0088 -0.1569
  265ODT      C 1321   1.056   3.347   3.621  0.3748 -0.0512 -0.0270
  265ODT      D 1322   1.195   3.348   4.054 -0.0743  0.0437  0.0659
  265ODT      C 1323   1.130   3.190   4.507 -0.1397 -0.0706  0.1354
  265ODT      C 1324   0.865   3.330   4.846  0.0524  0.2465 -0.1970
  265ODT      C 1325   0.489   3.595   4.941 -0.0880 -0.2131 -0.2172
  266ODT      C 1326   5.178   1.415   3.318 -0.0472 -0.2631 -0.0377
  266ODT      D 1327   4.928   1.553   3.657  0.1590 -0.4061  0.1055
  266ODT      C 1328   4.800   1.702   4.071  0.1661 -0.0540 -0.0213
  266ODT      C 1329   4.835   2.102   4.028  0.0168 -0.4983  0.2917
  266ODT      C 1330   5.131   2.538   3.926  0.3979 -0.6157  0.1070
  267ODT      C 1331   1.447   1.111   5.469 -0.0843  0.2328  0.3014
  267ODT      D 1332   1.435   0.824   5.839  0.0380  0.2391 -0.2320
  267ODT      C 1333   1.415   0.699   6.223  0.0782  0.0716  0.1980
  267ODT      C 1334   1.260   0.756   6.658  0.1164 -0.1165  0.0415
  267ODT      C 1335   0.826   0.729   6.817  0.3090  0.1841  0.0820
  268ODT      C 1336   3.661   0.772   1.483 -0.0142  0.0246 -0.2244
  268ODT      D 1337   3.848   0.489   1.274 -0.0246  0.0935 -0.0883
  268ODT      C 1338   4.095   0.278   1.004  0.0556 -0.1099  0.0626
  268ODT      C 1339   4.398   0.168   0.729  0.0270  0.1232 -0.0740
  268ODT      C 1340   4.774   0.092   0.722  0.0341 -0.0850 -0.2558
  269ODT      C 1341   2.929   0.072   4.870  0.1869  0.0357  0.3527
  269ODT      D 1342   3.123   0.057   4.457 -0.0271  0.3514  0.1506
  269ODT      C 1343   3.447   0.070   4.225 -0.0159  0.0292 -0.0287
  269ODT      C 1344   3.862   0.109   4.114 -0.0081 -0.0211  0.0428
  269ODT      C 1345   4.110   0.337   4.306 -0.0882 -0.2760 -0.1288
  270ODT      C 1346   6.610   4.146   1.683  0.0776 -0.1619 -0.1379
  270ODT      D 1347   6.592   3.717   1.503 -0.1124 -0.0322 -0.1212
  270ODT      C 1348   6.473   3.366   1.293 -0.2929  0.0728  0.0067
  270ODT      C 1349   6.340   3.255   0.837 -0.1265  0.0537 -0.1756
  270ODT      C 1350   6.170   3.666   0.672 -0.3349 -0.0130  0.5228
  271ODT      C 1351   1.838   5.314   3.535 -0.3549  0.0712 -0.2309
  271ODT      D 1352   1.833   5.038   3.285 -0.1154 -0.1378 -0.2697
  271ODT      C 1353   1.930   4.815   2.964  0.1586 -0.2302  0.1231
  271ODT      C 1354   2.032   4.495   2.677 -0.0771  0.0388 -0.0536
  271ODT      C 1355   1.744   4.124   2.488  0.0271  0.0992  0.4316
  272ODT      C 1356   3.299   2.221   3.454  0.0114  0.1529 -0.3466
  272ODT      D 1357   3.122   1.912   3.173 -0.2605  0.0016 -0.2388
  272ODT      C 1358   3.045   1.654   2.773  0.0799  0.1498  0.0726
  272ODT      C 1359   2.825   1.273   2.557  0.0348 -0.0225  0.2188
  272ODT      C 1360   2.611   1.107   2.254  0.2335  0.1215 -0.0685
  273ODT      C 1361   3.984   1.773   0.529  0.0395 -0.0255 -0.0629
  273ODT      D 1362   4.472   1.881   0.368 -0.2113  0.1383 -0.0560
  273ODT      C 1363   4.782   1.910   0.071 -0.1625  0.0207  0.0813
  273ODT      C 1364   5.012   2.286   0.051 -0.1443  0.0347  0.0345
  273ODT      C 1365   5.306   2.525   0.102  0.1195 -0.0573 -0.1677
  274ODT      C 1366   3.491   3.119   3.962  0.0358  0.2052 -0.0506
  274ODT      D 1367   3.783   3.134   4.207 -0.2775 -0.0065 -0.0761
  274ODT      C 1368   4.128   2.968   4.390  0.0664 -0.0853 -0.1265
  274ODT      C 1369   4.185   2.430   4.301 -0.1154  0.1080  0.0655
  274ODT      C 1370   4.218   2.099   3.980  0.3801  0.1522 -0.1131
  275ODT      C 1371   2.060   3.601   4.356  0.1186 -0.0716 -0.1484
  275ODT      D 1372   1.799   3.812   4.565  0.1766 -0.1170 -0.0637
  275ODT      C 1373   1.430   4.214   4.600 -0.0725 -0.0263 -0.0826
  275ODT      C 1374   1.177   4.304   4.260  0.1652 -0.4433 -0.0092
  275ODT      C 1375   0.995   4.749   4.174  0.1620  0.1169  0.1380
  276ODT      C 1376   2.948   5.693   3.035  0.0453 -0.3020 -0.2024
  276ODT      D 1377   2.608   5.833   2.807 -0.2918 -0.2693 -0.1583
  276ODT      C 1378   2.237   5.571   2.664 -0.0691 -0.1510  0.0741
  276ODT      C 1379   2.059   5.315   2.746 -0.1612  0.0653  0.2630
  276ODT      C 1380   1.640   5.360   2.954 -0.1749 -0.1723  0.0182
  277ODT      C 1381   2.790   4.789   5.925  0.1573  0.2124 -0.0705
  277ODT      D 1382   3.016   4.722   6.281  0.0105 -0.2639 -0.1392
  277ODT      C 1383   3.239   4.651   6.586  0.1450 -0.4010 -0.0315
  277ODT      C 1384   3.742   4.683   6.625  0.1288 -0.3201  0.0524
  277ODT      C 1385   4.043   5.043   6.654  0.1916 -0.2069 -0.1392
  278ODT      C 1386   4.648   2.088   3.540 -0.4109  0.0228  0.2241
  278ODT      D 1387   4.867   2.435   3.488  0.1877 -0.0591 -0.2003
  278ODT      C 1388   5.076   2.816   3.325  0.1042  0.1263  0.0867
  278ODT      C 1389   5.129   3.170   2.956 -0.0318  0.1057  0.0789
  278ODT      C 1390   5.000   3.508   2.825  0.2724  0.0298  0.0305
  279ODT      C 1391   4.635   2.291   6.788 -0.1956 -0.1693  0.0858
  279ODT      D 1392   4.924   2.324   6.509  0.0863 -0.2459 -0.3355
  279ODT      C 1393   5.131   2.147   6.380  0.0902 -0.1828 -0.0457
  279ODT      C 1394   5.049   1.747   6.191 -0.2963 -0.2207 -0.1035
  279ODT      C 1395   4.950   1.286   6.069  0.1214 -0.3668 -0.0094
  280ODT      C 1396   6.448   3.086   6.088  0.5229  0.3465 -0.1627
  280ODT      D 1397   6.329   3.257   5.643 -0.0677 -0.0177  0.2425
  280ODT      C 1398   6.108   3.572   5.412  0.1885 -0.2526  0.0192
  280ODT      C 1399   6.168   3.975   5.106  0.0192  0.4642  0.0472
  280ODT      C 1400   6.437   4.227   4.957 -0.0480  0.0513 -0.0385
  281ODT      C 1401   4.591   4.791   4.950  0.0774 -0.0244  0.2280
  281ODT      D 1402   4.446   4.393   4.865 -0.1339 -0.1913 -0.0693
  281ODT      C 1403   4.274   3.983   5.089  0.0121  0.1393  0.3240
  281ODT      C 1404   4.145   3.706   5.045  0.0647 -0.1649 -0.2917
  281ODT      C 1405   4.188   3.475   5.355  0.2173  0.1923  0.0321
  282ODT      C 1406   4.866   0.900   1.079  0.0416  0.0941  0.1539
  282ODT      D 1407   5.030   1.049   0.739  0.1014 -0.1338 -0.1862
  282ODT      C 1408   5.258   1.263   0.483  0.1395  0.1225  0.0090
  282ODT      C 1409   5.575   1.577   0.460 -0.0407  0.2707 -0.1813
  282ODT      C 1410   5.917   1.687   0.128 -0.1123  0.0956 -0.2023
  283ODT      C 1411   0.440   3.064   4.964 -0.1421 -0.0662 -0.3186
  283ODT      D 1412   0.837   3.128   5.294 -0.4890  0.0512  0.0237
  283ODT      C 1413   0.921   3.284   5.666 -0.2116 -0.0636 -0.2810
  283ODT      C 1414   1.012   3.698   5.909  0.1141  0.0066  0.0743
  283ODT      C 1415   0.644   3.990   5.790 -0.1629  0.2355  0.2494
  284ODT      C 1416   5.323   1.922   5.179  0.1668 -0.2878  0.0410
  284ODT      D 1417   4.975   2.170   5.075  0.3150  0.2290 -0.0245
  284ODT      C 1418   4.534   2.197   4.854 -0.1637  0.0039  0.1853
  284ODT      C 1419   4.149   2.045   4.674  0.1259  0.0167 -0.4051
  284ODT      C 1420   3.947   1.712   4.629 -0.0412 -0.0979 -0.0737
  285ODT      C 1421   7.426   7.031   6.248  0.0445  0.1051  0.1618
  285ODT      D 1422   7.271   6.663   6.026 -0.2120  0.1188 -0.0733
  285ODT      C 1423   7.299   6.222   5.975  0.1270 -0.1819 -0.4362
  285ODT      C 1424   7.112   5.898   5.833  0.0861 -0.2022 -0.1573
  285ODT      C 1425   7.099   5.632   5.565 -0.0399  0.0573 -0.0507
  286ODT      C 1426   2.482   3.234   3.781  0.1157 -0.1073 -0.1221
  286ODT      D 1427   2.562   3.394   4.213  0.5757 -0.3000  0.2803
  286ODT      C 1428   2.386   3.392   4.614  0.2443 -0.1506  0.0485
  286ODT      C 1429   2.619   3.502   4.916 -0.0577  0.0455  0.1148
  286ODT      C 1430   2.895   3.733   5.141 -0.0605  0.0914 -0.1161
  287ODT      C 1431   6.817   1.167   3.906  0.1822  0.0283 -0.1688
  287ODT      D 1432   6.700   1.244   4.337 -0.2332  0.1045 -0.1352
  287ODT      C 1433   6.264   1.122   4.532  0.0342  0.0895 -0.0268
  287ODT      C 1434   6.054   0.810   4.795 -0.1452  0.1365 -0.1732
  287ODT      C 1435   5.669   0.519   4.848 -0.1930 -0.1744  0.1217
  288ODT      C 1436   6.474   2.069   3.041 -0.1048  0.2673 -0.1045
  288ODT      D 1437   6.807   2.087   3.374 -0.0617 -0.4158 -0.2428
  288ODT      C 1438   7.083   1.904   3.778 -0.2377  0.1588  0.0153
  288ODT      C 1439   7.183   1.547   3.971  0.1300 -0.0357  0.0691
  288ODT      C 1440   7.233   1.319   4.330 -0.0745 -0.3652 -0.3317
  289ODT      C 1441   0.448   1.804   2.206 -0.1008 -0.2489 -0.2965
  289ODT      D 1442   0.387   2.185   2.301  0.0103 -0.2893 -0.1844
  289ODT      C 1443   0.658   2.489   2.337  0.0341  0.1866 -0.1460
  289ODT      C 1444   0.991   2.725   2.256 -0.0919  0.3410  0.1290
  289ODT      C 1445   1.311   2.739   1.816 -0.2876 -0.0685  0.2456
  290ODT      C 1446   6.477   0.492   5.008  0.1114 -0.0359 -0.0908
  290ODT      D 1447   6.932   0.784   4.997 -0.1589  0.0991 -0.2983
  290ODT      C 1448   7.359   1.000   4.756 -0.1664 -0.1054  0.2258
  290ODT      C 1449   7.537   1.407   4.701 -0.1510 -0.2637 -0.0952
  290ODT      C 1450   7.645   1.771   4.828  0.0730  0.1659  0.0181
  291ODT      C 1451   3.527   1.948   2.078  0.0385 -0.1058 -0.1406
  291ODT      D 1452   3.153   1.967   1.801  0.2233  0.0970  0.3049
  291ODT      C 1453   2.888   1.876   1.443 -0.2270  0.2879  0.1057
  291ODT      C 1454   2.821   1.440   1.286 -0.1725 -0.2741  0.0653
  291ODT      C 1455   2.716   1.275   1.642  0.2463 -0.0075  0.3154
  292ODT      C 1456   5.362   3.662   4.690  0.0136 -0.1093  0.1240
  292ODT      D 1457   4.872   3.524   4.597  0.1027 -0.1649 -0.0616
  292ODT      C 1458   4.439   3.460   4.354  0.1128 -0.2277 -0.1416
  292ODT      C 1459   4.410   3.241   3.869  0.3745 -0.0236 -0.0793
  292ODT      C 1460   4.175   2.826   3.885  0.0109 -0.5187  0.1131
  293ODT      C 1461   5.483   1.872   1.445  0.0799  0.0274 -0.2456
  293ODT      D 1462   5.802   2.049   1.176  0.0725 -0.0342  0.2659
  293ODT      C 1463   6.025   2.374   0.925 -0.0677  0.0576  0.0541
  293ODT      C 1464   6.236   2.784   1.102  0.0203 -0.1045 -0.0671
  293ODT      C 1465   5.978   3.192   1.351  0.0385 -0.1217  0.2211
  294ODT      C 1466   7.502   0.720   5.983  0.1826  0.2365 -0.2652
  294ODT      D 1467   7.746   1.100   5.729 -0.3172 -0.1970  0.0180
  294ODT      C 1468   7.986   1.409   5.674  0.4422 -0.1398  0.0981
  294ODT      C 1469   8.049   1.820   5.650  0.1270  0.1931  0.2435
  294ODT      C 1470   7.872   2.066   5.302  0.2494 -0.2817 -0.0535
  295ODT      C 1471   4.648   3.748   0.594 -0.0235 -0.0038 -0.1841
  295ODT      D 1472   4.526   4.128   0.495 -0.0431 -0.0765 -0.0444
  295ODT      C 1473   4.365   4.444   0.568 -0.2435  0.1345 -0.1001
  295ODT      C 1474   4.136   4.747   0.873  0.1167 -0.4273 -0.0084
  295ODT      C 1475   3.814   5.156   1.122 -0.0799 -0.0130 -0.1747
  296ODT      C 1476   8.593   2.110   0.602  0.1648 -0.2584  0.2816
  296ODT      D 1477   8.481   1.766   0.772  0.0492 -0.0475 -0.0632
  296ODT      C 1478   8.190   1.443   0.899  0.3241  0.0773 -0.0143
  296ODT      C 1479   7.763   1.362   0.889 -0.1001  0.1727  0.2613
  296ODT      C 1480   7.396   1.138   0.899 -0.0840  0.0164 -0.0184
  297ODT      C 1481   0.094   3.443   0.660 -0.0058  0.1744  0.1117
  297ODT      D 1482   0.249   3.892   0.438 -0.0432  0.1857 -0.1728
  297ODT      C 1483   0.364   3.921  -0.009  0.0319  0.3099 -0.1331
  297ODT      C 1484   0.347   3.835  -0.416 -0.3495 -0.0855  0.0701
  297ODT      C 1485   0.456   3.877  -0.903  0.1016 -0.0369 -0.1473
  298ODT      C 1486   8.830   4.997   1.892  0.4892  0.0109  0.0129
  298ODT      D 1487   9.190   5.138   2.117  0.1485  0.0214 -0.1499
  298ODT      C 1488   9.476   5.497   2.120 -0.4753  0.0837 -0.3770
  298ODT      C 1489   9.415   5.900   1.851  0.1809  0.1359 -0.1471
  298ODT      C 1490   9.177   6.183   1.843  0.2378 -0.0613 -0.0032
  299ODT      C 1491   7.627   4.728   4.591 -0.0505  0.0179  0.0750
  299ODT      D 1492   7.148   4.673   4.432 -0.0817 -0.1648  0.1475
  299ODT      C 1493   6.832   4.971   4.345  0.1780 -0.0858  0.4236
  299ODT      C 1494   6.477   4.835   4.329  0.2931  0.2268 -0.1075
  299ODT      C 1495   6.203   4.995   4.025 -0.1775  0.2288  0.0803
  300ODT      C 1496   0.810   3.953   4.053  0.1391 -0.0453 -0.0501
  300ODT      D 1497   0.794   4.264   3.751  0.2303 -0.0041  0.0500
  300ODT      C 1498   0.722   4.518   3.422  0.1075 -0.0079  0.2635
  300ODT      C 1499   0.612   4.492   2.999  0.2349  0.2525  0.1851
  300ODT      C 1500   0.476   4.648   2.624  0.1981 -0.1039 -0.2868
  301ODT      C 1501   7.097   4.726   3.936 -0.1030 -0.0906 -0.0975
  301ODT      D 1502   6.758   4.438   4.129 -0.2066  0.1234 -0.0077
  301ODT      C 1503   6.525   4.032   4.100  0.0559 -0.0926 -0.1238
  301ODT      C 1504   6.453   3.703   3.909  0.3404  0.1152 -0.1817
  301ODT      C 1505   6.391   3.204   3.953 -0.1324 -0.2368 -0.0336
  302ODT      C 1506   6.070   5.731   0.091  0.2506 -0.2186 -0.1246
  302ODT      D 1507   6.461   5.926   0.254  0.2632 -0.1015 -0.1078
  302ODT      C 1508   6.646   6.194   0.529  0.0380  0.1647 -0.1438
  302ODT      C 1509   7.172   6.229   0.666  0.0935 -0.1762  0.1835
  302ODT      C 1510   7.565   6.374   0.720 -0.1076 -0.3903  0.1266
  303ODT      C 1511   4.752   7.078   5.337 -0.0316  0.3651  0.0320
  303ODT      D 1512   5.199   7.107   5.472  0.0397 -0.2081 -0.2807
  303ODT      C 1513   5.546   7.310   5.269  0.1793  0.2638 -0.3385
  303ODT      C 1514   6.015   7.397   5.151  0.1576  0.1236  0.1164
  303ODT      C 1515   6.059   7.803   5.307 -0.2674 -0.0816 -0.3164
  304ODT      C 1516   2.544   1.083   4.180 -0.1173 -0.0923 -0.2546
  304ODT      D 1517   2.785   0.739   4.446  0.0634  0.0393  0.0264
  304ODT      C 1518   2.678   0.236   4.319  0.1995 -0.0372 -0.2455
  304ODT      C 1519   2.598  -0.278   4.264  0.2605  0.1341  0.4187
  304ODT      C 1520   2.381  -0.552   3.951 -0.0120  0.0194 -0.0923
  305ODT      C 1521   9.171   1.713   0.019 -0.2101  0.1449  0.0175
  305ODT      D 1522   8.709   1.612  -0.094 -0.0960 -0.0948 -0.2253
  305ODT      C 1523   8.322   1.324  -0.019 -0.0629  0.3454  0.1412
  305ODT      C 1524   7.915   1.090   0.134  0.0454 -0.0903 -0.2024
  305ODT      C 1525   7.506   0.895  -0.062  0.1398 -0.0317  0.0294
  306ODT      C 1526   9.191   4.464   4.072  0.1435  0.0679 -0.2114
  306ODT      D 1527   8.875   4.192   4.384 -0.3749 -0.1427  0.0693
  306ODT      C 1528   8.866   3.742   4.620  0.2182 -0.1329  0.3376
  306ODT      C 1529   9.144   3.368   4.738 -0.0445  0.0532  0.0055
  306ODT      C 1530   9.510   3.287   4.997  0.1420  0.0995  0.3263
  307ODT      C 1531   5.060   4.281   0.598  0.1245 -0.0537 -0.1186
  307ODT      D 1532   5.095   3.992   0.915 -0.1899 -0.0248 -0.1319
  307ODT      C 1533   4.993   3.683   1.301  0.0112 -0.1751  0.0054
  307ODT      C 1534   5.087   3.344   1.594  0.4085 -0.1215 -0.3999
  307ODT      C 1535   5.197   3.341   2.081  0.1299 -0.1218 -0.1292
  308ODT      C 1536   5.402   5.058   7.147  0.0325 -0.1772 -0.0964
  308ODT      D 1537   5.094   5.320   7.313  0.0701  0.2165 -0.1256
  308ODT      C 1538   4.987   5.721   7.534 -0.1076 -0.0087  0.1243
  308ODT      C 1539   4.558   6.001   7.499  0.2912  0.3651  0.1960
  308ODT      C 1540   4.332   6.252   7.134 -0.0454  0.1471  0.3977
  309ODT      C 1541   2.536   0.866   2.861 -0.3016 -0.0069  0.1122
  309ODT      D 1542   2.223   1.204   2.646  0.0714  0.1328 -0.1301
  309ODT      C 1543   1.876   1.423   2.436  0.0340 -0.0326 -0.2503
  309ODT      C 1544   1.724   1.563   2.054 -0.1587 -0.0860 -0.1363
  309ODT      C 1545   1.348   1.783   2.027  0.1662  0.1520 -0.2063
  310ODT      C 1546   2.798   6.577   6.612 -0.0270 -0.1305  0.1111
  310ODT      D 1547   2.341   6.509   6.850  0.2034  0.2687 -0.0150
  310ODT      C 1548   1.916   6.580   6.997  0.1849  0.0286 -0.0810
  310ODT      C 1549   1.539   6.630   6.700 -0.3443 -0.1734 -0.0193
  310ODT      C 1550   1.131   6.608   6.403 -0.2027  0.0825  0.1964
  311ODT      C 1551   2.641   1.773   1.919 -0.1518  0.1235  0.0890
  311ODT      D 1552   2.673   2.230   1.735  0.0134 -0.0749  0.2380
  311ODT      C 1553   2.792   2.650   1.551  0.1749 -0.0636  0.1499
  311ODT      C 1554   3.097   2.956   1.412 -0.1582 -0.0220  0.0188
  311ODT      C 1555   3.199   3.435   1.432  0.2275  0.1454  0.0097
  312ODT      C 1556   4.014   0.521   6.501  0.2424  0.0115 -0.2030
  312ODT      D 1557   3.663   0.506   6.494 -0.1059 -0.0210  0.0085
  312ODT      C 1558   3.399   0.761   6.659 -0.3476  0.1018  0.1602
  312ODT      C 1559   3.244   1.138   6.915  0.1095 -0.1839 -0.3305
  312ODT      C 1560   3.277   1.385   7.379 -0.0823 -0.0604  0.1204
  313ODT      C 1561   2.876   4.686   4.083  0.0465 -0.0066  0.0365
  313ODT      D 1562   3.064   4.270   4.249 -0.2457  0.0358 -0.0677
  313ODT      C 1563   3.196   3.897   4.275 -0.3067 -0.2261 -0.1099
  313ODT      C 1564   3.211   3.440   4.242 -0.3005 -0.2627  0.1399
  313ODT      C 1565   2.963   3.126   4.063 -0.0020  0.1372  0.0957
  314ODT      C 1566   0.247   6.550   5.426  0.1187  0.1089 -0.0039
  314ODT      D 1567   0.475   6.409   5.780  0.1425  0.0571 -0.0631
  314ODT      C 1568   0.732   6.322   6.155 -0.3538  0.2076 -0.0404
  314ODT      C 1569   1.020   6.136   6.455 -0.1864 -0.2555  0.3178
  314ODT      C 1570   1.141   6.190   6.868  0.0885 -0.1662 -0.1019
  315ODT      C 1571   5.868   3.079   6.253  0.0694  0.1730  0.4043
  315ODT      D 1572   6.002   2.970   5.875 -0.0279  0.0555  0.0080
  315ODT      C 1573   6.062   2.630   5.693 -0.0699  0.1158 -0.2876
  315ODT      C 1574   5.970   2.256   5.498  0.0243  0.0215 -0.2723
  315ODT      C 1575   6.115   1.888   5.447 -0.0922  0.0943  0.1489
  316ODT      C 1576   6.375   2.565   3.089  0.1806 -0.0816  0.2195
  316ODT      D 1577   6.470   2.484   3.498  0.1303  0.1086 -0.3112
  316ODT      C 1578   6.468   2.623   3.941  0.3343  0.1121  0.0041
  316ODT      C 1579   6.385   2.659   4.515  0.4093 -0.0119  0.0374
  316ODT      C 1580   6.169   2.316   4.634 -0.3245 -0.1381  0.0086
  317ODT      C 1581   5.947   6.010   1.468  0.4184 -0.1046  0.0416
  317ODT      D 1582   5.845   6.082   1.092  0.2692  0.0568  0.2812
  317ODT      C 1583   6.024   6.068   0.629 -0.3556  0.1794 -0.2957
  317ODT      C 1584   6.004   6.206   0.166 -0.1347 -0.0643 -0.0625
  317ODT      C 1585   6.421   6.124  -0.208  0.3957  0.0091  0.0311
  318ODT      C 1586   7.204   6.565   1.624  0.0919  0.1605  0.0288
  318ODT      D 1587   7.278   6.728   1.900 -0.0124 -0.0465 -0.0378
  318ODT      C 1588   7.351   6.612   2.228  0.1354 -0.0923  0.2334
  318ODT      C 1589   7.113   6.474   2.600 -0.0232 -0.0948  0.3727
  318ODT      C 1590   6.723   6.564   2.929 -0.1566 -0.1358  0.2233
  319ODT      C 1591   1.299   5.279   4.541 -0.1654 -0.0820  0.0244
  319ODT      D 1592   1.116   5.600   4.224 -0.1672  0.0245  0.0474
  319ODT      C 1593   1.105   6.066   4.192  0.0993 -0.0494  0.3738
  319ODT      C 1594   1.213   6.373   4.454  0.1729 -0.1256  0.0847
  319ODT      C 1595   1.173   6.523   4.863  0.1173 -0.1976 -0.3239
  320ODT      C 1596   6.772   5.535   5.156  0.1201 -0.2822 -0.0929
  320ODT      D 1597   6.624   5.114   5.110  0.0113  0.0681  0.0029
  320ODT      C 1598   6.613   4.616   5.262 -0.0673  0.0024 -0.0730
  320ODT      C 1599   6.799   4.234   5.271  0.1213  0.0142  0.1012
  320ODT      C 1600   7.011   4.026   4.960  0.1637  0.1438 -0.1120
  321ODT      C 1601   5.426   5.130   2.740  0.2029 -0.0738 -0.0231
  321ODT      D 1602   5.785   5.468   2.699 -0.0496  0.1471 -0.0678
  321ODT      C 1603   6.130   5.395   2.624 -0.1734  0.2485  0.0197
  321ODT      C 1604   6.564   5.268   2.801 -0.1924  0.2322 -0.1088
  321ODT      C 1605   6.920   5.314   3.053 -0.0514 -0.3423 -0.4004
  322ODT      C 1606   0.428   1.251   5.185  0.0275 -0.0471 -0.2855
  322ODT      D 1607   0.095   1.032   5.174  0.0061 -0.1444 -0.2384
  322ODT      C 1608  -0.162   0.837   4.888  0.1086  0.3965 -0.0080
  322ODT      C 1609  -0.597   0.693   4.845  0.2125  0.3579 -0.2691
  322ODT      C 1610  -1.066   0.809   4.880  0.1787  0.0929  0.2633
  323ODT      C 1611   4.005   2.400   6.033 -0.0875  0.1044 -0.1123
  323ODT      D 1612   4.330   2.172   5.654 -0.0120  0.2152 -0.1541
  323ODT      C 1613   4.529   2.068   5.330 -0.0742  0.1154  0.2918
  323ODT      C 1614   4.802   1.704   5.341 -0.3016  0.2529 -0.1797
  323ODT      C 1615   4.762   1.363   5.584  0.1253 -0.2174 -0.0990
  324ODT      C 1616   1.021   0.377   6.382 -0.1085  0.0019  0.2092
  324ODT      D 1617   0.705   0.265   5.984  0.0452  0.1370  0.1934
  324ODT      C 1618   0.422   0.255   5.740  0.0849 -0.2223  0.2292
  324ODT      C 1619   0.004   0.363   5.699  0.1956  0.0740 -0.0304
  324ODT      C 1620  -0.398   0.344   5.553 -0.0705 -0.0480  0.1758
  325ODT      C 1621   3.585   4.831   6.185  0.2088 -0.1693  0.4565
  325ODT      D 1622   4.016   5.021   6.163  0.2672 -0.1759 -0.2856
  325ODT      C 1623   4.433   5.154   6.060 -0.1905 -0.0463  0.1832
  325ODT      C 1624   4.709   5.237   5.763 -0.1225  0.0425 -0.5027
  325ODT      C 1625   4.902   5.094   5.396 -0.2609  0.0872  0.0153
  326ODT      C 1626   9.047   2.171   6.954  0.0060  0.1228  0.1875
  326ODT      D 1627   9.226   1.923   6.650 -0.4976  0.0424  0.1583
  326ODT      C 1628   9.255   1.661   6.329  0.2251 -0.2730 -0.1250
  326ODT      C 1629   9.575   1.742   5.917  0.0690  0.2169  0.1087
  326ODT      C 1630  10.042   1.888   5.831  0.4514  0.0261 -0.1898
  327ODT      C 1631   6.798   0.443   5.390 -0.0411 -0.0646 -0.1343
  327ODT      D 1632   6.368   0.238   5.563  0.0448 -0.1331  0.1512
  327ODT      C 1633   5.906   0.054   5.618  0.0170  0.3182  0.1765
  327ODT      C 1634   5.436   0.132   5.851 -0.0159  0.0036 -0.1126
  327ODT      C 1635   5.047  -0.066   5.949 -0.1433  0.1757 -0.1045
  328ODT      C 1636   3.086   6.681   4.215  0.2206 -0.3601 -0.3705
  328ODT      D 1637   2.927   6.815   4.635  0.0576  0.0260 -0.0257
  328ODT      C 1638   2.956   6.705   5.081 -0.1979 -0.1409 -0.0841
  328ODT      C 1639   2.836   6.767   5.477  0.2802  0.2459 -0.3044
  328ODT      C 1640   2.453   6.946   5.717  0.0200  0.2286  0.1623
  329ODT      C 1641   4.547   4.310   5.417 -0.1437  0.2145 -0.0493
  329ODT      D 1642   4.973   4.262   5.664  0.0167  0.1146  0.1188
  329ODT      C 1643   5.380   4.293   5.679  0.0861  0.4676  0.0560
  329ODT      C 1644   5.778   4.245   5.894 -0.2001  0.3747  0.0391
  329ODT      C 1645   5.938   4.048   6.159  0.0114  0.1829  0.2269
  330ODT      C 1646   0.058   3.030   4.577 -0.3852 -0.2641 -0.2576
  330ODT      D 1647   0.033   2.783   5.048 -0.3392 -0.2145 -0.0098
  330ODT      C 1648  -0.117   2.573   5.389 -0.1968 -0.3262 -0.1556
  330ODT      C 1649  -0.313   2.217   5.532  0.2689  0.2970  0.1385
  330ODT      C 1650  -0.675   2.102   5.788  0.2810 -0.3086 -0.0460
  331ODT      C 1651   0.669   2.033   6.876 -0.2453 -0.1600 -0.2633
  331ODT      D 1652   0.698   1.618   6.742 -0.1758 -0.2856  0.1978
  331ODT      C 1653   0.512   1.354   6.548  0.0054 -0.1141  0.1284
  331ODT      C 1654   0.154   1.241   6.368 -0.0307 -0.0231  0.2316
  331ODT      C 1655  -0.182   1.067   6.418 -0.1170 -0.0508 -0.0205
  332ODT      C 1656   2.163   1.525   4.652 -0.3269  0.1514  0.1398
  332ODT      D 1657   2.120   1.979   4.481  0.2356 -0.0324  0.1527
  332ODT      C 1658   1.910   2.380   4.522 -0.0990 -0.1950  0.1280
  332ODT      C 1659   2.042   2.789   4.460  0.1345  0.0894  0.2630
  332ODT      C 1660   2.132   3.079   4.333  0.0097  0.0527  0.0359
  333ODT      C 1661   4.019   6.804   1.784 -0.1641 -0.1102  0.2002
  333ODT      D 1662   3.798   6.694   1.498 -0.0822 -0.1103  0.0859
  333ODT      C 1663   3.426   6.445   1.454  0.2808 -0.1341  0.0944
  333ODT      C 1664   3.464   5.975   1.525 -0.1972  0.0466  0.0534
  333ODT      C 1665   3.327   5.712   1.712  0.0529 -0.2904  0.0656
  334ODT      C 1666   0.662   4.738   0.456 -0.0210  0.0402  0.2884
  334ODT      D 1667   0.922   4.756   0.832 -0.0945 -0.1737  0.1963
  334ODT      C 1668   1.010   5.107   1.146 -0.4125  0.0596 -0.3094
  334ODT      C 1669   1.166   5.271   1.583  0.2644 -0.1359 -0.1118
  334ODT      C 1670   1.463   5.242   1.876 -0.1196 -0.1262 -0.0183
  335ODT      C 1671   8.267   0.135   5.979  0.2104  0.1045 -0.2186
  335ODT      D 1672   8.253   0.397   6.322 -0.3782  0.2459  0.0548
  335ODT      C 1673   8.508   0.598   6.649 -0.1822  0.1944 -0.0370
  335ODT      C 1674   8.429   0.675   7.069  0.0773  0.0151 -0.0850
  335ODT      C 1675   7.961   0.578   7.203 -0.2006 -0.1358 -0.1238
  336ODT      C 1676   7.194   6.415   3.098  0.0213 -0.2238 -0.0346
  336ODT      D 1677   7.188   6.831   2.911 -0.0243 -0.0570  0.1870
  336ODT      C 1678   7.053   7.188   3.213 -0.3990  0.0457 -0.2869
  336ODT      C 1679   6.876   7.499   3.414  0.0610  0.0383  0.0024
  336ODT      C 1680   6.712   7.831   3.741 -0.2597  0.0231  0.0565
  337ODT      C 1681   1.308   3.102   5.988  0.0519 -0.0596 -0.0588
  337ODT      D 1682   1.367   2.689   6.174  0.2207  0.2973  0.1806
  337ODT      C 1683   1.233   2.348   6.531 -0.0027  0.0167  0.0283
  337ODT      C 1684   1.195   2.046   6.872 -0.2180 -0.0017  0.3059
  337ODT      C 1685   1.439   1.996   7.230 -0.2581  0.0924  0.1993
  338ODT      C 1686   5.277   4.542   6.785 -0.1392 -0.1042  0.3399
  338ODT      D 1687   5.250   4.028   6.811 -0.0047 -0.2078 -0.2492
  338ODT      C 1688   5.270   3.595   7.018  0.3814  0.0413  0.0410
  338ODT      C 1689   5.493   3.394   7.255  0.1294 -0.1137 -0.2685
  338ODT      C 1690   5.694   3.287   7.664  0.3816  0.0215  0.3094
  339ODT      C 1691   0.184   0.132   4.376 -0.0362 -0.1384 -0.0574
  339ODT      D 1692   0.227   0.542   4.281 -0.1331  0.2635  0.0162
  339ODT      C 1693   0.338   0.880   4.206  0.0635  0.1904 -0.2312
  339ODT      C 1694   0.717   0.845   4.328  0.2786  0.1886 -0.4611
  339ODT      C 1695   1.261   1.006   4.394 -0.0946 -0.3163  0.0942
  340ODT      C 1696   7.071   1.428   2.226  0.0962 -0.0706  0.0199
  340ODT      D 1697   7.230   1.491   1.805  0.1637  0.2816 -0.1476
  340ODT      C 1698   7.275   1.448   1.385  0.0100  0.1000  0.4187
  340ODT      C 1699   7.168   1.645   0.961 -0.1405 -0.0898 -0.0634
  340ODT      C 1700   6.924   1.887   0.754  0.1038  0.0756  0.3238
  341ODT      C 1701   4.165   3.903   4.540  0.0121  0.3015 -0.3654
  341ODT      D 1702   3.843   4.238   4.489  0.0752  0.1725  0.1013
  341ODT      C 1703   3.704   4.625   4.763 -0.1703  0.0085 -0.0068
  341ODT      C 1704   3.615   4.995   5.088 -0.0432 -0.0951 -0.0580
  341ODT      C 1705   3.312   5.281   5.293  0.2049 -0.0812  0.3307
  342ODT      C 1706   9.133   0.857   0.438 -0.0106 -0.2164  0.2536
  342ODT      D 1707   8.953   0.979   0.866 -0.4566  0.3198  0.0778
  342ODT      C 1708   9.215   1.207   1.155  0.0213  0.0372  0.0604
  342ODT      C 1709   8.909   1.274   1.432  0.1348  0.2136 -0.1928
  342ODT      C 1710   9.158   1.366   1.727  0.1859 -0.0736 -0.1367
  343ODT      C 1711   5.945   1.666   3.851  0.1931  0.0979 -0.3289
  343ODT      D 1712   5.925   1.319   4.207  0.0126 -0.0995  0.0381
  343ODT      C 1713   5.705   1.129   4.507 -0.0408  0.0518  0.0519
  343ODT      C 1714   5.614   1.170   4.951  0.0649  0.0542 -0.0890
  343ODT      C 1715   5.523   0.855   5.264  0.1887  0.0554 -0.0107
  344ODT      C 1716   3.181   3.516   2.333  0.1800 -0.1163  0.3043
  344ODT      D 1717   3.018   3.255   2.610  0.4235 -0.1210 -0.2526
  344ODT      C 1718   3.019   3.018   2.944  0.0863 -0.0371 -0.0959
  344ODT      C 1719   2.731   3.145   3.261 -0.1019 -0.2220  0.1444
  344ODT      C 1720   2.351   3.504   3.277 -0.1700 -0.0875  0.2563
  345ODT      C 1721   5.640   5.819   0.382 -0.2364 -0.0292 -0.0220
  345ODT      D 1722   5.799   5.551   0.745 -0.3100 -0.0994  0.1147
  345ODT      C 1723   5.893   5.217   0.848  0.1572  0.0016  0.3136
  345ODT      C 1724   6.284   5.034   0.872 -0.3472 -0.0703  0.1853
  345ODT      C 1725   6.545   4.935   1.317 -0.1572 -0.1840 -0.1957
  346ODT      C 1726   0.673   6.905   2.540  0.0985  0.0462  0.2177
  346ODT      D 1727   1.002   7.158   2.599  0.4239 -0.0439  0.0959
  346ODT      C 1728   1.099   7.379   2.993 -0.1551 -0.1004 -0.0876
  346ODT      C 1729   1.229   7.455   3.393  0.0263 -0.1635 -0.0860
  346ODT      C 1730   1.509   7.714   3.757 -0.1823  0.1679  0.2205
  347ODT      C 1731   7.947   4.883   0.142 -0.0284 -0.1773 -0.2763
  347ODT      D 1732   8.090   5.331   0.221  0.1289  0.1653 -0.1163
  347ODT      C 1733   7.970   5.651   0.523  0.1773 -0.2410 -0.0643
  347ODT      C 1734   7.978   6.159   0.606  0.0106 -0.0041  0.0598
  347ODT      C 1735   8.231   6.412   0.347  0.1675 -0.0435  0.0394
  348ODT      C 1736   4.561   5.573   6.242  0.0019  0.0639 -0.2435
  348ODT      D 1737   4.397   5.449   6.662 -0.0231 -0.1814  0.2914
  348ODT      C 1738   4.415   5.155   6.929 -0.3994 -0.3029  0.2072
  348ODT      C 1739   4.360   4.707   6.955 -0.0419  0.0515 -0.1188
  348ODT      C 1740   4.109   4.366   6.788 -0.2471  0.2242  0.1084
  349ODT      C 1741   8.131   1.825   7.146  0.2499  0.1812  0.0484
  349ODT      D 1742   7.877   1.543   7.037  0.0376  0.1218 -0.0906
  349ODT      C 1743   7.533   1.474   6.981 -0.1356 -0.0868  0.1986
  349ODT      C 1744   7.135   1.314   7.112 -0.0155  0.2239  0.3254
  349ODT      C 1745   6.946   0.847   7.326 -0.3970 -0.1488  0.3544
  350ODT      C 1746   6.901   1.852   4.729  0.1868  0.1366 -0.1637
  350ODT      D 1747   7.189   1.851   5.014 -0.0721 -0.0115  0.3235
  350ODT      C 1748   7.460   1.789   5.339  0.0734 -0.1511 -0.1473
  350ODT      C 1749   7.476   1.542   5.676 -0.0266 -0.1554  0.0843
  350ODT      C 1750   7.517   1.263   6.100  0.2770 -0.0208  0.0692
  351ODT      C 1751   1.023   1.158   7.010  0.0290 -0.2597 -0.0723
  351ODT      D 1752   1.016   1.596   7.149 -0.0988  0.1238 -0.2701
  351ODT      C 1753   0.964   1.994   7.326 -0.2773 -0.3703 -0.2815
  351ODT      C 1754   0.942   2.404   7.210  0.1828 -0.1220 -0.0556
  351ODT      C 1755   0.789   2.906   7.140  0.0356 -0.3064 -0.3487
  352ODT      C 1756   1.035   4.627   4.691  0.0158  0.0036  0.2458
  352ODT      D 1757   1.086   4.849   5.018  0.2714 -0.2854 -0.1787
  352ODT      C 1758   0.904   5.271   5.208  0.0855 -0.4048  0.3471
  352ODT      C 1759   0.800   5.717   5.166  0.0758  0.2460 -0.0873
  352ODT      C 1760   0.566   6.039   5.179  0.0462  0.0791 -0.0364
  353ODT      C 1761   0.892   1.768   3.039 -0.1853  0.3223  0.1800
  353ODT      D 1762   1.136   1.751   3.465 -0.4312  0.0165 -0.0341
  353ODT      C 1763   1.105   1.747   3.952  0.1717  0.2019  0.0394
  353ODT      C 1764   0.936   1.801   4.332  0.2211 -0.0263 -0.1363
  353ODT      C 1765   0.575   1.720   4.494  0.0314  0.1663 -0.0075
  354ODT      C 1766   8.881   0.530   1.762  0.0691 -0.1493  0.0029
  354ODT      D 1767   8.877   0.092   1.784 -0.1274 -0.2027  0.0528
  354ODT      C 1768   9.079  -0.211   1.553 -0.2327  0.2890  0.4023
  354ODT      C 1769   9.341  -0.597   1.426 -0.2633  0.1628 -0.3623
  354ODT      C 1770   9.389  -1.045   1.384 -0.0754 -0.1307  0.0887
  355ODT      C 1771   1.180   1.227   3.292 -0.2261  0.1479  0.0061
  355ODT      D 1772   1.554   1.453   3.430  0.3558 -0.0114 -0.1738
  355ODT      C 1773   1.946   1.873   3.404 -0.2318  0.2539  0.2201
  355ODT      C 1774   2.286   1.939   3.656 -0.2380 -0.0225 -0.1146
  355ODT      C 1775   2.576   2.266   3.760  0.1465 -0.1482  0.0928
  356ODT      C 1776   2.666   5.682   6.128 -0.3835 -0.1917 -0.0298
  356ODT      D 1777   2.874   5.707   6.509 -0.0079 -0.0992  0.3173
  356ODT      C 1778   3.156   5.582   6.792  0.3090  0.0877 -0.1524
  356ODT      C 1779   3.492   5.681   6.809  0.0272 -0.1816  0.2706
  356ODT      C 1780   3.925   5.618   6.726 -0.2263 -0.3148 -0.0611
  357ODT      C 1781   1.822   5.776   5.021  0.1142 -0.1709 -0.2932
  357ODT      D 1782   1.809   5.405   5.312  0.1449  0.0160 -0.2359
  357ODT      C 1783   2.034   5.058   5.206 -0.0361 -0.1021  0.0887
  357ODT      C 1784   2.023   4.788   4.990 -0.1757  0.1050 -0.1349
  357ODT      C 1785   2.344   4.528   4.950 -0.0550  0.3803 -0.1892
  358ODT      C 1786   6.593   4.319   1.197  0.1706  0.0006 -0.2261
  358ODT      D 1787   6.367   4.423   0.753 -0.3272 -0.0276 -0.0894
  358ODT      C 1788   6.367   4.593   0.436  0.1812 -0.0089  0.2185
  358ODT      C 1789   6.018   4.710   0.063 -0.1070 -0.0453 -0.2302
  358ODT      C 1790   5.793   4.879  -0.384 -0.2126  0.5702  0.1983
  359ODT      C 1791   2.513   1.245   3.197  0.1318 -0.0695 -0.1415
  359ODT      D 1792   2.121   0.995   3.224 -0.1423 -0.0181 -0.0445
  359ODT      C 1793   2.008   0.676   3.404 -0.0566  0.0701  0.1979
  359ODT      C 1794   1.930   0.178   3.386 -0.0169  0.1671  0.3468
  359ODT      C 1795   2.193  -0.151   3.620 -0.0316  0.1732  0.0513
  360ODT      C 1796   4.907   4.929   7.049 -0.4192 -0.1315 -0.0008
  360ODT      D 1797   4.754   4.671   6.702 -0.3499  0.0705 -0.0640
  360ODT      C 1798   4.970   4.564   6.417  0.4380  0.1746 -0.4481
  360ODT      C 1799   5.256   4.242   6.324 -0.0668 -0.0125  0.2143
  360ODT      C 1800   5.392   3.866   6.388 -0.2286  0.0486  0.2041
  361ODT      C 1801   4.617   1.909   6.334 -0.1271 -0.1631 -0.0243
  361ODT      D 1802   4.258   1.823   6.509 -0.0160  0.1033 -0.0710
  361ODT      C 1803   4.153   1.517   6.761  0.1855  0.2662  0.0533
  361ODT      C 1804   3.736   1.399   6.884  0.2628  0.1405  0.1077
  361ODT      C 1805   3.654   1.014   7.228  0.2120 -0.0478 -0.2889
  362ODT      C 1806   2.797   5.275   1.239  0.1207  0.0437  0.1224
  362ODT      D 1807   2.659   5.261   0.886 -0.3325  0.0575 -0.1043
  362ODT      C 1808   2.689   5.076   0.591 -0.0661 -0.1741  0.2769
  362ODT      C 1809   2.884   4.799   0.288 -0.0368  0.0500 -0.0380
  362ODT      C 1810   2.932   4.502  -0.180 -0.4683 -0.0859 -0.4435
  363ODT      C 1811   1.414   1.404   1.689  0.2076  0.0095 -0.0071
  363ODT      D 1812   1.349   1.276   2.182 -0.2043 -0.0931  0.1124
  363ODT      C 1813   1.500   0.980   2.494  0.1169  0.0917  0.0501
  363ODT      C 1814   1.314   0.877   2.848 -0.1551 -0.1049 -0.0038
  363ODT      C 1815   1.069   0.694   3.154  0.0593  0.3105 -0.2170
  364ODT      C 1816   2.795   0.079   2.280  0.0369  0.3160  0.0298
  364ODT      D 1817   2.875   0.247   2.652  0.0789  0.2941 -0.2114
  364ODT      C 1818   2.913   0.353   3.077  0.0930  0.2284 -0.1082
  364ODT      C 1819   3.104   0.398   3.370 -0.0858 -0.1834 -0.1751
  364ODT      C 1820   3.313   0.671   3.673 -0.0208  0.2854 -0.0030
  365ODT      C 1821   3.049   4.204   3.762  0.3525  0.0459  0.1140
  365ODT      D 1822   3.062   3.968   3.328  0.2979 -0.3692  0.0338
  365ODT      C 1823   3.096   3.498   3.154  0.1697 -0.0955  0.4306
  365ODT      C 1824   3.468   3.440   2.880  0.0531 -0.0853  0.2556
  365ODT      C 1825   3.631   3.545   2.447  0.1671 -0.1667 -0.0083
  366ODT      C 1826   1.165   6.919   3.605 -0.0247 -0.0703 -0.0970
  366ODT      D 1827   1.403   7.202   3.859  0.1045 -0.1695  0.0762
  366ODT      C 1828   1.845   7.365   3.855 -0.2491  0.1865  0.0134
  366ODT      C 1829   2.245   7.585   3.733 -0.2200 -0.0978 -0.1490
  366ODT      C 1830   2.704   7.711   3.830 -0.1346 -0.1543  0.2475
  367ODT      C 1831   5.495   2.645   6.647 -0.2735  0.1193  0.1891
  367ODT      D 1832   5.535   2.996   6.859  0.0082 -0.0126  0.0449
  367ODT      C 1833   5.650   3.382   6.766  0.1244 -0.0146 -0.0121
  367ODT      C 1834   5.816   3.639   6.547  0.0719 -0.1374 -0.1734
  367ODT      C 1835   6.166   3.883   6.516  0.0527 -0.0015  0.0801
  368ODT      C 1836   3.916   1.350   6.368 -0.0024 -0.3295 -0.2561
  368ODT      D 1837   3.859   1.011   6.578  0.2912 -0.2356  0.0180
  368ODT      C 1838   3.930   0.807   6.931  0.0754 -0.0532 -0.1399
  368ODT      C 1839   4.308   0.870   7.221 -0.3090 -0.0083 -0.0599
  368ODT      C 1840   4.651   0.988   7.554  0.0045 -0.4546 -0.1713
  369ODT      C 1841   3.758   6.454   5.380  0.2661 -0.0141 -0.1145
  369ODT      D 1842   4.059   6.559   5.150  0.1536  0.1408 -0.0267
  369ODT      C 1843   4.291   6.272   4.881 -0.3006  0.0067  0.0724
  369ODT      C 1844   4.157   6.091   4.549  0.0829  0.1811  0.0827
  369ODT      C 1845   4.041   6.206   4.177  0.0930  0.0604  0.1243
  370ODT      C 1846   5.031   2.452   2.144  0.1396  0.1583 -0.0241
  370ODT      D 1847   4.770   2.415   1.795  0.1278  0.2546 -0.3579
  370ODT      C 1848   4.580   2.089   1.585 -0.0782  0.2705  0.0213
  370ODT      C 1849   4.163   1.906   1.631 -0.2628  0.0767  0.0709
  370ODT      C 1850   3.699   1.750   1.622 -0.1278  0.0385  0.1429
  371ODT      C 1851   1.272   1.365   4.740  0.0871 -0.1364 -0.0195
  371ODT      D 1852   1.313   1.024   4.936  0.1025 -0.2279  0.1569
  371ODT      C 1853   1.154   0.744   5.213  0.1248  0.2001  0.2418
  371ODT      C 1854   1.067   0.614   5.543 -0.2663  0.0055 -0.1388
  371ODT      C 1855   1.157   0.417   5.953 -0.1709  0.0327 -0.0792
  372ODT      C 1856   9.421   6.974   6.806 -0.0455 -0.3126 -0.2096
  372ODT      D 1857   9.819   7.105   6.650  0.0013 -0.2137  0.2776
  372ODT      C 1858  10.238   6.939   6.704  0.1317  0.0359 -0.0083
  372ODT      C 1859  10.209   6.512   6.672 -0.1746  0.0713 -0.1789
  372ODT      C 1860  10.016   6.163   6.536  0.0183  0.2042 -0.2381
  373ODT      C 1861   4.553   5.606   0.678  0.0397  0.0436 -0.4847
  373ODT      D 1862   4.146   5.699   0.431 -0.0444 -0.2549 -0.0285
  373ODT      C 1863   3.725   5.662   0.326 -0.1572 -0.0358  0.4836
  373ODT      C 1864   3.569   5.437   0.056  0.2956 -0.0793 -0.0945
  373ODT      C 1865   3.530   5.153  -0.339 -0.3942 -0.2372  0.0941
  374ODT      C 1866   2.854   3.719   3.911 -0.1209 -0.0947 -0.3305
  374ODT      D 1867   2.688   3.686   3.533 -0.3883 -0.0367  0.2799
  374ODT      C 1868   2.587   3.922   3.120  0.0433 -0.4763 -0.2092
  374ODT      C 1869   2.413   4.128   2.698  0.2005 -0.0078 -0.0771
  374ODT      C 1870   2.568   4.492   2.584 -0.0695 -0.0050 -0.2682
  375ODT      C 1871   5.439   6.833   1.298 -0.0524 -0.3568  0.2575
  375ODT      D 1872   5.786   7.087   1.098  0.1900 -0.1632  0.0058
  375ODT      C 1873   6.134   7.308   0.909  0.4218 -0.2154  0.1297
  375ODT      C 1874   6.566   7.085   0.823  0.1720 -0.0345  0.0276
  375ODT      C 1875   6.882   7.082   0.543  0.0371  0.1407  0.2771
  376ODT      C 1876   4.201   5.485   1.096  0.4003  0.4281 -0.1653
  376ODT      D 1877   3.975   5.615   1.410 -0.0878 -0.1797 -0.0072
  376ODT      C 1878   3.828   5.847   1.873  0.0188 -0.3881  0.1542
  376ODT      C 1879   3.516   5.966   2.241 -0.1276 -0.0551 -0.1493
  376ODT      C 1880   3.462   5.852   2.684 -0.2008  0.1967 -0.1051
  377ODT      C 1881   9.159   1.927   3.608  0.0914  0.3118  0.0458
  377ODT      D 1882   8.756   2.057   3.734 -0.0267  0.1844 -0.0465
  377ODT      C 1883   8.573   2.370   3.892 -0.0276  0.0413 -0.2274
  377ODT      C 1884   8.212   2.619   3.740  0.2780  0.1399  0.1854
  377ODT      C 1885   7.913   2.945   3.670 -0.0858  0.1990  0.1105
  378ODT      C 1886   8.722   5.095   6.416 -0.0040 -0.0325  0.3329
  378ODT      D 1887   8.514   5.072   6.818  0.0103 -0.0981  0.0162
  378ODT      C 1888   8.431   4.936   7.130 -0.1147  0.2000 -0.3917
  378ODT      C 1889   8.521   5.082   7.555  0.1344 -0.3432  0.1604
  378ODT      C 1890   8.195   4.998   7.726 -0.0017  0.1539 -0.0159
  379ODT      C 1891   5.793   4.807   5.880  0.2265  0.1080 -0.1332
  379ODT      D 1892   5.557   5.199   6.191  0.2218 -0.1265  0.1580
  379ODT      C 1893   5.067   5.434   6.191  0.2576 -0.3169 -0.2568
  379ODT      C 1894   5.117   5.580   5.780 -0.2388  0.1840 -0.3856
  379ODT      C 1895   5.289   5.399   5.368 -0.0871  0.3454 -0.1656
  380ODT      C 1896   7.563   2.706   3.388  0.0046 -0.1713 -0.2166
  380ODT      D 1897   7.288   2.772   3.138 -0.0945 -0.0578 -0.0598
  380ODT      C 1898   7.206   2.796   2.679  0.0474  0.0574 -0.0593
  380ODT      C 1899   6.843   2.538   2.595 -0.3016 -0.1010  0.1986
  380ODT      C 1900   6.461   2.383   2.642  0.1788  0.0498  0.1172
  381ODT      C 1901   5.408   3.315   4.124 -0.2734 -0.0487 -0.2212
  381ODT      D 1902   5.425   3.571   3.837 -0.0675 -0.2166  0.0061
  381ODT      C 1903   5.511   3.888   3.550  0.5015 -0.1869  0.0898
  381ODT      C 1904   5.820   3.906   3.297 -0.0661  0.0961 -0.2360
  381ODT      C 1905   6.297   3.797   3.406  0.2214  0.0566  0.0211
  382ODT      C 1906   4.031   2.714   1.181 -0.1851 -0.0833 -0.1820
  382ODT      D 1907   4.396   2.895   0.961 -0.3035 -0.1766  0.0825
  382ODT      C 1908   4.448   3.272   0.588  0.0920  0.0051 -0.0093
  382ODT      C 1909   4.299   3.469   0.132 -0.0085 -0.0390 -0.2286
  382ODT      C 1910   4.561   3.345  -0.247 -0.1238 -0.1154  0.0387
  383ODT      C 1911   2.812   1.650   5.893  0.0040  0.3494 -0.2132
  383ODT      D 1912   3.079   1.753   5.723 -0.3244 -0.1863  0.2571
  383ODT      C 1913   3.379   1.922   5.495 -0.0470 -0.0754  0.0190
  383ODT      C 1914   3.876   1.923   5.614  0.1470  0.0320  0.1897
  383ODT      C 1915   4.312   1.690   5.612  0.0829  0.0461 -0.1188
  384ODT      C 1916   7.017   3.500   2.144  0.1043  0.0758 -0.1603
  384ODT      D 1917   6.815   3.309   1.689 -0.2520 -0.0560 -0.1840
  384ODT      C 1918   6.909   2.996   1.499  0.6216 -0.2254  0.0691
  384ODT      C 1919   6.778   2.701   1.281 -0.0451 -0.0780 -0.0152
  384ODT      C 1920   6.752   2.266   1.021 -0.0350 -0.4195 -0.1896
  385ODT      C 1921   7.483   3.228   3.651 -0.0082  0.0629  0.4283
  385ODT      D 1922   7.496   3.641   3.436  0.0217  0.0135  0.0466
  385ODT      C 1923   7.554   3.992   3.564  0.1260 -0.3636  0.0018
  385ODT      C 1924   7.663   4.186   3.900 -0.0030 -0.2226  0.0312
  385ODT      C 1925   7.963   4.374   4.205 -0.1512 -0.2790 -0.1721
  386ODT      C 1926   2.402   4.111   5.339  0.2802  0.1194  0.1220
  386ODT      D 1927   2.110   3.944   5.553 -0.2842  0.1921  0.2567
  386ODT      C 1928   2.133   3.703   5.952 -0.1255 -0.3320 -0.1986
  386ODT      C 1929   2.358   3.272   6.039 -0.1921 -0.1710  0.3411
  386ODT      C 1930   2.704   3.030   5.820  0.0480 -0.1543 -0.1138
  387ODT      C 1931   4.247   5.575   2.386 -0.1182  0.1103  0.0712
  387ODT      D 1932   3.970   5.578   2.707 -0.2649 -0.3201  0.0216
  387ODT      C 1933   3.609   5.371   2.975  0.0955 -0.2822  0.1774
  387ODT      C 1934   3.205   5.259   3.133  0.4632  0.0897  0.1284
  387ODT      C 1935   3.145   5.038   3.572 -0.3170  0.1333  0.0425
  388ODT      C 1936   1.146   0.608   4.181 -0.1336  0.0930  0.2844
  388ODT      D 1937   1.010   0.430   3.856  0.0989  0.3796  0.0662
  388ODT      C 1938   0.839   0.010   3.814  0.1181  0.0751  0.1693
  388ODT      C 1939   0.616  -0.383   3.707 -0.1707 -0.0802 -0.0146
  388ODT      C 1940   0.759  -0.725   3.497  0.2947  0.0014 -0.2635
  389ODT      C 1941   8.544   1.618   2.310  0.6146 -0.2695 -0.0313
  389ODT      D 1942   8.377   1.273   1.991  0.1098 -0.2858  0.0919
  389ODT      C 1943   7.959   1.243   1.770  0.4874 -0.1041  0.0008
  389ODT      C 1944   7.503   1.067   1.860 -0.0409  0.5592 -0.1829
  389ODT      C 1945   7.179   0.988   1.463 -0.1374 -0.1759 -0.1002
  390ODT      C 1946   1.884   6.565   0.294 -0.0033 -0.2614  0.1933
  390ODT      D 1947   2.164   6.845   0.102  0.1604 -0.0306 -0.0263
  390ODT      C 1948   2.429   7.063  -0.044  0.1944  0.0788  0.1745
  390ODT      C 1949   2.742   7.373  -0.119 -0.3094  0.0860  0.0459
  390ODT      C 1950   3.238   7.485  -0.303 -0.2684  0.0744  0.1179
  391ODT      C 1951   3.368   3.245   6.933  0.1889 -0.1342  0.3548
  391ODT      D 1952   3.027   3.415   7.105  0.1296  0.3551  0.0099
  391ODT      C 1953   2.715   3.845   7.323  0.1453  0.4067 -0.0259
  391ODT      C 1954   2.617   4.361   7.651  0.1587  0.1412 -0.1341
  391ODT      C 1955   2.377   4.663   7.508  0.1582  0.0280 -0.3409
  392ODT      C 1956   6.273   1.455   6.941 -0.0231 -0.0808 -0.0161
  392ODT      D 1957   5.950   1.289   7.044  0.3785 -0.2147  0.3341
  392ODT      C 1958   5.515   1.326   7.207 -0.2743 -0.1451  0.1242
  392ODT      C 1959   5.035   1.356   7.273  0.1078  0.0203  0.1424
  392ODT      C 1960   4.563   1.472   7.280  0.0134 -0.0866  0.5420
  393ODT      C 1961   6.686   5.424   1.620  0.1279 -0.0705 -0.1036
  393ODT      D 1962   6.186   5.655   1.632  0.2332  0.1888 -0.2500
  393ODT      C 1963   5.775   5.489   1.804 -0.4287 -0.0511  0.1491
  393ODT      C 1964   5.403   5.538   1.893  0.1024 -0.0373  0.1301
  393ODT      C 1965   5.099   5.443   2.218 -0.0340 -0.0029 -0.0716
  394ODT      C 1966   9.497   2.130   4.217 -0.2929  0.0538  0.0063
  394ODT      D 1967   9.190   2.298   3.886  0.0184 -0.1184 -0.3715
  394ODT      C 1968   8.981   2.459   3.550  0.0568  0.1520 -0.0257
  394ODT      C 1969   8.516   2.490   3.373  0.4013 -0.1968  0.0584
  394ODT      C 1970   8.077   2.520   3.250 -0.3257 -0.3152  0.1173
  395ODT      C 1971   6.792   4.321   2.697  0.0532 -0.1271  0.0189
  395ODT      D 1972   7.142   4.490   2.479  0.2601  0.1130  0.4824
  395ODT      C 1973   7.347   4.589   2.081 -0.0739  0.1344 -0.3764
  395ODT      C 1974   7.323   4.982   1.800 -0.3851 -0.1570  0.2325
  395ODT      C 1975   6.970   5.077   1.523  0.2482 -0.2606  0.3619
  396ODT      C 1976   6.820   4.763   4.846  0.1476 -0.0025 -0.2117
  396ODT      D 1977   6.779   4.376   4.675  0.2791 -0.0185 -0.2313
  396ODT      C 1978   6.973   3.988   4.493 -0.0506 -0.0481  0.0636
  396ODT      C 1979   7.238   3.677   4.513 -0.0401 -0.1971  0.0220
  396ODT      C 1980   7.548   3.234   4.586 -0.3364 -0.3893 -0.0802
  397ODT      C 1981   1.616   0.353   5.588 -0.1537 -0.1312  0.1206
  397ODT      D 1982   1.867   0.410   5.981 -0.1007 -0.1894 -0.2999
  397ODT      C 1983   2.124   0.406   6.331 -0.1877 -0.1809 -0.1957
  397ODT      C 1984   2.201   0.192   6.766  0.2814  0.0034  0.3425
  397ODT      C 1985   1.996   0.134   7.143  0.1353  0.1758 -0.0872
  398ODT      C 1986   0.104   0.827   3.030 -0.0247  0.3084  0.1898
  398ODT      D 1987   0.128   1.158   3.311  0.1991  0.2084 -0.4134
  398ODT      C 1988   0.161   1.474   3.573  0.0254  0.0499  0.0856
  398ODT      C 1989  -0.051   1.670   3.836 -0.1430 -0.1133 -0.4537
  398ODT      C 1990  -0.401   1.752   4.172 -0.0856  0.1251 -0.0829
  399ODT      C 1991   8.062   5.498   4.089 -0.2132 -0.0972 -0.0287
  399ODT      D 1992   7.756   5.412   3.834 -0.1354  0.1874  0.1721
  399ODT      C 1993   7.529   5.008   3.752 -0.0277  0.1168  0.0772
  399ODT      C 1994   7.396   4.763   3.537 -0.0715 -0.3353 -0.0617
  399ODT      C 1995   7.188   4.355   3.555  0.0137  0.0534  0.0855
  400ODT      C 1996   4.134   2.339   5.106  0.1507 -0.0663 -0.1262
  400ODT      D 1997   3.978   2.541   5.486  0.0824  0.1066 -0.2035
  400ODT      C 1998   3.629   2.363   5.668 -0.0440 -0.2900  0.1373
  400ODT      C 1999   3.461   2.109   5.936  0.0346 -0.0890  0.0328
  400ODT      C 2000   3.060   2.101   6.073  0.1225 -0.0632 -0.3333
  401ODT      C 2001   8.117   1.694   6.123 -0.1366  0.0608 -0.1824
  401ODT      D 2002   8.018   1.283   6.256  0.1260 -0.0468 -0.1130
  401ODT      C 2003   8.131   0.875   6.295 -0.1279  0.2342  0.1224
  401ODT      C 2004   8.544   0.828   6.194 -0.3027 -0.0226  0.1349
  401ODT      C 2005   8.829   0.981   6.259  0.1180 -0.1146  0.1071
  402ODT      C 2006   8.064   0.698   4.578  0.0207 -0.2025  0.2106
  402ODT      D 2007   8.140   0.585   4.201 -0.0532 -0.1111 -0.1383
  402ODT      C 2008   8.176   0.551   3.715  0.1128 -0.0592 -0.3173
  402ODT      C 2009   8.459   0.798   3.500  0.2211 -0.0006  0.0129
  402ODT      C 2010   8.727   1.195   3.391 -0.2507  0.0504  0.0867
  403ODT      C 2011   6.700   3.018   4.322 -0.1146 -0.1936  0.0693
  403ODT      D 2012   6.415   3.346   4.386 -0.1837  0.0481 -0.1255
  403ODT      C 2013   6.038   3.507   4.356 -0.0192  0.0273  0.1211
  403ODT      C 2014   5.632   3.722   4.285  0.2483  0.0070  0.0930
  403ODT      C 2015   5.614   4.047   3.978 -0.1889  0.0726 -0.0176
  404ODT      C 2016   1.325   2.532   3.378  0.3102 -0.3243 -0.2634
  404ODT      D 2017   1.674   2.631   3.238 -0.1741 -0.0850  0.0852
  404ODT      C 2018   1.983   2.799   3.406 -0.3261  0.1338 -0.3743
  404ODT      C 2019   2.447   2.763   3.469  0.0676  0.0386  0.3942
  404ODT      C 2020   2.714   2.712   3.874  0.3176  0.2387  0.0648
  405ODT      C 2021   3.359   3.789   3.729 -0.0654  0.1034 -0.1253
  405ODT      D 2022   3.532   3.493   3.417  0.0922  0.0243  0.1891
  405ODT      C 2023   3.426   3.116   3.238  0.5941  0.1151  0.1226
  405ODT      C 2024   3.443   2.610   3.233 -0.1097  0.0565 -0.1065
  405ODT      C 2025   3.819   2.426   3.307 -0.0907 -0.1360  0.1108
  406ODT      C 2026   4.897   2.657   4.852 -0.1445 -0.2965  0.0789
  406ODT      D 2027   4.760   2.325   4.455 -0.1458 -0.2304 -0.1152
  406ODT      C 2028   4.514   2.050   4.379  0.1753 -0.0868 -0.0143
  406ODT      C 2029   4.263   1.659   4.264  0.1018 -0.0040  0.3382
  406ODT      C 2030   4.082   1.274   4.293 -0.1001 -0.3003 -0.1843
  407ODT      C 2031   7.784   3.961   4.643 -0.1292  0.2705 -0.1820
  407ODT      D 2032   7.547   3.820   4.995 -0.0075 -0.1410 -0.0770
  407ODT      C 2033   7.282   3.886   5.389 -0.1175  0.1793 -0.3835
  407ODT      C 2034   7.261   4.076   5.827  0.1818 -0.2609  0.2081
  407ODT      C 2035   7.490   4.045   6.299 -0.2166  0.0437  0.3576
  408ODT      C 2036   1.674   5.964   5.496  0.2716  0.0953 -0.0711
  408ODT      D 2037   1.836   6.228   5.841  0.2691 -0.1803 -0.0060
  408ODT      C 2038   1.637   6.396   6.140  0.1635  0.3688  0.3697
  408ODT      C 2039   1.521   6.192   6.507  0.0062 -0.3688  0.1265
  408ODT      C 2040   1.577   5.762   6.766  0.0946 -0.1403  0.1397
  409ODT      C 2041   7.989   3.940   3.253  0.1934 -0.0837 -0.1025
  409ODT      D 2042   8.110   3.594   2.942 -0.1900 -0.0410 -0.0346
  409ODT      C 2043   8.364   3.280   2.883 -0.1681 -0.1399 -0.0492
  409ODT      C 2044   8.562   2.867   2.818 -0.1621  0.1386 -0.1989
  409ODT      C 2045   8.879   2.684   3.148  0.0121  0.0903  0.1999
  410ODT      C 2046   9.414   0.046   2.012 -0.0745  0.0746 -0.0134
  410ODT      D 2047   9.226   0.296   2.173  0.1011 -0.0325 -0.2613
  410ODT      C 2048   9.094   0.775   2.210  0.1393 -0.2117 -0.0559
  410ODT      C 2049   9.274   1.057   2.557 -0.0092  0.3595 -0.1338
  410ODT      C 2050   9.608   1.466   2.493 -0.0554 -0.1459  0.2719
  411ODT      C 2051   0.650   1.402   0.300 -0.0989 -0.2208 -0.2008
  411ODT      D 2052   0.528   1.166  -0.142 -0.1192  0.1371 -0.2029
  411ODT      C 2053   0.184   1.091  -0.304  0.3667 -0.1576 -0.1131
  411ODT      C 2054  -0.166   0.803  -0.378  0.3446  0.1604 -0.2006
  411ODT      C 2055  -0.506   0.645  -0.566  0.1834 -0.2903 -0.2164
  412ODT      C 2056   6.624   6.924   3.316  0.0763 -0.1375 -0.2717
  412ODT      D 2057   6.814   7.008   3.751  0.1073 -0.0021  0.0779
  412ODT      C 2058   7.001   7.272   3.880 -0.1703 -0.1970 -0.0326
  412ODT      C 2059   7.419   7.491   4.113 -0.0933 -0.0277  0.0506
  412ODT      C 2060   7.670   7.573   4.414 -0.2356  0.1786  0.3103
  413ODT      C 2061   5.410   1.291   6.214 -0.1493 -0.3361  0.2588
  413ODT      D 2062   5.110   1.097   6.510 -0.0435  0.3822 -0.0369
  413ODT      C 2063   5.238   0.994   6.837 -0.0160 -0.0329 -0.2003
  413ODT      C 2064   5.486   0.867   6.984  0.0011  0.1146 -0.2787
  413ODT      C 2065   5.895   0.699   7.213  0.3906 -0.2020  0.0650
  414ODT      C 2066   2.518   3.607   5.589  0.1656  0.0639 -0.1302
  414ODT      D 2067   2.856   3.453   5.578 -0.1128  0.2098  0.1235
  414ODT      C 2068   3.241   3.222   5.646  0.0598  0.3230  0.2265
  414ODT      C 2069   3.478   2.879   5.827  0.0632  0.0218 -0.0822
  414ODT      C 2070   3.670   2.715   6.170 -0.0046  0.1183  0.2157
  415ODT      C 2071   8.078   5.013   6.294  0.2156  0.1313 -0.4462
  415ODT      D 2072   8.092   5.156   6.579 -0.1474 -0.1377  0.4168
  415ODT      C 2073   7.913   5.222   6.953 -0.2948 -0.1037  0.1659
  415ODT      C 2074   7.610   5.283   7.237  0.2642 -0.2448 -0.0152
  415ODT      C 2075   7.330   5.599   7.235  0.0253  0.1439 -0.0188
  416ODT      C 2076   7.137   2.058   5.679  0.0017 -0.1812 -0.2036
  416ODT      D 2077   6.873   2.324   5.721  0.0930  0.2041  0.1479
  416ODT      C 2078   6.500   2.423   5.460  0.1621  0.1086  0.2330
  416ODT      C 2079   6.539   2.772   5.104 -0.1274  0.0883  0.0895
  416ODT      C 2080   6.416   3.050   4.821 -0.1991 -0.0858  0.0227
  417ODT      C 2081   6.883   0.165   4.865  0.0832  0.1050  0.1159
  417ODT      D 2082   6.502   0.118   4.611 -0.2429  0.0589 -0.1030
  417ODT      C 2083   6.147   0.317   4.644  0.0929 -0.0331  0.1336
  417ODT      C 2084   5.937   0.687   4.369  0.2033 -0.0807  0.1919
  417ODT      C 2085   5.760   0.854   4.012  0.0751  0.3288  0.1845
  418ODT      C 2086   7.304   5.690   2.281  0.0026 -0.2125 -0.1027
  418ODT      D 2087   7.610   5.628   2.569  0.0460 -0.0909 -0.0672
  418ODT      C 2088   7.768   5.587   3.005 -0.2201 -0.2085 -0.0249
  418ODT      C 2089   7.757   5.701   3.365  0.0982  0.0506 -0.4264
  418ODT      C 2090   7.895   5.980   3.726  0.0805 -0.4444  0.2090
  419ODT      C 2091   5.525   0.399   0.829 -0.0596 -0.1329  0.1404
  419ODT      D 2092   5.269   0.657   0.563 -0.3759 -0.2089  0.1318
  419ODT      C 2093   5.079   0.839   0.145 -0.0424 -0.1260  0.1717
  419ODT      C 2094   4.789   0.922  -0.163 -0.0324  0.3302  0.1312
  419ODT      C 2095   4.779   1.294  -0.363  0.0424 -0.1707 -0.2174
  420ODT      C 2096   3.512   3.409   1.841  0.0452 -0.0993  0.3193
  420ODT      D 2097   3.700   3.826   1.999  0.0707 -0.2323  0.0765
  420ODT      C 2098   3.640   4.202   1.922  0.1813 -0.0097  0.1189
  420ODT      C 2099   3.153   4.324   1.869 -0.0337 -0.0754 -0.1885
  420ODT      C 2100   3.013   4.683   2.027 -0.0120 -0.0680 -0.0126
  421ODT      C 2101   6.403   0.457   4.194 -0.1106 -0.0563 -0.0113
  421ODT      D 2102   6.297   0.888   4.056 -0.0892 -0.0697 -0.0562
  421ODT      C 2103   6.276   1.266   3.849 -0.1113 -0.1338  0.3098
  421ODT      C 2104   6.458   1.581   4.015 -0.2280 -0.4028  0.1282
  421ODT      C 2105   6.792   1.738   4.184 -0.1069  0.0870 -0.0820
  422ODT      C 2106   3.505   6.439   0.486  0.0147  0.1188 -0.1796
  422ODT      D 2107   3.028   6.398   0.463  0.5988  0.0216  0.0188
  422ODT      C 2108   2.618   6.206   0.372 -0.0893 -0.2308  0.0318
  422ODT      C 2109   2.084   6.190   0.599  0.4554 -0.1508 -0.1461
  422ODT      C 2110   1.676   6.308   0.663  0.1279  0.0996 -0.1560
  423ODT      C 2111   4.216   2.982   2.471  0.0001 -0.0524  0.1023
  423ODT      D 2112   3.836   3.083   2.587 -0.0985  0.1201 -0.2613
  423ODT      C 2113   3.444   2.957   2.678 -0.1289  0.3611 -0.1280
  423ODT      C 2114   2.946   2.796   2.481 -0.0267  0.2316  0.2591
  423ODT      C 2115   2.843   2.450   2.255 -0.2676  0.1147 -0.1242
  424ODT      C 2116   4.146   0.872   6.174 -0.0689  0.0102 -0.2287
  424ODT      D 2117   3.958   0.874   5.709 -0.1541  0.0726 -0.1137
  424ODT      C 2118   3.779   0.738   5.265  0.1776  0.1054  0.1212
  424ODT      C 2119   3.588   0.535   4.975  0.0070 -0.0690  0.2966
  424ODT      C 2120   3.426   0.104   4.860 -0.1164  0.0841 -0.2010
  425ODT      C 2121   7.970   4.387   4.720  0.1216 -0.0554 -0.0440
  425ODT      D 2122   8.292   3.967   4.702  0.2376 -0.2578 -0.0159
  425ODT      C 2123   8.457   3.571   4.909 -0.1165 -0.2997  0.3058
  425ODT      C 2124   8.918   3.628   5.118  0.4790 -0.0728  0.1040
  425ODT      C 2125   9.328   3.586   5.314  0.5612  0.1507 -0.1180
  426ODT      C 2126   0.664   0.694   5.849 -0.2414  0.0497  0.0298
  426ODT      D 2127   0.852   0.828   6.244  0.2875 -0.1333 -0.1084
  426ODT      C 2128   0.944   1.146   6.540  0.1948  0.5241 -0.2249
  426ODT      C 2129   1.180   1.521   6.702 -0.2379 -0.0304 -0.0130
  426ODT      C 2130   1.603   1.677   6.808  0.0957  0.3151  0.0567
  427ODT      C 2131   7.388   4.744   0.992  0.0524 -0.2901 -0.0991
  427ODT      D 2132   7.567   4.723   1.386  0.1019  0.2213  0.0757
  427ODT      C 2133   7.845   4.577   1.637 -0.2361 -0.1985  0.0125
  427ODT      C 2134   7.848   4.766   2.097  0.0089 -0.2543  0.1034
  427ODT      C 2135   7.674   4.624   2.459  0.0705 -0.0807  0.2732
  428ODT      C 2136   4.109   4.040   5.564  0.0410  0.0709  0.0858
  428ODT      D 2137   4.145   4.148   5.952 -0.2913  0.1252  0.2396
  428ODT      C 2138   4.303   4.103   6.339  0.0170 -0.1152  0.0540
  428ODT      C 2139   4.520   3.740   6.572 -0.3153 -0.2022 -0.1627
  428ODT      C 2140   4.976   3.518   6.548 -0.3054 -0.0556  0.1286
  429ODT      C 2141   6.817   5.548   6.069 -0.0231  0.4143 -0.0856
  429ODT      D 2142   6.741   5.727   6.384 -0.2568 -0.2280 -0.4330
  429ODT      C 2143   6.422   5.766   6.644 -0.3129 -0.0355 -0.0982
  429ODT      C 2144   6.421   5.480   6.933  0.1835 -0.0015  0.2819
  429ODT      C 2145   6.488   5.381   7.369 -0.0114 -0.0154  0.0284
  430ODT      C 2146   4.199   6.313   5.574 -0.2790  0.0927  0.2893
  430ODT      D 2147   4.452   6.658   5.419 -0.1128  0.2539  0.1596
  430ODT      C 2148   4.918   6.596   5.369 -0.0840  0.1038  0.2154
  430ODT      C 2149   5.324   6.553   5.400  0.0482  0.2191  0.2330
  430ODT      C 2150   5.587   6.856   5.695  0.2703  0.1900  0.3107
  431ODT      C 2151   5.116   5.458   1.435  0.0199  0.1367 -0.3215
  431ODT      D 2152   5.607   5.568   1.369  0.2640  0.1229  0.0789
  431ODT      C 2153   5.985   5.578   1.182 -0.3034  0.1226 -0.0099
  431ODT      C 2154   6.395   5.436   1.190 -0.2426  0.2683 -0.2063
  431ODT      C 2155   6.760   5.332   1.060 -0.1218  0.3412  0.1693
  432ODT      C 2156   9.409   2.302   1.645  0.0213 -0.3926 -0.1271
  432ODT      D 2157   9.492   2.123   2.040  0.3186 -0.1119  0.1915
  432ODT      C 2158   9.387   1.912   2.535  0.0315  0.0524  0.0728
  432ODT      C 2159   9.159   1.911   2.922  0.2184  0.0638 -0.4130
  432ODT      C 2160   9.486   1.888   3.221  0.0117  0.1552 -0.1633
  433ODT      C 2161   2.105   6.637   5.932 -0.1572 -0.3398  0.0439
  433ODT      D 2162   1.677   6.707   5.814 -0.0923 -0.1247 -0.0912
  433ODT      C 2163   1.380   6.915   5.546 -0.1147  0.2526  0.3305
  433ODT      C 2164   1.425   6.916   5.122 -0.3145 -0.3163  0.2998
  433ODT      C 2165   1.290   7.169   4.806 -0.3162 -0.0488 -0.0021
  434ODT      C 2166   6.882   3.538   2.638 -0.1967 -0.1323  0.0878
  434ODT      D 2167   6.865   3.147   2.482  0.3480 -0.1782  0.1942
  434ODT      C 2168   6.511   2.863   2.509  0.0498  0.0142  0.0222
  434ODT      C 2169   6.306   2.689   2.148 -0.4480 -0.1102  0.1273
  434ODT      C 2170   6.089   2.357   2.024 -0.0038  0.0761  0.3627
  435ODT      C 2171   0.152   4.582   3.571  0.0087 -0.1907 -0.1935
  435ODT      D 2172  -0.086   4.266   3.515  0.0426  0.1265 -0.0636
  435ODT      C 2173  -0.052   3.892   3.386  0.1908  0.0048 -0.0287
  435ODT      C 2174   0.019   3.616   3.629 -0.2693 -0.0819  0.0584
  435ODT      C 2175  -0.272   3.274   3.763 -0.3180  0.1973  0.5367
  436ODT      C 2176   0.660   2.018   1.438 -0.0980  0.0036  0.2847
  436ODT      D 2177   0.993   2.172   1.156  0.1352 -0.2276  0.1546
  436ODT      C 2178   1.148   2.201   0.676  0.4918  0.0487 -0.2979
  436ODT      C 2179   1.337   2.391   0.417 -0.1909  0.2460 -0.1317
  436ODT      C 2180   1.566   2.433   0.144 -0.0778 -0.5274 -0.1702
  437ODT      C 2181   4.982   7.116   1.550  0.1992  0.2042 -0.3072
  437ODT      D 2182   5.162   7.669   1.452 -0.1213  0.0068 -0.1609
  437ODT      C 2183   5.356   8.002   1.203 -0.0430 -0.1324  0.0219
  437ODT      C 2184   5.525   8.313   0.938  0.1279  0.1544  0.0863
  437ODT      C 2185   5.918   8.468   0.703  0.1411 -0.1147 -0.0551
  438ODT      C 2186   1.874   2.942   6.180 -0.2173 -0.1297 -0.0413
  438ODT      D 2187   1.692   3.355   6.244 -0.1379  0.3519 -0.1270
  438ODT      C 2188   1.474   3.737   6.041 -0.1360  0.0259  0.1445
  438ODT      C 2189   1.258   4.140   5.916 -0.1244  0.4392  0.0676
  438ODT      C 2190   0.991   4.496   5.914  0.0860  0.0236 -0.0072
  439ODT      C 2191   9.118   4.616   1.912  0.0655 -0.1004 -0.3000
  439ODT      D 2192   9.404   4.375   2.195  0.0972 -0.1826  0.3047
  439ODT      C 2193   9.755   4.325   2.375  0.2028 -0.0555 -0.0348
  439ODT      C 2194  10.082   4.135   2.622 -0.1882  0.1038 -0.0354
  439ODT      C 2195  10.325   4.011   3.002 -0.1652  0.0034  0.2733
  440ODT      C 2196   3.928   5.116   4.360  0.0379  0.0412  0.2071
  440ODT      D 2197   4.302   4.768   4.511 -0.0547 -0.2891  0.1318
  440ODT      C 2198   4.693   4.648   4.396  0.1512 -0.2703  0.2680
  440ODT      C 2199   5.016   4.593   4.691 -0.1818  0.4832 -0.3477
  440ODT      C 2200   4.930   4.403   5.085 -0.1383 -0.1736  0.1439
  441ODT      C 2201   6.444   5.723   2.049 -0.0303 -0.1003  0.0458
  441ODT      D 2202   6.016   5.759   2.280 -0.1975  0.2623 -0.1560
  441ODT      C 2203   5.564   5.774   2.385 -0.4164 -0.0621 -0.0002
  441ODT      C 2204   5.153   5.892   2.304 -0.1881 -0.0815  0.3862
  441ODT      C 2205   4.703   5.871   2.315 -0.1051 -0.2180 -0.0289
  442ODT      C 2206   8.930   1.790   0.443  0.3896  0.1843 -0.0241
  442ODT      D 2207   9.082   2.167   0.273 -0.0586  0.2127  0.0421
  442ODT      C 2208   9.498   2.166  -0.002  0.1423  0.1549  0.1492
  442ODT      C 2209   9.689   2.131  -0.382  0.1590 -0.3588 -0.4340
  442ODT      C 2210   9.645   2.427  -0.800  0.0816 -0.0183  0.0599
  443ODT      C 2211   4.600   4.691   1.067  0.1055 -0.1624  0.1006
  443ODT      D 2212   4.751   4.774   0.668  0.0134  0.1206 -0.0484
  443ODT      C 2213   4.736   4.531   0.306 -0.1724 -0.1560  0.2321
  443ODT      C 2214   4.759   4.383  -0.067 -0.1050  0.0427  0.0029
  443ODT      C 2215   4.560   4.175  -0.443 -0.1650 -0.2310  0.0962
  444ODT      C 2216   0.166   5.793   7.165 -0.0092 -0.0430  0.5073
  444ODT      D 2217   0.229   5.869   6.795  0.0137  0.1613 -0.0944
  444ODT      C 2218   0.035   5.742   6.458  0.0795  0.0365  0.0808
  444ODT      C 2219   0.369   5.969   6.060 -0.0605 -0.2157 -0.3765
  444ODT      C 2220   0.599   5.942   5.678  0.0574 -0.0772  0.3539
  445ODT      C 2221   3.698   1.560   5.282  0.2530 -0.2726  0.0612
  445ODT      D 2222   3.810   1.367   5.628  0.0492  0.2285  0.0638
  445ODT      C 2223   4.121   1.347   5.894 -0.0086  0.0873  0.0408
  445ODT      C 2224   4.493   1.558   6.058 -0.3358 -0.0117  0.3267
  445ODT      C 2225   4.588   1.432   6.372  0.0816  0.0500  0.0781
  446ODT      C 2226   6.856   3.963   0.013 -0.2634 -0.1872 -0.1541
  446ODT      D 2227   7.063   3.794   0.412  0.0620 -0.0256 -0.1733
  446ODT      C 2228   7.204   3.759   0.886  0.0652 -0.1113 -0.0321
  446ODT      C 2229   7.679   3.706   0.959  0.0854 -0.2530 -0.0383
  446ODT      C 2230   8.103   3.880   1.076  0.0494 -0.1592 -0.4258
  447ODT      C 2231   1.424   4.771   2.030  0.1222 -0.0910  0.1764
  447ODT      D 2232   1.344   4.757   1.640  0.5114 -0.2192 -0.1404
  447ODT      C 2233   1.503   4.908   1.339 -0.4019 -0.1477 -0.2764
  447ODT      C 2234   1.880   4.751   1.165 -0.1507 -0.1073 -0.0436
  447ODT      C 2235   1.996   4.268   1.267 -0.1222  0.3460 -0.0569
  448ODT      C 2236   0.995   2.309   3.947 -0.1643 -0.0393  0.1909
  448ODT      D 2237   1.264   2.161   3.697  0.0954  0.2616 -0.0442
  448ODT      C 2238   1.605   2.133   3.302  0.1797  0.1932 -0.0900
  448ODT      C 2239   1.816   2.233   2.908 -0.3528 -0.0050 -0.0857
  448ODT      C 2240   1.993   2.557   2.905 -0.0329  0.2416  0.0714
  449ODT      C 2241   1.380   5.169   4.050  0.0071  0.0974 -0.2949
  449ODT      D 2242   1.554   4.875   3.744 -0.0864  0.0501 -0.2795
  449ODT      C 2243   1.453   4.634   3.327  0.0479  0.0730 -0.0908
  449ODT      C 2244   1.401   4.854   2.961  0.2789  0.1167  0.2510
  449ODT      C 2245   1.314   5.149   2.522 -0.0449  0.2253 -0.0651
  450ODT      C 2246   3.739   4.055   2.576 -0.2374 -0.1952  0.2439
  450ODT      D 2247   3.780   4.288   2.969 -0.1589 -0.2150  0.1827
  450ODT      C 2248   3.939   4.550   3.238  0.1104  0.1674  0.0145
  450ODT      C 2249   3.805   4.699   3.673  0.2463 -0.2084  0.0064
  450ODT      C 2250   3.826   4.655   4.134 -0.0278  0.3144 -0.1227
  451ODT      C 2251   8.516   6.458   4.342  0.2096  0.2501  0.1613
  451ODT      D 2252   8.867   6.795   4.323 -0.0996  0.0032  0.0778
  451ODT      C 2253   9.069   7.161   4.133  0.1318 -0.3155  0.0708
  451ODT      C 2254   9.401   7.510   3.960  0.2960  0.0826  0.2880
  451ODT      C 2255   9.468   7.898   3.825  0.3166  0.2661  0.1727
  452ODT      C 2256   9.173   1.784   2.103  0.3193 -0.0785 -0.4232
  452ODT      D 2257   9.138   1.866   1.704  0.1350  0.0750 -0.0632
  452ODT      C 2258   8.894   2.153   1.515 -0.0130  0.2194  0.0860
  452ODT      C 2259   8.884   2.540   1.691 -0.2156  0.1328  0.0288
  452ODT      C 2260   9.229   2.736   1.900  0.0001  0.0120 -0.0223
  453ODT      C 2261   6.756   3.707   6.414 -0.0027 -0.0541  0.0984
  453ODT      D 2262   6.928   4.031   6.206 -0.2033 -0.3037 -0.3076
  453ODT      C 2263   7.093   4.394   6.271  0.2326 -0.1403 -0.0638
  453ODT      C 2264   6.898   4.698   6.100 -0.0578 -0.1063 -0.1687
  453ODT      C 2265   6.655   4.883   5.803  0.4348  0.0753  0.0703
  454ODT      C 2266   1.747   1.017   0.583  0.1763 -0.0114  0.1758
  454ODT      D 2267   1.790   1.050   0.178  0.2822 -0.0675  0.3155
  454ODT      C 2268   1.894   1.194  -0.185  0.1958  0.0063 -0.0751
  454ODT      C 2269   1.599   1.158  -0.591 -0.0208 -0.2791 -0.2249
  454ODT      C 2270   1.339   1.177  -0.933 -0.0778 -0.0740  0.2697
  455ODT      C 2271   5.533   5.739   6.316  0.2122  0.0125  0.1063
  455ODT      D 2272   5.465   5.965   5.904  0.0720  0.1339  0.0794
  455ODT      C 2273   5.140   6.182   5.770 -0.1819 -0.3690 -0.2394
  455ODT      C 2274   4.753   6.252   5.696 -0.0119 -0.0793  0.1696
  455ODT      C 2275   4.573   6.130   5.301  0.2101  0.2195  0.0269
  456ODT      C 2276   6.889   6.341   1.273 -0.1011  0.0960  0.1318
  456ODT      D 2277   7.361   6.509   1.160 -0.0095  0.2054  0.1956
  456ODT      C 2278   7.734   6.567   1.288 -0.1178 -0.3978 -0.0085
  456ODT      C 2279   7.771   6.765   1.714  0.0591  0.3372 -0.0619
  456ODT      C 2280   7.696   6.978   1.996 -0.1598  0.3184 -0.1759
  457ODT      C 2281   2.558   1.782   6.880 -0.1836  0.2907  0.2388
  457ODT      D 2282   2.298   2.010   7.129  0.0465  0.0595 -0.1303
  457ODT      C 2283   2.020   2.333   7.151  0.0338  0.2083 -0.0349
  457ODT      C 2284   1.639   2.276   6.863  0.2696 -0.1752  0.4413
  457ODT      C 2285   1.692   2.129   6.460  0.0867 -0.0575 -0.3991
  458ODT      C 2286   0.121   4.948   2.371  0.0027  0.2814 -0.0474
  458ODT      D 2287   0.328   5.105   1.946  0.0003 -0.1096  0.0699
  458ODT      C 2288   0.342   4.987   1.535  0.3480  0.1253  0.2149
  458ODT      C 2289   0.103   4.814   1.265  0.1149 -0.1425  0.0823
  458ODT      C 2290   0.043   4.453   1.094 -0.1310 -0.0380  0.2468
  459ODT      C 2291   0.707   6.127   4.656 -0.2700 -0.2171  0.0255
  459ODT      D 2292   0.413   5.800   4.765 -0.0198 -0.3658 -0.0860
  459ODT      C 2293   0.322   5.355   4.815 -0.1829  0.3472 -0.0588
  459ODT      C 2294   0.512   5.019   5.083 -0.0170 -0.1935  0.1001
  459ODT      C 2295   0.307   4.757   5.342 -0.1043  0.0056 -0.1173
  460ODT      C 2296   7.532   0.549   0.333 -0.0583  0.3102  0.0793
  460ODT      D 2297   7.730   0.470   0.867  0.1965  0.0457 -0.0157
  460ODT      C 2298   7.626   0.303   1.283 -0.3454 -0.0545  0.0567
  460ODT      C 2299   7.421  -0.042   1.395 -0.0396  0.2081 -0.0749
  460ODT      C 2300   7.221   0.002   1.823  0.2276 -0.2967  0.0391
  461ODT      C 2301   6.980   0.288   4.339  0.1877 -0.4459 -0.5176
  461ODT      D 2302   7.145   0.516   4.649  0.1763 -0.0277  0.1563
  461ODT      C 2303   7.212   0.422   5.130  0.2753 -0.0003  0.1430
  461ODT      C 2304   7.289   0.453   5.639  0.1493  0.0611  0.1039
  461ODT      C 2305   7.366   0.204   5.952 -0.2886 -0.0082 -0.1840
  462ODT      C 2306   3.123   2.881   0.838  0.1315 -0.1308 -0.0777
  462ODT      D 2307   3.327   3.023   0.503 -0.0736 -0.0477  0.0090
  462ODT      C 2308   3.457   3.097   0.235 -0.3145  0.2612  0.1387
  462ODT      C 2309   3.853   3.095   0.266 -0.0204  0.1291 -0.0973
  462ODT      C 2310   4.167   2.814   0.457  0.0480 -0.2514  0.1112
  463ODT      C 2311   4.950   0.609   6.634  0.1230 -0.3278  0.1256
  463ODT      D 2312   4.945   0.390   7.064  0.0880 -0.1105 -0.0762
  463ODT      C 2313   5.137   0.259   7.465  0.0552 -0.3590 -0.2076
  463ODT      C 2314   5.310   0.010   7.762  0.0407 -0.0603 -0.0262
  463ODT      C 2315   5.329  -0.410   7.949  0.0053  0.2122  0.0921
  464ODT      C 2316   7.640   5.705   1.332  0.0091 -0.2037  0.0385
  464ODT      D 2317   7.816   5.498   1.002 -0.3157  0.3001  0.2008
  464ODT      C 2318   7.795   5.152   0.802  0.0191 -0.1125 -0.0335
  464ODT      C 2319   7.763   4.772   0.654  0.2012  0.0091  0.2527
  464ODT      C 2320   7.780   4.353   0.771  0.1133 -0.2107  0.0603
  465ODT      C 2321   6.364   0.412   0.537 -0.1224  0.0546 -0.1473
  465ODT      D 2322   5.966   0.399   0.433  0.0897 -0.0217  0.2110
  465ODT      C 2323   5.600   0.409   0.288  0.0036  0.2112  0.0158
  465ODT      C 2324   5.528   0.343  -0.116  0.0272  0.3182  0.1096
  465ODT      C 2325   5.291  -0.008  -0.246  0.1865 -0.1603 -0.0683
  466ODT      C 2326   2.967   4.015   5.590 -0.0058 -0.1606  0.1335
  466ODT      D 2327   3.161   4.414   5.757 -0.0234 -0.0775  0.2537
  466ODT      C 2328   3.298   4.321   6.164  0.0438 -0.3701 -0.1829
  466ODT      C 2329   3.608   4.193   6.587 -0.2011 -0.0289  0.0798
  466ODT      C 2330   3.685   4.247   7.059  0.1080  0.1918 -0.1119
  467ODT      C 2331   0.835   5.955   1.583  0.0204  0.0327 -0.0375
  467ODT      D 2332   0.797   5.594   1.500  0.2367  0.2856 -0.0675
  467ODT      C 2333   0.577   5.369   1.204  0.2584  0.0520 -0.0926
  467ODT      C 2334   0.546   5.352   0.745 -0.1906  0.0002  0.0940
  467ODT      C 2335   0.326   5.573   0.474 -0.2177  0.0874 -0.1744
  468ODT      C 2336   3.571   3.793   1.511 -0.0711  0.0441  0.2790
  468ODT      D 2337   3.660   4.231   1.300 -0.2337 -0.1136 -0.1291
  468ODT      C 2338   3.649   4.585   1.100 -0.4700 -0.1243 -0.0366
  468ODT      C 2339   3.643   4.850   0.711  0.1781 -0.1290  0.0047
  468ODT      C 2340   3.614   5.004   0.356  0.3144 -0.1698 -0.1530
  469ODT      C 2341   5.352   4.152   1.374 -0.2700  0.0415 -0.1207
  469ODT      D 2342   5.513   3.655   1.355 -0.1258  0.4869 -0.0063
  469ODT      C 2343   5.300   3.254   1.176  0.0592 -0.0365  0.1112
  469ODT      C 2344   4.928   3.243   0.906 -0.0604 -0.0113 -0.0750
  469ODT      C 2345   4.814   2.977   0.647 -0.0400  0.1279 -0.2053
  470ODT      C 2346   7.237   2.026   2.026  0.0166  0.0068  0.2337
  470ODT      D 2347   7.615   2.183   1.713  0.3104  0.1183 -0.0796
  470ODT      C 2348   7.906   2.097   1.454  0.1513  0.2148  0.0138
  470ODT      C 2349   8.250   1.913   1.211  0.0991  0.0984 -0.1384
  470ODT      C 2350   8.719   1.763   1.230 -0.0267 -0.1234 -0.0173
  471ODT      C 2351   9.004   6.933   5.006 -0.0565 -0.0496  0.0332
  471ODT      D 2352   9.014   6.537   4.877 -0.0502 -0.0518 -0.0742
  471ODT      C 2353   9.340   6.416   4.642 -0.0414  0.0690 -0.0213
  471ODT      C 2354   9.719   6.281   4.864 -0.4542  0.1603 -0.0212
  471ODT      C 2355  10.079   6.553   4.897 -0.0606 -0.4934  0.2434
  472ODT      C 2356   7.289   4.914   3.007  0.0629 -0.1129 -0.1973
  472ODT      D 2357   7.672   4.751   2.977  0.1753 -0.0124 -0.2040
  472ODT      C 2358   7.988   4.393   2.832  0.0337  0.0613  0.0464
  472ODT      C 2359   8.131   3.969   2.612 -0.0528  0.0373  0.0633
  472ODT      C 2360   8.215   3.591   2.466 -0.0190 -0.0509 -0.3388
  473ODT      C 2361   1.172   4.097   1.283 -0.2380 -0.1627 -0.1805
  473ODT      D 2362   1.517   4.186   1.476  0.1777  0.1283  0.4001
  473ODT      C 2363   1.812   4.495   1.648 -0.4745 -0.1451  0.1100
  473ODT      C 2364   1.869   4.943   1.742  0.0457 -0.0650 -0.0401
  473ODT      C 2365   2.085   5.269   1.856 -0.1303 -0.3354  0.1359
  474ODT      C 2366   9.203   3.851   6.013 -0.1770 -0.3080  0.2267
  474ODT      D 2367   9.589   3.840   5.956  0.2944  0.4300 -0.3189
  474ODT      C 2368   9.812   3.518   5.855 -0.1343  0.0944  0.1474
  474ODT      C 2369   9.904   3.124   6.033 -0.1131 -0.0867  0.0353
  474ODT      C 2370   9.935   2.803   6.371 -0.1790 -0.0722  0.0968
  475ODT      C 2371   4.463   5.794   4.813 -0.1654  0.1913  0.1534
  475ODT      D 2372   4.043   5.629   4.779 -0.0286 -0.0401 -0.1509
  475ODT      C 2373   3.733   5.502   4.624 -0.0037 -0.0508 -0.1674
  475ODT      C 2374   3.510   5.461   4.299  0.2095  0.0484 -0.0141
  475ODT      C 2375   3.475   5.135   4.009 -0.4210  0.4507 -0.0743
  476ODT      C 2376   0.216   5.646   1.070  0.0286  0.2051  0.2303
  476ODT      D 2377   0.210   6.022   0.835  0.0199 -0.1163 -0.1367
  476ODT      C 2378   0.033   6.410   0.887 -0.0952 -0.0277 -0.1240
  476ODT      C 2379  -0.383   6.672   0.933 -0.5452  0.0718 -0.0409
  476ODT      C 2380  -0.767   6.947   1.071  0.1567  0.0105  0.2031
  477ODT      C 2381   7.944   4.405   6.120 -0.0786 -0.0053 -0.3766
  477ODT      D 2382   7.772   4.169   5.831 -0.0895 -0.0469 -0.1105
  477ODT      C 2383   7.770   3.955   5.468  0.3283  0.1347 -0.0008
  477ODT      C 2384   7.634   4.273   5.197 -0.0487 -0.3626 -0.2951
  477ODT      C 2385   7.713   4.686   5.143  0.0360 -0.1066  0.1382
  478ODT      C 2386   3.203   4.409   1.308 -0.2919 -0.0745 -0.2125
  478ODT      D 2387   3.429   4.687   1.565 -0.0748  0.4759 -0.0940
  478ODT      C 2388   3.584   4.914   1.813  0.1858  0.1204 -0.0834
  478ODT      C 2389   3.478   5.108   2.106 -0.2396 -0.2247 -0.3951
  478ODT      C 2390   3.225   5.419   2.092 -0.4172  0.2821  0.0125
  479ODT      C 2391   3.187   1.609   6.804  0.2030  0.1589  0.0787
  479ODT      D 2392   3.066   2.021   6.763  0.2246 -0.1338  0.0348
  479ODT      C 2393   3.051   2.439   6.711  0.2233 -0.0475 -0.0807
  479ODT      C 2394   3.262   2.854   6.689  0.2730  0.2421 -0.4085
  479ODT      C 2395   3.461   3.013   6.429 -0.0981 -0.1360 -0.1926
  480ODT      C 2396   4.513   5.231   2.072  0.0212 -0.0963 -0.1889
  480ODT      D 2397   4.638   4.909   2.123  0.0932 -0.3487  0.0012
  480ODT      C 2398   4.590   4.592   1.970 -0.0632 -0.1547 -0.3420
  480ODT      C 2399   4.502   4.120   1.999 -0.0236  0.1569 -0.1770
  480ODT      C 2400   4.139   3.945   2.259  0.1823  0.0772 -0.0053
  481ODT      C 2401   4.587   5.142   0.416  0.0189 -0.1653  0.0468
  481ODT      D 2402   4.603   5.446   0.181 -0.2460  0.0123 -0.3467
  481ODT      C 2403   4.727   5.747  -0.115 -0.2913  0.3691  0.3819
  481ODT      C 2404   4.883   6.165  -0.203  0.2511 -0.3126  0.2918
  481ODT      C 2405   5.050   6.460  -0.512 -0.0713 -0.0643  0.4222
  482ODT      C 2406   4.908   4.733   3.448 -0.0752  0.0605 -0.1770
  482ODT      D 2407   5.243   4.983   3.320  0.1394 -0.3480  0.1673
  482ODT      C 2408   5.602   5.300   3.282 -0.4104 -0.1880 -0.1119
  482ODT      C 2409   5.932   5.630   3.149  0.0288 -0.1532 -0.1212
  482ODT      C 2410   5.976   5.915   2.801  0.1287  0.1562  0.0779
  483ODT      C 2411   5.080   6.468   1.358  0.0361 -0.1743  0.1064
  483ODT      D 2412   5.307   6.370   0.998 -0.0410 -0.1870  0.0729
  483ODT      C 2413   5.461   6.253   0.627  0.0282 -0.1964 -0.2633
  483ODT      C 2414   5.299   6.154   0.297 -0.2752 -0.2250 -0.0275
  483ODT      C 2415   5.231   5.857  -0.018 -0.1252 -0.0461 -0.0295
  484ODT      C 2416   1.155   3.213   6.996 -0.1211  0.1438 -0.0583
  484ODT      D 2417   1.421   3.655   7.000 -0.0040  0.0270 -0.0584
  484ODT      C 2418   1.708   3.972   6.946  0.1001 -0.0327 -0.3858
  484ODT      C 2419   1.594   4.343   6.838  0.0316 -0.1269  0.4159
  484ODT      C 2420   1.479   4.769   7.065 -0.2265 -0.2030 -0.0483
  485ODT      C 2421   0.262   1.846   0.818  0.1567  0.0706  0.1736
  485ODT      D 2422   0.449   1.431   0.738 -0.0328 -0.0985  0.2938
  485ODT      C 2423   0.477   1.093   0.906  0.0467 -0.1321  0.2339
  485ODT      C 2424   0.265   1.087   1.184  0.0456  0.0027  0.0957
  485ODT      C 2425   0.075   1.287   1.555  0.2169 -0.2147  0.1807
  486ODT      C 2426   2.886   3.145   4.587 -0.0879 -0.1773 -0.0088
  486ODT      D 2427   2.762   2.995   5.064 -0.1144  0.1172  0.2596
  486ODT      C 2428   2.622   3.109   5.333  0.0035 -0.2156  0.3247
  486ODT      C 2429   2.186   3.101   5.605 -0.0551  0.2085  0.2040
  486ODT      C 2430   1.826   3.206   5.768 -0.1778  0.2483  0.0151
  487ODT      C 2431   1.163   3.560   5.343  0.0728  0.3536 -0.2406
  487ODT      D 2432   1.392   3.223   5.448 -0.1474  0.3153  0.0541
  487ODT      C 2433   1.756   3.100   5.289 -0.0279  0.1985 -0.3625
  487ODT      C 2434   2.124   3.373   5.162 -0.0805  0.1260 -0.2017
  487ODT      C 2435   2.100   3.829   4.970  0.1531  0.0184 -0.1155
  488ODT      C 2436   7.751   5.212   3.386  0.1029  0.0656  0.1581
  488ODT      D 2437   7.381   5.285   3.326 -0.0597  0.1170 -0.0714
  488ODT      C 2438   7.064   5.076   3.480 -0.0726  0.0824  0.0033
  488ODT      C 2439   6.908   4.709   3.266  0.0558  0.0785 -0.2812
  488ODT      C 2440   7.122   4.477   3.018 -0.1112  0.0453 -0.0336
  489ODT      C 2441   0.104   6.098   5.633 -0.0935  0.2938  0.0449
  489ODT      D 2442  -0.016   6.477   5.856  0.1097  0.0235 -0.1775
  489ODT      C 2443  -0.265   6.805   5.882 -0.0636  0.1310 -0.1234
  489ODT      C 2444  -0.245   7.230   6.002 -0.0722 -0.0023  0.0166
  489ODT      C 2445   0.208   7.389   6.180 -0.1924 -0.0697  0.0335
  490ODT      C 2446   4.146   7.105   2.200  0.0993 -0.0958  0.1665
  490ODT      D 2447   4.266   7.530   2.206  0.2949 -0.1625 -0.0462
  490ODT      C 2448   4.333   7.945   2.163 -0.1819  0.0623  0.2010
  490ODT      C 2449   4.427   8.244   1.750  0.0212 -0.2918  0.0547
  490ODT      C 2450   4.713   8.432   1.439  0.1831 -0.0806  0.2185
  491ODT      C 2451   9.156   0.295   7.102  0.0305  0.2643 -0.1692
  491ODT      D 2452   8.952   0.658   7.172 -0.0296  0.2778 -0.0555
  491ODT      C 2453   8.739   1.119   7.441 -0.1635  0.2277  0.0947
  491ODT      C 2454   8.718   1.347   7.756  0.2243  0.1075  0.0088
  491ODT      C 2455   8.964   1.549   8.061  0.1546 -0.3034 -0.0294
  492ODT      C 2456   6.360   2.038   4.240 -0.3707 -0.5511 -0.2557
  492ODT      D 2457   5.964   1.878   4.397 -0.1022 -0.0229  0.2197
  492ODT      C 2458   5.818   1.683   4.752 -0.1506  0.3080 -0.0387
  492ODT      C 2459   5.680   1.579   5.151 -0.1891 -0.2248 -0.2062
  492ODT      C 2460   5.640   1.846   5.577 -0.0685 -0.2360 -0.0901
  493ODT      C 2461   3.467   1.789   4.584 -0.2111  0.2871  0.0310
  493ODT      D 2462   3.270   1.614   4.884 -0.1482 -0.0216  0.2584
  493ODT      C 2463   2.799   1.524   4.926  0.1225 -0.2779  0.2105
  493ODT      C 2464   2.411   1.526   5.075  0.0058 -0.2355  0.0804
  493ODT      C 2465   2.073   1.775   5.166  0.2181 -0.0841  0.2498
  494ODT      C 2466   2.789   1.907   5.258 -0.0841  0.1364 -0.0774
  494ODT      D 2467   2.554   2.228   5.292  0.3716  0.1039 -0.0196
  494ODT      C 2468   2.623   2.586   5.575 -0.1708  0.2266  0.0536
  494ODT      C 2469   3.041   2.743   5.476 -0.3214 -0.0423  0.0957
  494ODT      C 2470   3.408   2.962   5.298  0.2722 -0.1323 -0.0301
  495ODT      C 2471   4.950   6.594   4.525  0.2373  0.0596  0.0626
  495ODT      D 2472   4.510   6.606   4.500 -0.0031  0.0758  0.3005
  495ODT      C 2473   4.076   6.658   4.567 -0.2189  0.4569 -0.0610
  495ODT      C 2474   3.758   6.401   4.509 -0.0537  0.0714 -0.2406
  495ODT      C 2475   3.645   6.010   4.451 -0.2834 -0.1433 -0.0122
  496ODT      C 2476   8.616   1.614   2.819 -0.0103 -0.1692  0.0179
  496ODT      D 2477   8.402   1.174   2.955 -0.0497 -0.1752  0.1117
  496ODT      C 2478   8.612   0.760   2.992 -0.0673  0.4063  0.1072
  496ODT      C 2479   8.914   0.589   2.704  0.0658 -0.5777  0.0335
  496ODT      C 2480   9.263   0.528   2.598  0.1777 -0.3165  0.0715
  497ODT      C 2481   8.672   5.468   3.433  0.1058 -0.0355 -0.0782
  497ODT      D 2482   8.674   5.451   3.012  0.0386 -0.3791  0.0283
  497ODT      C 2483   8.641   5.468   2.596  0.0968 -0.1355  0.0289
  497ODT      C 2484   8.607   6.009   2.518  0.3687 -0.1066 -0.1027
  497ODT      C 2485   8.543   6.366   2.609 -0.0576 -0.0670  0.1116
  498ODT      C 2486   1.377   3.600   4.719  0.0548 -0.1727  0.1394
  498ODT      D 2487   1.326   3.209   4.948  0.0997 -0.0622  0.0080
  498ODT      C 2488   1.269   2.825   5.200 -0.1185  0.4450  0.1151
  498ODT      C 2489   1.089   2.678   5.562  0.0832  0.0936  0.2705
  498ODT      C 2490   0.877   2.266   5.696  0.1966  0.0668  0.0397
  499ODT      C 2491   9.324   0.804   4.391  0.0236 -0.0478 -0.1035
  499ODT      D 2492   9.319   0.404   4.544 -0.0996  0.1903 -0.2834
  499ODT      C 2493   9.277  -0.078   4.577  0.0689 -0.0198  0.3474
  499ODT      C 2494   9.446  -0.388   4.392 -0.0098 -0.3005 -0.0299
  499ODT      C 2495   9.689  -0.483   3.923 -0.1375  0.1375 -0.1139
  500ODT      C 2496   6.422   5.407   3.749  0.3477  0.1560  0.0289
  500ODT      D 2497   6.081   5.288   3.502  0.1175  0.0807 -0.0190
  500ODT      C 2498   6.059   5.132   3.070  0.1597  0.0530 -0.2447
  500ODT      C 2499   6.081   4.866   2.710 -0.3185  0.0888  0.2372
  500ODT      C 2500   5.825   4.851   2.367 -0.1014 -0.0914 -0.1219
  501ODT      C 2501   5.787   2.451   0.468 -0.0955 -0.0384 -0.0345
  501ODT      D 2502   5.550   2.855   0.457 -0.2099  0.3490 -0.5110
  501ODT      C 2503   5.218   3.024   0.246  0.1975  0.2691  0.2102
  501ODT      C 2504   4.891   2.804   0.126  0.0821 -0.2140 -0.2654
  501ODT      C 2505   4.511   2.981   0.186 -0.0360  0.2928 -0.0714
  502ODT      C 2506   2.249   3.068   3.012 -0.1196  0.0767  0.2458
  502ODT      D 2507   2.570   3.081   2.651  0.0301 -0.0024  0.0000
  502ODT      C 2508   2.558   3.284   2.290 -0.0444  0.2337 -0.0959
  502ODT      C 2509   2.604   3.491   1.904 -0.0709 -0.1420 -0.0249
  502ODT      C 2510   2.608   3.896   1.816  0.1960  0.1429 -0.0354
  503ODT      C 2511   7.050   3.552   5.062  0.3648  0.0094 -0.2748
  503ODT      D 2512   6.688   3.632   4.721  0.0630  0.0554 -0.2292
  503ODT      C 2513   6.314   3.866   4.641  0.1437  0.0472 -0.1122
  503ODT      C 2514   5.879   3.817   4.691 -0.1558  0.1457  0.0145
  503ODT      C 2515   5.695   3.694   5.122 -0.1153 -0.0412  0.4790
  504ODT      C 2516   1.748   2.777   4.922 -0.1460  0.3140  0.1765
  504ODT      D 2517   1.408   2.815   4.652  0.1375 -0.0271  0.2233
  504ODT      C 2518   1.097   2.750   4.278 -0.0734  0.0899 -0.1179
  504ODT      C 2519   0.813   3.014   4.138 -0.1300  0.0801 -0.0110
  504ODT      C 2520   0.541   3.177   4.458 -0.0547 -0.1441 -0.1194
  505ODT      C 2521   2.616   1.297   6.827  0.0471 -0.0398 -0.0842
  505ODT      D 2522   2.386   1.269   7.076 -0.1766 -0.1714 -0.0725
  505ODT      C 2523   2.202   1.294   7.437 -0.0446  0.0944 -0.0137
  505ODT      C 2524   2.249   1.365   7.842  0.0928  0.0777 -0.2473
  505ODT      C 2525   2.192   1.748   8.084  0.1035 -0.4988 -0.2661
  506ODT      C 2526   5.346   2.293   1.016  0.2722 -0.0558 -0.0040
  506ODT      D 2527   5.660   2.647   0.909  0.0144 -0.1399  0.1950
  506ODT      C 2528   5.845   3.051   0.875  0.0273 -0.2142 -0.0202
  506ODT      C 2529   5.763   3.494   0.925  0.4625 -0.1909 -0.1913
  506ODT      C 2530   5.572   3.754   0.634  0.1516 -0.3895  0.0125
  507ODT      C 2531   0.842   3.547   4.334 -0.1070 -0.1927 -0.1946
  507ODT      D 2532   0.690   3.486   3.931  0.0985  0.0544  0.2300
  507ODT      C 2533   0.534   3.416   3.497 -0.3223  0.4898 -0.1411
  507ODT      C 2534   0.438   3.700   3.150 -0.0009  0.0847 -0.0293
  507ODT      C 2535   0.376   3.754   2.802 -0.0915  0.0740  0.1705
  508ODT      C 2536   3.477   0.417   1.845  0.1026  0.0103  0.4285
  508ODT      D 2537   3.139   0.550   1.897  0.2801  0.0828 -0.1624
  508ODT      C 2538   2.737   0.731   1.611 -0.1852 -0.2839  0.1253
  508ODT      C 2539   2.702   0.910   1.285  0.1989  0.3341 -0.0748
  508ODT      C 2540   2.403   1.252   1.159  0.0476 -0.0172  0.0487
  509ODT      C 2541   8.670   3.083   4.974 -0.0860  0.0194  0.2125
  509ODT      D 2542   8.998   3.099   5.246 -0.2981 -0.0181  0.1682
  509ODT      C 2543   9.055   2.837   5.626 -0.0170 -0.2587 -0.2618
  509ODT      C 2544   9.205   2.545   5.999 -0.3624  0.0643 -0.0944
  509ODT      C 2545   9.389   2.166   6.074  0.1684  0.0891  0.1832
  510ODT      C 2546   2.447   0.388   0.190  0.1139 -0.0317  0.3110
  510ODT      D 2547   2.820   0.505   0.292 -0.0120 -0.2088  0.1339
  510ODT      C 2548   3.228   0.495   0.528  0.2261  0.0267  0.1490
  510ODT      C 2549   3.409   0.109   0.655  0.1800 -0.0763  0.4046
  510ODT      C 2550   3.285  -0.157   0.931 -0.2825 -0.1254  0.1762
  511ODT      C 2551   8.164   3.138   6.359 -0.0190  0.4111 -0.0344
  511ODT      D 2552   8.200   3.524   6.460 -0.0333 -0.1101 -0.0405
  511ODT      C 2553   8.270   3.880   6.803 -0.0289 -0.4041  0.1317
  511ODT      C 2554   8.650   3.986   7.019  0.0771  0.1552  0.0755
  511ODT      C 2555   8.959   3.714   7.224 -0.1073  0.1203 -0.3053
  512ODT      C 2556   5.873   2.550   2.419  0.3240 -0.2815  0.3500
  512ODT      D 2557   5.955   2.181   2.489 -0.0202  0.1103 -0.0520
  512ODT      C 2558   5.702   1.813   2.566 -0.0788 -0.1945 -0.2171
  512ODT      C 2559   5.311   1.629   2.813 -0.1109 -0.1120  0.2146
  512ODT      C 2560   4.872   1.334   2.816 -0.0234 -0.0546  0.1989
  513ODT      C 2561   4.103   4.901   2.049 -0.1070 -0.1101 -0.0787
  513ODT      D 2562   4.065   4.526   1.778 -0.2265  0.1389  0.1973
  513ODT      C 2563   4.165   4.070   1.657  0.2914  0.1618  0.0556
  513ODT      C 2564   4.554   3.843   1.500 -0.1886  0.0572 -0.0304
  513ODT      C 2565   4.489   3.417   1.465  0.0168  0.0141  0.2095
  514ODT      C 2566   9.068   3.235   2.114 -0.2419 -0.1103 -0.0162
  514ODT      D 2567   8.913   2.862   2.320 -0.0076 -0.1183 -0.1002
  514ODT      C 2568   8.523   2.529   2.374 -0.1395 -0.2631 -0.1723
  514ODT      C 2569   8.321   2.070   2.367  0.1258 -0.0112  0.0490
  514ODT      C 2570   8.124   1.835   2.613  0.0593  0.2364 -0.0688
  515ODT      C 2571   4.791   6.420   6.223 -0.1705 -0.1760  0.1817
  515ODT      D 2572   4.864   6.865   6.370  0.3569 -0.2213  0.0115
  515ODT      C 2573   5.059   7.202   6.438  0.0485 -0.0160  0.4770
  515ODT      C 2574   5.298   7.419   6.544  0.0300 -0.0569  0.0028
  515ODT      C 2575   5.420   7.725   6.654  0.0661 -0.4495  0.0639
  516ODT      C 2576   2.518   4.778   6.973  0.0561 -0.4702  0.0513
  516ODT      D 2577   2.525   5.101   7.304 -0.1209 -0.1786 -0.1124
  516ODT      C 2578   2.649   5.482   7.507 -0.4626  0.0147 -0.2648
  516ODT      C 2579   2.360   5.786   7.396 -0.1610  0.0674  0.1055
  516ODT      C 2580   2.228   6.231   7.293  0.0752  0.0545  0.2204
  517ODT      C 2581   7.281   6.587   0.197  0.0417 -0.0887  0.3105
  517ODT      D 2582   6.907   6.546   0.402 -0.0406 -0.1081  0.1535
  517ODT      C 2583   6.787   6.574   0.818 -0.0361 -0.2852  0.0746
  517ODT      C 2584   6.532   6.738   1.182 -0.2212  0.3647  0.4242
  517ODT      C 2585   6.244   7.024   1.298  0.1506 -0.1894  0.1428
  518ODT      C 2586   8.493   6.645   6.576  0.1889 -0.1236 -0.0276
  518ODT      D 2587   8.595   6.904   6.905 -0.2365 -0.0033  0.0052
  518ODT      C 2588   9.001   6.907   7.212  0.2362  0.0326 -0.0113
  518ODT      C 2589   9.357   7.047   7.353 -0.2224  0.1048 -0.2613
  518ODT      C 2590   9.615   7.312   7.178  0.0511 -0.1850 -0.0465
  519ODT      C 2591   2.784   4.680   3.488  0.0692 -0.0229  0.0261
  519ODT      D 2592   2.640   5.018   3.827 -0.1563 -0.1085  0.3121
  519ODT      C 2593   2.655   5.418   4.013  0.0602 -0.0297  0.1538
  519ODT      C 2594   2.704   5.471   4.510 -0.0906 -0.2150  0.1727
  519ODT      C 2595   2.509   5.221   4.896 -0.0193 -0.0336 -0.1179
  520ODT      C 2596   3.557   1.304   0.673 -0.0024 -0.0213 -0.1671
  520ODT      D 2597   3.492   1.619   0.523 -0.0085 -0.0628 -0.1991
  520ODT      C 2598   3.264   2.040   0.421  0.3164  0.1368  0.2007
  520ODT      C 2599   2.852   2.138   0.335 -0.2089  0.1035 -0.1404
  520ODT      C 2600   2.765   2.236  -0.055  0.0397 -0.2366  0.0809
  521ODT      C 2601   1.087   5.403   3.049 -0.0866 -0.2041  0.0790
  521ODT      D 2602   0.973   5.683   3.346  0.0288 -0.1860  0.1647
  521ODT      C 2603   1.116   6.182   3.339 -0.0256  0.0139  0.0266
  521ODT      C 2604   1.385   6.484   3.458 -0.1138  0.0814  0.1232
  521ODT      C 2605   1.657   6.785   3.593  0.0336  0.1159 -0.0252
  522ODT      C 2606   3.446   0.607   1.013 -0.3833 -0.1652 -0.0380
  522ODT      D 2607   3.013   0.703   0.941  0.2119  0.0661 -0.3157
  522ODT      C 2608   2.586   0.572   0.767  0.1332  0.1577 -0.4393
  522ODT      C 2609   2.367   0.200   0.664  0.1965 -0.1267 -0.0018
  522ODT      C 2610   2.419  -0.103   0.451 -0.1341 -0.0760 -0.1504
  523ODT      C 2611   2.190   4.257   2.289 -0.0060 -0.1255  0.1105
  523ODT      D 2612   1.990   4.652   2.192  0.0771  0.3105  0.2206
  523ODT      C 2613   1.775   5.014   2.386  0.1878 -0.3351  0.1089
  523ODT      C 2614   1.733   5.376   2.336 -0.0353  0.2158 -0.0608
  523ODT      C 2615   1.839   5.801   2.371 -0.0380 -0.1615 -0.1042
  524ODT      C 2616   6.033   6.104   5.166  0.1771  0.1012  0.0141
  524ODT      D 2617   5.728   5.969   4.956 -0.2400  0.4178 -0.0765
  524ODT      C 2618   5.269   5.777   4.937 -0.1629 -0.0298 -0.2281
  524ODT      C 2619   4.934   5.535   4.908  0.2585  0.3554 -0.2170
  524ODT      C 2620   4.547   5.291   4.966 -0.2214  0.1125 -0.2148
  525ODT      C 2621   2.610   7.157   3.854 -0.0076  0.0380 -0.0074
  525ODT      D 2622   2.999   7.346   3.901  0.2661  0.0053 -0.0284
  525ODT      C 2623   3.091   7.618   4.133 -0.0453 -0.2896 -0.1702
  525ODT      C 2624   3.327   7.833   4.214  0.1731 -0.1319 -0.2714
  525ODT      C 2625   3.406   8.084   4.585  0.0477  0.1986  0.0751
  526ODT      C 2626   2.396   2.299   0.342  0.3342  0.0036  0.0775
  526ODT      D 2627   2.317   2.769   0.184 -0.2038 -0.0473  0.3114
  526ODT      C 2628   2.159   3.137   0.274 -0.0699  0.2342 -0.1726
  526ODT      C 2629   2.347   3.500   0.085 -0.1708 -0.1304 -0.0904
  526ODT      C 2630   2.445   3.653  -0.352  0.1407 -0.2719  0.0275
  527ODT      C 2631   6.672   2.193   3.861  0.0613 -0.0217 -0.0379
  527ODT      D 2632   6.200   2.099   3.780 -0.0802  0.0154  0.0044
  527ODT      C 2633   5.786   2.098   3.957 -0.0387  0.1552  0.1489
  527ODT      C 2634   5.523   1.859   4.165  0.2484 -0.0239 -0.0941
  527ODT      C 2635   5.202   2.042   4.385 -0.1656 -0.1525  0.0320
  528ODT      C 2636   2.818   4.205   6.060  0.1643  0.2870  0.1514
  528ODT      D 2637   2.542   4.303   5.769  0.0762 -0.1736  0.0696
  528ODT      C 2638   2.174   4.451   5.684 -0.0596 -0.1900 -0.1682
  528ODT      C 2639   1.813   4.555   5.971  0.1282 -0.2413  0.0932
  528ODT      C 2640   1.382   4.757   5.930  0.1765  0.0742 -0.1292
  529ODT      C 2641   2.386   0.344   2.519  0.0771  0.0536  0.0252
  529ODT      D 2642   2.245   0.647   2.330 -0.0858 -0.1024  0.2652
  529ODT      C 2643   1.980   0.921   2.304  0.0582 -0.0267 -0.0592
  529ODT      C 2644   1.776   1.064   2.035 -0.3116  0.1848 -0.0017
  529ODT      C 2645   1.480   0.897   1.928 -0.0311  0.0231  0.0505
  530ODT      C 2646   1.942   1.246   1.539  0.1453  0.2429 -0.2069
  530ODT      D 2647   1.660   1.437   1.218 -0.2697  0.1189 -0.0176
  530ODT      C 2648   1.764   1.504   0.797 -0.2439  0.2414 -0.0516
  530ODT      C 2649   1.794   1.547   0.375  0.2840  0.4579  0.2070
  530ODT      C 2650   1.903   1.752   0.060 -0.0810  0.1300  0.1861
  531ODT      C 2651   4.537   2.530   0.588  0.1503 -0.2641 -0.0307
  531ODT      D 2652   4.278   2.286   0.659 -0.1241 -0.1687 -0.2914
  531ODT      C 2653   3.825   2.267   0.622  0.0376  0.1917  0.0149
  531ODT      C 2654   3.505   2.366   0.980 -0.0092 -0.2146 -0.0587
  531ODT      C 2655   3.424   2.628   1.167 -0.2642 -0.0762  0.2468
  532ODT      C 2656   5.892   6.664   3.862  0.0958 -0.3329 -0.0794
  532ODT      D 2657   6.203   6.308   3.998  0.1641  0.1268 -0.1513
  532ODT      C 2658   6.384   6.145   4.226 -0.1202  0.0740 -0.0279
  532ODT      C 2659   6.777   6.257   4.338  0.0971 -0.2958  0.3153
  532ODT      C 2660   7.206   6.387   4.466  0.1056 -0.1166  0.2273
  533ODT      C 2661   2.704   2.183   2.696 -0.2109 -0.3255 -0.0146
  533ODT      D 2662   2.433   2.061   2.370 -0.0922  0.0623  0.0418
  533ODT      C 2663   2.257   2.153   1.959 -0.0628 -0.0149 -0.6111
  533ODT      C 2664   2.101   2.192   1.554 -0.2388 -0.1702  0.0916
  533ODT      C 2665   1.913   2.474   1.311  0.0214  0.1838  0.0210
  534ODT      C 2666   3.416   6.648   1.908  0.1109 -0.0645  0.0162
  534ODT      D 2667   3.241   6.801   2.293  0.0661  0.7622 -0.1274
  534ODT      C 2668   3.261   7.141   2.554 -0.0730  0.1224  0.2063
  534ODT      C 2669   3.454   7.089   2.884  0.2102 -0.0440  0.0296
  534ODT      C 2670   3.511   7.507   3.031 -0.0899 -0.0090 -0.0043
  535ODT      C 2671   4.671   1.706   4.714 -0.0738 -0.0637 -0.0798
  535ODT      D 2672   4.821   1.368   4.901  0.2798  0.2236  0.3180
  535ODT      C 2673   4.626   1.056   5.128 -0.1218  0.1034 -0.0738
  535ODT      C 2674   4.673   0.696   5.345 -0.0708  0.3980 -0.0274
  535ODT      C 2675   4.780   0.306   5.574  0.0221 -0.2583  0.0112
  536ODT      C 2676   7.330   7.018   5.657  0.1441 -0.0056  0.0362
  536ODT      D 2677   6.937   6.794   5.663 -0.1347  0.2300  0.0883
  536ODT      C 2678   6.554   6.565   5.731  0.1968  0.2454  0.0240
  536ODT      C 2679   6.219   6.265   5.663  0.1844 -0.1333  0.2062
  536ODT      C 2680   5.994   6.058   5.944  0.2456  0.1457 -0.0676
  537ODT      C 2681   6.150   3.527   6.090  0.2017  0.0238  0.1153
  537ODT      D 2682   5.711   3.522   5.974  0.0279  0.0278  0.0788
  537ODT      C 2683   5.306   3.379   6.073 -0.0290  0.0087  0.0645
  537ODT      C 2684   4.839   3.393   6.043 -0.0426  0.0068  0.0200
  537ODT      C 2685   4.595   3.276   6.394  0.1673 -0.1693 -0.4681
  538ODT      C 2686   0.277   0.107   0.975 -0.0624  0.2260 -0.2280
  538ODT      D 2687   0.219   0.476   0.741 -0.1520 -0.0649 -0.2504
  538ODT      C 2688   0.532   0.773   0.501 -0.1823 -0.4377  0.0326
  538ODT      C 2689   0.814   0.851   0.161  0.1510  0.0104  0.2252
  538ODT      C 2690   1.175   0.645   0.009  0.3840 -0.2126  0.1857
  539ODT      C 2691   9.216   5.794   6.070  0.2460  0.0988 -0.2069
  539ODT      D 2692   9.097   5.501   6.390  0.1287  0.0640  0.1281
  539ODT      C 2693   9.205   5.039   6.404 -0.0770 -0.0373  0.0345
  539ODT      C 2694   9.450   4.653   6.623 -0.1002  0.1962  0.0428
  539ODT      C 2695   9.965   4.671   6.715  0.0431 -0.0397 -0.2273
  540ODT      C 2696   3.319   2.301   0.000 -0.1283 -0.1826  0.0400
  540ODT      D 2697   3.501   2.354  -0.405 -0.0253  0.0431  0.1364
  540ODT      C 2698   3.752   2.288  -0.778  0.0400  0.0784 -0.0096
  540ODT      C 2699   3.773   1.864  -0.858 -0.0531  0.2014  0.3000
  540ODT      C 2700   4.103   1.859  -1.141  0.2682 -0.2578 -0.1090
  541ODT      C 2701   5.168   1.067   4.699 -0.1549 -0.2098 -0.1284
  541ODT      D 2702   5.093   0.769   5.067  0.0329  0.1003 -0.2540
  541ODT      C 2703   5.252   0.524   5.472 -0.1326  0.1928  0.0076
  541ODT      C 2704   5.660   0.557   5.713 -0.0549 -0.1296 -0.0576
  541ODT      C 2705   6.068   0.608   5.828 -0.1251 -0.0881  0.0641
  542ODT      C 2706   8.156   4.445   0.420 -0.3038 -0.1348 -0.0901
  542ODT      D 2707   8.240   4.479   0.011 -0.2114  0.0896 -0.1056
  542ODT      C 2708   8.427   4.511  -0.408 -0.2507 -0.3247 -0.4566
  542ODT      C 2709   8.476   4.196  -0.678  0.2209  0.0043 -0.0230
  542ODT      C 2710   8.250   3.981  -0.964 -0.1173  0.1661  0.0856
  543ODT      C 2711   1.586   1.788   3.818  0.3430  0.0490 -0.1630
  543ODT      D 2712   1.915   2.009   3.942 -0.0602 -0.0116  0.1207
  543ODT      C 2713   2.012   2.337   4.037  0.1760  0.1599  0.0199
  543ODT      C 2714   2.314   2.455   4.248 -0.2453 -0.0984  0.1984
  543ODT      C 2715   2.548   2.890   4.308 -0.0063 -0.0017  0.1022
  544ODT      C 2716   1.524   2.416   4.144  0.2168 -0.0404 -0.2156
  544ODT      D 2717   1.718   2.486   3.733 -0.2969  0.0196  0.2894
  544ODT      C 2718   2.081   2.352   3.515  0.1851  0.0427  0.2123
  544ODT      C 2719   2.241   2.209   3.196  0.1558 -0.1565  0.1393
  544ODT      C 2720   2.290   2.059   2.937  0.3395  0.0498  0.1309
  545ODT      C 2721   1.065   0.483   1.463  0.0679  0.0103 -0.2620
  545ODT      D 2722   0.647   0.622   1.791  0.0020 -0.2112  0.3304
  545ODT      C 2723   0.277   0.856   1.744  0.0254  0.0878  0.2249
  545ODT      C 2724  -0.170   0.813   1.674 -0.2706 -0.0951  0.1647
  545ODT      C 2725  -0.592   0.805   1.347  0.0137 -0.0831 -0.0575
  546ODT      C 2726   2.311   3.897   1.344  0.0394  0.0072 -0.1656
  546ODT      D 2727   2.635   4.200   1.386 -0.3427 -0.2389 -0.0384
  546ODT      C 2728   2.799   4.603   1.577  0.2440 -0.0637 -0.1142
  546ODT      C 2729   2.946   4.882   1.508 -0.1854 -0.2823  0.0537
  546ODT      C 2730   3.115   5.237   1.626 -0.1454 -0.1421  0.0501
  547ODT      C 2731   3.187   0.799   5.192 -0.2450  0.0622 -0.2277
  547ODT      D 2732   3.197   0.392   5.239  0.2345  0.0920  0.1098
  547ODT      C 2733   3.156  -0.036   5.275  0.0174  0.0537 -0.2213
  547ODT      C 2734   3.396  -0.411   5.362 -0.0453  0.1278 -0.2079
  547ODT      C 2735   3.439  -0.679   4.986  0.0124 -0.4331 -0.0583
  548ODT      C 2736   0.788   4.729   1.854  0.2054 -0.1881 -0.2244
  548ODT      D 2737   0.429   4.535   1.693 -0.2161  0.1327  0.1692
  548ODT      C 2738   0.232   4.153   1.746  0.0351 -0.0214  0.0882
  548ODT      C 2739  -0.023   3.913   2.076 -0.2512 -0.1364 -0.0565
  548ODT      C 2740  -0.175   3.910   2.537 -0.2568  0.2215 -0.1476
  549ODT      C 2741   7.626   6.266   3.462  0.2627 -0.0822  0.0373
  549ODT      D 2742   7.667   6.527   3.159  0.2695  0.0960  0.1612
  549ODT      C 2743   7.572   6.493   2.769  0.1916 -0.1241 -0.0745
  549ODT      C 2744   7.780   6.380   2.359  0.3468  0.0635 -0.2942
  549ODT      C 2745   7.967   6.344   1.938  0.1187 -0.0714 -0.1203
  550ODT      C 2746   8.064   7.158   5.554  0.0507  0.1886  0.3347
  550ODT      D 2747   8.412   7.468   5.475  0.0673 -0.0640  0.0205
  550ODT      C 2748   8.600   7.822   5.317  0.0362 -0.2016 -0.2034
  550ODT      C 2749   8.711   8.174   5.235 -0.0853  0.0790 -0.0506
  550ODT      C 2750   8.726   8.431   4.944  0.0116  0.1536  0.0531
  551ODT      C 2751   5.740   0.414   6.239  0.0351 -0.2520  0.4063
  551ODT      D 2752   5.751  -0.065   6.153 -0.0793  0.2583 -0.2489
  551ODT      C 2753   5.455  -0.320   6.285 -0.1723 -0.0977  0.0552
  551ODT      C 2754   5.255  -0.557   6.068  0.0826  0.1486 -0.0413
  551ODT      C 2755   4.967  -0.514   5.811  0.0932 -0.2039  0.2924
  552ODT      C 2756   1.703   0.464   6.897 -0.1455  0.0359 -0.1662
  552ODT      D 2757   1.895   0.802   6.684 -0.0961  0.1085  0.1145
  552ODT      C 2758   1.914   0.955   6.292  0.2820 -0.2784 -0.3174
  552ODT      C 2759   1.867   1.157   5.815  0.2301  0.0340  0.0029
  552ODT      C 2760   1.910   1.352   5.438  0.1402  0.0551  0.2343
  553ODT      C 2761   5.648   4.375   0.050 -0.4513 -0.0242 -0.0449
  553ODT      D 2762   6.007   4.187   0.070  0.1288 -0.0867  0.0239
  553ODT      C 2763   6.370   4.018   0.253 -0.1653 -0.3525 -0.0536
  553ODT      C 2764   6.668   4.031   0.582 -0.1698  0.3038 -0.0229
  553ODT      C 2765   6.499   3.851   0.998  0.2580 -0.0244 -0.1014
  554ODT      C 2766   0.223   0.514   3.430 -0.0963 -0.1581  0.0472
  554ODT      D 2767   0.366   0.054   3.416  0.0363  0.0757 -0.3196
  554ODT      C 2768   0.267  -0.307   3.410 -0.0738 -0.0292 -0.0142
  554ODT      C 2769  -0.184  -0.423   3.630 -0.2914 -0.0862  0.1321
  554ODT      C 2770  -0.575  -0.564   3.847 -0.1280  0.0091 -0.0692
  555ODT      C 2771   8.705   1.907   6.692  0.1863  0.1404  0.3784
  555ODT      D 2772   8.855   1.482   6.581 -0.0931  0.0261 -0.2673
  555ODT      C 2773   8.933   1.147   6.856  0.3823  0.0414  0.0550
  555ODT      C 2774   9.169   1.115   7.213 -0.0032  0.1265  0.1304
  555ODT      C 2775   9.160   1.317   7.503 -0.2111 -0.0301  0.1829
  556ODT      C 2776   6.338   5.701   0.726 -0.1200 -0.1136 -0.0817
  556ODT      D 2777   6.731   5.480   0.603  0.0682  0.3912  0.1096
  556ODT      C 2778   7.045   5.337   0.309 -0.0020  0.0716 -0.0918
  556ODT      C 2779   7.127   5.163  -0.096 -0.1726 -0.0885 -0.2663
  556ODT      C 2780   6.764   5.144  -0.395  0.0991  0.1168  0.2884
  557ODT      C 2781   1.773   3.081   2.946 -0.1029  0.1481 -0.1283
  557ODT      D 2782   1.867   3.486   3.123 -0.2443  0.0447  0.0452
  557ODT      C 2783   1.877   3.647   3.383  0.0945  0.1909 -0.1900
  557ODT      C 2784   2.252   3.930   3.503  0.0780  0.0922 -0.3964
  557ODT      C 2785   2.452   4.296   3.621  0.0100  0.1314  0.0355
  558ODT      C 2786   8.475   3.038   0.469 -0.1133  0.3005  0.1818
  558ODT      D 2787   8.560   3.140   0.857 -0.1018 -0.1657 -0.1483
  558ODT      C 2788   8.665   2.846   1.269 -0.1445  0.1685  0.2511
  558ODT      C 2789   8.993   3.026   1.616 -0.3234 -0.1075  0.0944
  558ODT      C 2790   9.386   3.128   1.441  0.3415  0.0832 -0.3303
  559ODT      C 2791   5.365   3.985   0.252 -0.0621 -0.2461 -0.2885
  559ODT      D 2792   4.935   3.924   0.193  0.0862 -0.0425  0.2040
  559ODT      C 2793   4.692   3.888  -0.058  0.0251  0.1645  0.1505
  559ODT      C 2794   4.222   3.835  -0.163  0.0767  0.2568  0.2534
  559ODT      C 2795   3.857   3.656  -0.114  0.0389 -0.0985 -0.0545
  560ODT      C 2796   1.814   6.746   5.352  0.0179  0.1597 -0.2909
  560ODT      D 2797   1.938   7.130   5.535 -0.0972  0.0703 -0.0629
  560ODT      C 2798   2.225   7.418   5.693  0.0761  0.2901 -0.1417
  560ODT      C 2799   2.650   7.555   5.987  0.0737  0.3484  0.0628
  560ODT      C 2800   2.756   7.525   6.421 -0.0010  0.0491 -0.1377
  561ODT      C 2801   9.024   3.311   1.171  0.2575 -0.2025  0.2056
  561ODT      D 2802   9.295   3.517   1.091  0.3905  0.3159  0.1700
  561ODT      C 2803   9.775   3.388   1.132  0.1873  0.0864 -0.1181
  561ODT      C 2804  10.247   3.375   1.285  0.0115 -0.2447  0.1687
  561ODT      C 2805  10.712   3.605   1.392  0.1288  0.0166 -0.0434
  562ODT      C 2806   7.659   1.393   4.030 -0.1145 -0.0065  0.1037
  562ODT      D 2807   7.975   1.594   4.224 -0.3403  0.2377  0.0003
  562ODT      C 2808   8.326   1.845   4.476 -0.0267  0.0120  0.3023
  562ODT      C 2809   8.699   2.033   4.473 -0.1930  0.1010 -0.2242
  562ODT      C 2810   9.135   2.106   4.537 -0.1141  0.2138  0.1338
  563ODT      C 2811   4.651   4.949   1.580 -0.1694 -0.2373 -0.0360
  563ODT      D 2812   5.019   5.137   1.828  0.0139 -0.1279  0.1687
  563ODT      C 2813   5.538   4.983   1.877 -0.2014  0.0480  0.0105
  563ODT      C 2814   5.928   4.813   1.827  0.0750  0.3878 -0.4529
  563ODT      C 2815   6.397   4.587   1.803 -0.0373  0.0197 -0.4274
  564ODT      C 2816   8.046   6.552   0.862 -0.1598  0.1320  0.1763
  564ODT      D 2817   8.397   6.838   0.734  0.1375 -0.0154 -0.0058
  564ODT      C 2818   8.676   6.949   0.416  0.0529  0.0056  0.0490
  564ODT      C 2819   8.807   7.381   0.301 -0.1019 -0.0830  0.1110
  564ODT      C 2820   8.693   7.775   0.444 -0.3255 -0.1902  0.0546
  565ODT      C 2821   3.600   6.014   6.374 -0.1460 -0.0010  0.1224
  565ODT      D 2822   3.638   5.767   6.057  0.4598 -0.2065  0.1557
  565ODT      C 2823   3.686   5.355   5.811 -0.0372  0.1786  0.0465
  565ODT      C 2824   3.855   5.029   5.531  0.0129 -0.1030  0.2342
  565ODT      C 2825   4.346   5.019   5.383  0.1291 -0.0936  0.4749
  566ODT      C 2826   1.866   3.636   6.628  0.0521 -0.4093 -0.0988
  566ODT      D 2827   2.063   3.179   6.589  0.0938 -0.1612  0.0926
  566ODT      C 2828   2.198   2.845   6.681  0.1019  0.3252  0.1138
  566ODT      C 2829   2.125   2.466   6.521 -0.0847  0.0851 -0.0464
  566ODT      C 2830   2.250   2.248   6.243  0.0811  0.1618  0.0641
  567ODT      C 2831   1.584   4.007   0.998 -0.4126  0.2772 -0.1580
  567ODT      D 2832   1.519   3.957   0.533  0.4222  0.1566 -0.0197
  567ODT      C 2833   1.753   3.738   0.167 -0.0444  0.1522 -0.1729
  567ODT      C 2834   1.833   3.380  -0.056 -0.1987 -0.2468  0.4933
  567ODT      C 2835   1.806   2.868  -0.094  0.1773 -0.3097  0.0015
  568ODT      C 2836   5.829   5.396   4.660 -0.0798  0.1047 -0.2470
  568ODT      D 2837   6.159   5.112   4.525  0.1429  0.1258 -0.0062
  568ODT      C 2838   6.516   5.271   4.558 -0.1200  0.1661  0.0743
  568ODT      C 2839   6.909   5.289   4.765 -0.0243  0.3788 -0.3454
  568ODT      C 2840   7.180   5.306   4.509 -0.2989  0.0200 -0.1427
  569ODT      C 2841   3.905   0.031   5.669 -0.0524  0.0513 -0.1296
  569ODT      D 2842   4.156  -0.130   5.277 -0.3040 -0.0357  0.0754
  569ODT      C 2843   4.276  -0.246   4.935  0.1815  0.0210 -0.2464
  569ODT      C 2844   4.633  -0.537   4.975  0.0828  0.1065  0.2163
  569ODT      C 2845   4.818  -0.877   4.942  0.1105 -0.0493 -0.1240
  570ODT      C 2846   4.398   6.260   0.834  0.2216 -0.3371  0.0700
  570ODT      D 2847   4.338   6.509   0.436 -0.1818  0.0593  0.5005
  570ODT      C 2848   4.686   6.622   0.143  0.2308 -0.1963 -0.2175
  570ODT      C 2849   5.099   6.544  -0.005 -0.0321 -0.0590  0.0658
  570ODT      C 2850   5.509   6.671  -0.286 -0.1755 -0.0342  0.0421
  571ODT      C 2851   8.851   6.679   2.839  0.1253  0.1777 -0.0715
  571ODT      D 2852   8.672   6.887   2.503  0.1293 -0.1800  0.3040
  571ODT      C 2853   8.538   6.933   1.962 -0.1381 -0.3307 -0.0072
  571ODT      C 2854   8.420   6.819   1.630  0.1959 -0.2721 -0.2927
  571ODT      C 2855   8.196   6.469   1.541 -0.1406  0.0410  0.1502
  572ODT      C 2856   5.280   0.990   4.185  0.3616 -0.1878  0.0130
  572ODT      D 2857   5.404   0.619   4.362 -0.1633 -0.0958  0.2676
  572ODT      C 2858   5.670   0.252   4.364  0.2038  0.1145  0.1266
  572ODT      C 2859   5.506  -0.158   4.317  0.0784 -0.0212 -0.0585
  572ODT      C 2860   5.412  -0.435   4.582  0.0767 -0.0022  0.0079
  573ODT      C 2861   2.083   3.912   2.986  0.4075  0.0464 -0.0216
  573ODT      D 2862   2.131   4.274   3.147 -0.3333  0.1033  0.2272
  573ODT      C 2863   1.992   4.577   3.439  0.0022  0.0665 -0.0062
  573ODT      C 2864   2.258   4.718   3.759  0.1324  0.0394 -0.0728
  573ODT      C 2865   2.372   4.736   4.175 -0.1133 -0.1033  0.2858
  574ODT      C 2866   9.002   4.701   4.638 -0.0149 -0.0343  0.2461
  574ODT      D 2867   8.924   4.582   5.109 -0.4002 -0.0157  0.0259
  574ODT      C 2868   9.099   4.287   5.367 -0.0364 -0.0681 -0.0198
  574ODT      C 2869   9.014   3.887   5.564 -0.0271 -0.0509  0.3729
  574ODT      C 2870   8.771   3.983   5.828  0.2371 -0.1901 -0.0367
  575ODT      C 2871   2.644   3.417   6.496 -0.1507  0.2333 -0.0718
  575ODT      D 2872   2.704   3.013   6.343  0.2264  0.3773  0.4606
  575ODT      C 2873   3.071   2.804   6.179  0.2081 -0.3115 -0.0605
  575ODT      C 2874   3.117   2.520   5.915 -0.0868  0.0225  0.1235
  575ODT      C 2875   3.048   2.255   5.572  0.0724  0.0465  0.0798
  576ODT      C 2876   3.695   2.739   4.452 -0.1073  0.0163  0.2674
  576ODT      D 2877   3.752   2.549   4.018  0.1143  0.0250 -0.1407
  576ODT      C 2878   3.686   2.239   3.738 -0.1438  0.2187 -0.2650
  576ODT      C 2879   3.986   1.948   3.447 -0.3159 -0.0310 -0.2878
  576ODT      C 2880   4.170   1.733   3.220  0.2918  0.1266  0.0445
  577ODT      C 2881   0.009   1.206   0.721  0.1398  0.0824 -0.0335
  577ODT      D 2882   0.065   0.964   0.393 -0.1317  0.4179 -0.0716
  577ODT      C 2883   0.334   0.732   0.073  0.1353  0.1895  0.2575
  577ODT      C 2884   0.257   0.608  -0.362  0.2168  0.1059 -0.1116
  577ODT      C 2885   0.554   0.441  -0.723 -0.0182  0.1605 -0.3025
  578ODT      C 2886   8.502   1.918   5.316  0.0507  0.0263  0.0062
  578ODT      D 2887   8.157   1.656   5.192 -0.0660 -0.0677 -0.0891
  578ODT      C 2888   7.782   1.307   5.211 -0.1928  0.1821 -0.2675
  578ODT      C 2889   7.793   0.961   4.958 -0.0987  0.2134  0.0570
  578ODT      C 2890   7.628   0.540   4.863 -0.3929 -0.1137 -0.1397
  579ODT      C 2891   2.131   2.963   1.206  0.0803  0.0686 -0.0868
  579ODT      D 2892   2.044   3.095   0.802 -0.1579  0.0775  0.1077
  579ODT      C 2893   2.003   3.536   0.572  0.0490 -0.0977 -0.0771
  579ODT      C 2894   2.043   3.909   0.793 -0.3591 -0.3282 -0.1875
  579ODT      C 2895   2.235   4.337   0.756  0.0210 -0.2694 -0.4288
  580ODT      C 2896   0.469   4.719   4.049 -0.3325 -0.2308  0.0347
  580ODT      D 2897   0.460   5.006   3.651  0.0283  0.0688 -0.1012
  580ODT      C 2898   0.667   5.256   3.359 -0.3319  0.1538 -0.1379
  580ODT      C 2899   0.620   5.617   3.005  0.0281 -0.0768 -0.0310
  580ODT      C 2900   1.036   5.946   2.850  0.1587 -0.0947  0.1096
  581ODT      C 2901   5.344   1.678   1.002 -0.1869 -0.0676  0.3690
  581ODT      D 2902   5.704   1.556   1.099 -0.1625 -0.1248  0.1324
  581ODT      C 2903   6.107   1.342   1.219 -0.0402  0.1990 -0.1571
  581ODT      C 2904   6.433   1.026   1.469  0.2889  0.0921  0.0128
  581ODT      C 2905   6.812   0.711   1.510 -0.1787 -0.0638  0.0361
  582ODT      C 2906   6.827   0.899   1.053  0.1030  0.3480 -0.4265
  582ODT      D 2907   6.923   1.226   0.797 -0.3022  0.0639  0.1538
  582ODT      C 2908   6.906   1.458   0.357 -0.0726  0.1235 -0.0336
  582ODT      C 2909   6.729   1.721  -0.032 -0.1193 -0.1497 -0.1168
  582ODT      C 2910   6.790   2.127  -0.195 -0.1110  0.0549 -0.1741
  583ODT      C 2911   5.657   0.928   0.420  0.1103 -0.1527  0.0765
  583ODT      D 2912   5.847   0.806   0.794  0.2467  0.1443 -0.0735
  583ODT      C 2913   5.833   0.874   1.230  0.2351 -0.1391 -0.0893
  583ODT      C 2914   5.682   1.224   1.466  0.1453  0.1250 -0.0261
  583ODT      C 2915   5.611   1.442   1.830  0.1544  0.1007 -0.1628
  584ODT      C 2916   7.255   1.327   2.741  0.3131 -0.1140 -0.3030
  584ODT      D 2917   7.331   0.998   2.363 -0.1421  0.0570  0.2300
  584ODT      C 2918   7.063   0.879   1.943  0.1884  0.2123 -0.1201
  584ODT      C 2919   6.556   0.762   1.889  0.1291  0.2476 -0.1427
  584ODT      C 2920   6.083   0.698   1.664 -0.0902  0.0636  0.3415
  585ODT      C 2921   5.380   2.849   6.195  0.0660  0.3094  0.2154
  585ODT      D 2922   5.209   3.065   6.510 -0.4255 -0.0843  0.1812
  585ODT      C 2923   5.031   3.181   6.942  0.4479  0.1504 -0.2134
  585ODT      C 2924   4.862   3.394   7.365  0.1738  0.0829  0.1656
  585ODT      C 2925   5.133   3.554   7.754  0.0562  0.3596  0.1675
  586ODT      C 2926   5.016   6.581   3.077  0.0446  0.0754 -0.0493
  586ODT      D 2927   5.058   6.961   3.406  0.1794  0.0269 -0.0666
  586ODT      C 2928   5.164   7.343   3.439  0.4269 -0.0466 -0.1085
  586ODT      C 2929   5.099   7.814   3.364 -0.1589 -0.1082 -0.0122
  586ODT      C 2930   4.891   8.266   3.511  0.0287 -0.1004 -0.0376
  587ODT      C 2931   0.425   6.762   1.714 -0.1476  0.1588 -0.0179
  587ODT      D 2932   0.355   6.924   2.068 -0.1754  0.0032  0.2890
  587ODT      C 2933   0.098   6.956   2.469 -0.3074 -0.0331 -0.1872
  587ODT      C 2934  -0.180   7.096   2.700  0.0158  0.1262 -0.0267
  587ODT      C 2935  -0.519   7.264   2.714  0.0009 -0.3562 -0.0822
  588ODT      C 2936   3.603   5.344   1.539  0.0342  0.2429  0.0480
  588ODT      D 2937   3.456   5.498   1.231  0.0156  0.0408  0.1923
  588ODT      C 2938   3.182   5.432   0.903  0.0296  0.1837 -0.1743
  588ODT      C 2939   3.229   5.413   0.436 -0.1894 -0.2420  0.1190
  588ODT      C 2940   3.099   5.200   0.102  0.0178 -0.4268 -0.0774
  589ODT      C 2941   8.930   0.259   3.146 -0.0473  0.0868 -0.0468
  589ODT      D 2942   9.054  -0.123   3.144  0.0110  0.2848  0.1327
  589ODT      C 2943   9.326  -0.431   3.096  0.0584  0.1520  0.3822
  589ODT      C 2944   9.701  -0.751   3.228  0.0502 -0.3948  0.1942
  589ODT      C 2945   9.683  -1.205   3.016  0.1088  0.1058  0.0243
  590ODT      C 2946   4.596   0.607   3.354  0.1319  0.2668 -0.0274
  590ODT      D 2947   4.570   0.958   3.008 -0.1904  0.1150  0.0771
  590ODT      C 2948   4.545   1.026   2.605 -0.0080  0.2051  0.0834
  590ODT      C 2949   4.310   1.339   2.361 -0.0376 -0.0866 -0.3589
  590ODT      C 2950   4.466   1.767   2.269  0.0753 -0.2929 -0.0762
  591ODT      C 2951   9.488   2.171   4.949  0.4628 -0.1149 -0.1408
  591ODT      D 2952   9.160   2.200   5.066  0.0358  0.0277 -0.1337
  591ODT      C 2953   8.722   2.186   4.927 -0.1195 -0.0808 -0.1608
  591ODT      C 2954   8.270   2.159   4.874 -0.1418 -0.0646 -0.0818
  591ODT      C 2955   7.893   2.217   4.797  0.0129  0.3084  0.0498
  592ODT      C 2956   6.962   0.777   5.877  0.1273  0.1031  0.1183
  592ODT      D 2957   7.069   1.264   5.827 -0.3110 -0.2366  0.4444
  592ODT      C 2958   6.785   1.596   5.936  0.3227 -0.2962  0.2001
  592ODT      C 2959   6.288   1.546   5.945 -0.1040 -0.1669  0.1980
  592ODT      C 2960   5.995   1.113   5.972 -0.0413  0.0277  0.1053
  593ODT      C 2961   6.920   3.976   1.260  0.1431  0.0695 -0.0229
  593ODT      D 2962   6.948   3.532   1.225 -0.0092  0.0839 -0.2147
  593ODT      C 2963   6.881   3.114   1.017 -0.1579  0.0149 -0.1117
  593ODT      C 2964   6.713   2.746   0.817 -0.1123 -0.0393  0.1705
  593ODT      C 2965   6.307   2.511   0.558  0.0403  0.1450  0.0319
  594ODT      C 2966   8.206   3.947   5.689 -0.0147 -0.3366  0.1423
  594ODT      D 2967   8.351   4.320   5.827 -0.0083 -0.1173  0.0265
  594ODT      C 2968   8.706   4.490   5.831  0.1078 -0.2476 -0.0136
  594ODT      C 2969   8.775   4.942   5.917 -0.2279 -0.1872  0.0116
  594ODT      C 2970   8.989   5.249   5.956 -0.1911  0.2980 -0.2363
  595ODT      C 2971   4.221   0.479   2.900 -0.0356  0.0082 -0.0817
  595ODT      D 2972   4.665   0.385   2.912  0.0835  0.0311  0.0926
  595ODT      C 2973   4.811   0.056   3.057  0.2401  0.2069 -0.1211
  595ODT      C 2974   4.611  -0.362   3.167  0.0607  0.2316  0.3419
  595ODT      C 2975   4.696  -0.622   3.518  0.3765 -0.0795 -0.1061
  596ODT      C 2976   3.500   4.740   5.633  0.1190  0.3772 -0.2733
  596ODT      D 2977   3.210   4.680   5.271  0.0373  0.1749  0.1941
  596ODT      C 2978   3.207   4.533   4.855  0.3889  0.0975 -0.1388
  596ODT      C 2979   3.161   4.105   4.762  0.1007 -0.0478  0.2471
  596ODT      C 2980   3.086   3.603   4.716 -0.1988 -0.1100  0.1278
  597ODT      C 2981   0.323   1.946   2.785 -0.0556  0.0906  0.2803
  597ODT      D 2982   0.186   2.346   2.771  0.1138  0.1097 -0.3844
  597ODT      C 2983   0.174   2.631   2.612 -0.2593  0.2924  0.3172
  597ODT      C 2984   0.476   3.030   2.474 -0.1631  0.0034  0.5027
  597ODT      C 2985   0.929   3.218   2.356  0.0360 -0.1539 -0.1200
  598ODT      C 2986   7.171   7.047   0.125  0.3606  0.2013  0.3039
  598ODT      D 2987   7.291   7.035  -0.256 -0.0025 -0.1385  0.1341
  598ODT      C 2988   7.533   7.342  -0.518 -0.3555  0.1339 -0.1377
  598ODT      C 2989   7.746   7.355  -0.910 -0.2684 -0.0858  0.1137
  598ODT      C 2990   7.811   7.115  -1.249  0.0163 -0.1795  0.1053
  599ODT      C 2991   4.262   2.661   4.754  0.1284 -0.1574 -0.2221
  599ODT      D 2992   4.588   2.613   5.191 -0.0942 -0.0540  0.1250
  599ODT      C 2993   4.988   2.515   5.404 -0.0949 -0.0008 -0.2787
  599ODT      C 2994   5.367   2.283   5.575 -0.0964  0.3792 -0.0648
  599ODT      C 2995   5.371   2.037   5.924 -0.1206  0.0631 -0.3248
  600ODT      C 2996   9.068   0.837   3.227 -0.1066 -0.0130 -0.1686
  600ODT      D 2997   9.218   1.080   3.555  0.1323 -0.2129 -0.6017
  600ODT      C 2998   9.504   1.188   3.896  0.0534  0.1404 -0.2877
  600ODT      C 2999   9.550   1.332   4.268 -0.0235  0.1034 -0.0200
  600ODT      C 3000   9.496   1.691   4.589  0.0242 -0.2131 -0.2221
  601ODT      C 3001   3.316   4.712   2.468  0.4907 -0.2863 -0.1519
  601ODT      D 3002   3.732   4.657   2.309 -0.2330  0.1588 -0.2971
  601ODT      C 3003   4.124   4.426   2.304  0.1317 -0.1990  0.0335
  601ODT      C 3004   4.582   4.266   2.438  0.4024  0.1011  0.2424
  601ODT      C 3005   4.926   4.096   2.273  0.0233  0.1570 -0.2229
  602ODT      C 3006   3.263   4.296   2.738 -0.0154  0.2866  0.1900
  602ODT      D 3007   2.869   4.309   2.964 -0.1834 -0.1939  0.0711
  602ODT      C 3008   2.494   4.583   3.066  0.1190  0.2650  0.1904
  602ODT      C 3009   2.406   4.918   3.344 -0.1049 -0.5579 -0.1087
  602ODT      C 3010   2.309   5.294   3.616  0.0195  0.2009 -0.0482
  603ODT      C 3011   4.507   0.032   4.625  0.1461 -0.0946 -0.2282
  603ODT      D 3012   4.360  -0.063   4.271  0.1454 -0.2434 -0.1395
  603ODT      C 3013   4.062  -0.321   4.132 -0.2619  0.1133 -0.1452
  603ODT      C 3014   3.704  -0.293   3.834 -0.1760 -0.1792 -0.0462
  603ODT      C 3015   3.308  -0.619   3.726  0.5917 -0.1507 -0.0419
  604ODT      C 3016   0.117   1.357   0.110 -0.0923  0.2200  0.0146
  604ODT      D 3017  -0.042   1.644   0.484  0.3840  0.2822  0.1023
  604ODT      C 3018  -0.227   1.921   0.789 -0.0395 -0.2668 -0.2761
  604ODT      C 3019  -0.560   2.134   0.993 -0.1457 -0.0502  0.2474
  604ODT      C 3020  -1.006   2.364   1.155 -0.1034  0.0663  0.1433
  605ODT      C 3021   9.025   6.364   2.347  0.1075 -0.1410 -0.1319
  605ODT      D 3022   9.424   6.172   2.341 -0.3943  0.0979  0.1795
  605ODT      C 3023   9.765   5.994   2.153  0.0074  0.0550  0.1860
  605ODT      C 3024  10.050   5.704   1.928 -0.1931  0.1085 -0.0541
  605ODT      C 3025  10.537   5.537   1.999 -0.3531 -0.1144 -0.2487
  606ODT      C 3026   1.834   5.274   6.182 -0.1497 -0.0579  0.0297
  606ODT      D 3027   2.036   5.485   6.595 -0.0738 -0.0743 -0.1334
  606ODT      C 3028   2.341   5.802   6.794 -0.2406  0.0876  0.0220
  606ODT      C 3029   2.593   6.112   6.636  0.0102  0.1446  0.0094
  606ODT      C 3030   2.750   6.193   6.302  0.0558  0.2781  0.1706
  607ODT      C 3031   2.993   1.100   4.782 -0.0537 -0.1557 -0.0371
  607ODT      D 3032   3.064   1.140   4.364 -0.1858 -0.1306  0.0054
  607ODT      C 3033   2.931   0.903   3.960 -0.1717  0.0183  0.1143
  607ODT      C 3034   2.926   0.910   3.532 -0.1256 -0.0574  0.1644
  607ODT      C 3035   2.614   0.749   3.323  0.2376  0.1583  0.0542
  608ODT      C 3036   0.333   4.856   3.125  0.2680  0.2504 -0.0757
  608ODT      D 3037  -0.120   4.765   3.059  0.1575  0.0066 -0.3340
  608ODT      C 3038  -0.450   4.547   3.267 -0.1209 -0.0696 -0.0057
  608ODT      C 3039  -0.842   4.388   3.209  0.1575  0.1621 -0.2686
  608ODT      C 3040  -1.074   4.179   2.911 -0.2749  0.0103  0.0559
  609ODT      C 3041   6.624   3.001   0.414  0.0003 -0.2990  0.0059
  609ODT      D 3042   6.841   2.676   0.258  0.0399 -0.0110  0.3242
  609ODT      C 3043   7.175   2.458  -0.013 -0.0254  0.0925  0.1377
  609ODT      C 3044   7.489   2.324  -0.139  0.2613  0.0199  0.0408
  609ODT      C 3045   7.614   2.018  -0.221  0.0045 -0.0095 -0.2354
  610ODT      C 3046   5.566   6.247   6.585  0.5447 -0.0771  0.1356
  610ODT      D 3047   5.174   6.158   6.364 -0.1937  0.1017  0.3052
  610ODT      C 3048   4.927   5.933   6.117  0.1037 -0.2107 -0.0330
  610ODT      C 3049   4.666   5.742   5.768 -0.0945  0.3650 -0.0659
  610ODT      C 3050   4.637   5.576   5.381  0.3338 -0.2513  0.1289
  611ODT      C 3051   4.608   3.526   1.985 -0.1801  0.0856 -0.0941
  611ODT      D 3052   4.958   3.767   1.897  0.0350 -0.4231  0.1244
  611ODT      C 3053   5.347   3.751   1.819  0.0174 -0.1267  0.1560
  611ODT      C 3054   5.727   3.922   1.694  0.1723  0.1616  0.1756
  611ODT      C 3055   6.061   4.166   1.493 -0.1081  0.2120 -0.2667
  612ODT      C 3056   8.764   0.040   4.562 -0.1193 -0.0136  0.0786
  612ODT      D 3057   8.986   0.206   4.896  0.0723 -0.2906  0.0313
  612ODT      C 3058   9.358   0.229   5.090  0.0891  0.0370 -0.0427
  612ODT      C 3059   9.747   0.505   5.271 -0.0014 -0.2530 -0.3526
  612ODT      C 3060  10.081   0.804   5.390  0.1548 -0.0539  0.1020
  613ODT      C 3061   6.174   5.757   3.920  0.2771 -0.3029  0.1735
  613ODT      D 3062   5.795   5.867   4.273 -0.0495  0.0623 -0.0384
  613ODT      C 3063   5.482   6.114   4.537  0.0173 -0.2214  0.1197
  613ODT      C 3064   5.022   6.049   4.583 -0.1829 -0.3307  0.0297
  613ODT      C 3065   4.595   5.920   4.346  0.2975  0.0281 -0.1318
  614ODT      C 3066   7.883   6.379   5.186  0.0972 -0.2263 -0.1504
  614ODT      D 3067   8.158   6.127   4.999  0.1685  0.1377 -0.0878
  614ODT      C 3068   8.540   5.819   4.942  0.2223  0.0501  0.0947
  614ODT      C 3069   8.815   5.632   4.683  0.1234 -0.0818  0.0070
  614ODT      C 3070   9.011   5.629   4.344  0.1907  0.4052  0.1515
  615ODT      C 3071   0.048   3.800   1.459 -0.0633 -0.1463  0.1519
  615ODT      D 3072  -0.123   3.516   1.729 -0.4213 -0.0996 -0.1642
  615ODT      C 3073   0.023   3.183   1.940 -0.0525  0.2140  0.1610
  615ODT      C 3074  -0.069   3.000   2.338 -0.3139 -0.0839  0.0827
  615ODT      C 3075  -0.319   2.821   2.700 -0.4560 -0.2143  0.2491
  616ODT      C 3076   9.489   3.133   5.512 -0.0396 -0.0203 -0.1423
  616ODT      D 3077   9.928   2.920   5.507  0.0711 -0.2614  0.0267
  616ODT      C 3078  10.175   2.630   5.319  0.2927  0.0216  0.4249
  616ODT      C 3079   9.957   2.474   4.964 -0.3224 -0.5307  0.2134
  616ODT      C 3080   9.860   2.087   4.679 -0.3456  0.2908 -0.3038
  617ODT      C 3081   0.864   2.898   3.264 -0.0320 -0.0359 -0.2538
  617ODT      D 3082   1.031   2.845   3.669 -0.2195 -0.0397 -0.0390
  617ODT      C 3083   1.445   2.935   3.836  0.1709 -0.0920  0.0240
  617ODT      C 3084   1.637   2.991   4.240  0.0783 -0.1033 -0.3178
  617ODT      C 3085   1.622   3.428   4.305  0.0518  0.1128 -0.2736
  618ODT      C 3086   6.000   2.994   5.281  0.5483  0.0073 -0.0019
  618ODT      D 3087   5.670   3.283   5.517  0.1295 -0.4407 -0.0019
  618ODT      C 3088   5.310   3.380   5.561  0.0773 -0.1215 -0.0293
  618ODT      C 3089   4.852   3.330   5.565 -0.3954 -0.1353  0.0197
  618ODT      C 3090   4.424   3.379   5.750  0.2910  0.1752 -0.2089
  619ODT      C 3091   8.774   2.513   0.080  0.1080  0.0827  0.5084
  619ODT      D 3092   9.221   2.590  -0.177 -0.0802  0.2626  0.0884
  619ODT      C 3093   9.624   2.586  -0.153  0.1057  0.0286 -0.1473
  619ODT      C 3094  10.059   2.510  -0.376  0.0005  0.2374 -0.2349
  619ODT      C 3095  10.370   2.656  -0.523 -0.2298 -0.1558  0.0990
  620ODT      C 3096   6.044   4.076   4.214  0.1767  0.2688 -0.2235
  620ODT      D 3097   5.754   4.206   4.518 -0.3377 -0.0636 -0.0143
  620ODT      C 3098   5.740   4.303   4.912 -0.0814 -0.0456 -0.2005
  620ODT      C 3099   5.709   4.211   5.320 -0.1504  0.2418 -0.2336
  620ODT      C 3100   5.715   3.879   5.560 -0.2001  0.0547 -0.0945
  621ODT      C 3101   7.605   3.828   2.966  0.1736  0.0183 -0.0201
  621ODT      D 3102   7.700   3.737   2.591  0.0361  0.0762  0.1290
  621ODT      C 3103   7.654   3.404   2.169  0.0081  0.1011 -0.1644
  621ODT      C 3104   7.748   3.044   1.996  0.1516  0.0033 -0.0602
  621ODT      C 3105   7.914   2.657   1.783  0.0135 -0.1164 -0.2090
  622ODT      C 3106   0.042   3.423   3.208 -0.0423  0.0720  0.3532
  622ODT      D 3107  -0.123   3.643   2.961 -0.0709  0.0933 -0.0602
  622ODT      C 3108  -0.467   3.975   3.034 -0.0989  0.3280 -0.0633
  622ODT      C 3109  -0.539   4.339   2.805  0.1057  0.1612 -0.0003
  622ODT      C 3110  -0.927   4.695   2.735  0.0392 -0.3070 -0.1443
  623ODT      C 3111   4.462   1.648   1.318 -0.1257 -0.2071 -0.2517
  623ODT      D 3112   4.148   1.444   1.416 -0.1090 -0.0138 -0.3745
  623ODT      C 3113   3.646   1.262   1.498 -0.0140 -0.0313  0.2000
  623ODT      C 3114   3.239   1.042   1.428 -0.1487 -0.2595  0.2067
  623ODT      C 3115   3.144   0.657   1.383 -0.1831 -0.1153 -0.3877
  624ODT      C 3116   6.009   4.957   6.298  0.0703 -0.2355  0.1571
  624ODT      D 3117   6.281   5.223   5.920 -0.0800 -0.1538  0.3174
  624ODT      C 3118   6.662   5.311   5.576 -0.0963  0.3737 -0.0769
  624ODT      C 3119   7.033   5.130   5.390 -0.1951 -0.0983 -0.1369
  624ODT      C 3120   7.457   4.997   5.421 -0.0381  0.2553 -0.4887
  625ODT      C 3121   2.488   6.959   6.658  0.2314  0.1176  0.1058
  625ODT      D 3122   2.388   7.167   6.193  0.1905  0.2848  0.1605
  625ODT      C 3123   1.997   7.109   6.036 -0.2637  0.2936  0.0092
  625ODT      C 3124   1.474   7.206   5.937 -0.2470 -0.1259  0.0328
  625ODT      C 3125   1.147   7.032   6.059 -0.0579  0.2494 -0.1668
  626ODT      C 3126   5.245   0.062   1.100 -0.1915  0.2168  0.6837
  626ODT      D 3127   4.968  -0.318   1.051  0.3337 -0.0690 -0.1989
  626ODT      C 3128   4.754  -0.675   1.003  0.2765 -0.3408  0.3878
  626ODT      C 3129   4.622  -0.941   1.284  0.1906 -0.2589  0.1261
  626ODT      C 3130   4.381  -1.283   1.445  0.2008  0.3942  0.1211
  627ODT      C 3131   0.613   3.121   0.451  0.0785  0.0231  0.1152
  627ODT      D 3132   0.958   3.306   0.287  0.1144 -0.0339  0.0475
  627ODT      C 3133   1.373   3.332   0.289  0.3466  0.2113 -0.2036
  627ODT      C 3134   1.694   3.131   0.341 -0.1391 -0.1041 -0.3496
  627ODT      C 3135   1.809   2.744   0.402 -0.0305 -0.0246  0.0649
  628ODT      C 3136   1.879   0.060   0.475 -0.1977  0.3081 -0.0707
  628ODT      D 3137   1.440   0.265   0.536 -0.1696  0.3337 -0.0047
  628ODT      C 3138   1.203   0.274   0.811  0.0542  0.1102  0.0049
  628ODT      C 3139   0.976   0.107   1.157 -0.3048 -0.1213 -0.1070
  628ODT      C 3140   0.712  -0.222   1.331  0.0906  0.1124  0.1381
  629ODT      C 3141   0.975   4.140   6.302  0.0738 -0.1115 -0.1197
  629ODT      D 3142   0.518   4.372   6.174  0.2485  0.0607  0.0109
  629ODT      C 3143   0.291   4.738   6.157  0.0515  0.3069 -0.0356
  629ODT      C 3144  -0.226   4.748   6.010 -0.2274  0.1076  0.0998
  629ODT      C 3145  -0.436   4.732   5.566  0.0388 -0.0264  0.0904
  630ODT      C 3146   2.722   3.786   2.323  0.0055  0.1381  0.1321
  630ODT      D 3147   2.312   3.764   2.265  0.0505  0.1495  0.0479
  630ODT      C 3148   2.058   3.809   1.951  0.1909 -0.3242  0.0032
  630ODT      C 3149   1.885   3.846   1.534 -0.0122  0.3154 -0.1583
  630ODT      C 3150   1.868   3.601   1.136  0.2715  0.1922  0.1519
  631ODT      C 3151   7.880   0.868   2.175 -0.0721  0.2167 -0.1612
  631ODT      D 3152   7.840   0.790   2.558  0.1637 -0.4635 -0.0464
  631ODT      C 3153   7.789   0.365   2.798 -0.0207 -0.0029 -0.1920
  631ODT      C 3154   7.415   0.147   2.833 -0.1616 -0.1867 -0.0964
  631ODT      C 3155   6.998   0.299   2.747  0.0717  0.2510 -0.1661
  632ODT      C 3156   2.995   0.976   6.453  0.1737 -0.0614  0.0308
  632ODT      D 3157   3.223   0.803   6.173 -0.0662 -0.1782 -0.1251
  632ODT      C 3158   3.629   0.546   6.043 -0.3217 -0.2884 -0.0722
  632ODT      C 3159   3.975   0.451   5.925  0.2463 -0.0646 -0.1393
  632ODT      C 3160   4.221   0.442   5.443 -0.1972  0.0599 -0.1651
  633ODT      C 3161   7.271   2.830   1.155 -0.1497 -0.1859 -0.0176
  633ODT      D 3162   7.470   3.219   0.984  0.0549 -0.2703 -0.1934
  633ODT      C 3163   7.617   3.373   0.615 -0.0303 -0.3660  0.0475
  633ODT      C 3164   7.509   3.137   0.302  0.4359  0.0517  0.1966
  633ODT      C 3165   7.198   3.004   0.099 -0.1379  0.0481  0.0921
  634ODT      C 3166   0.969   4.914   3.159  0.2596 -0.0450 -0.0581
  634ODT      D 3167   0.690   5.147   2.855 -0.1673 -0.0090  0.2051
  634ODT      C 3168   0.256   5.360   2.797  0.0047 -0.0629  0.4154
  634ODT      C 3169  -0.105   5.279   2.709  0.4714  0.1986 -0.1659
  634ODT      C 3170  -0.560   5.110   2.699 -0.4052  0.4851 -0.3004
  635ODT      C 3171   2.488   3.100   7.027  0.1777  0.4147  0.0499
  635ODT      D 3172   2.811   3.021   6.851  0.0195  0.0902 -0.0509
  635ODT      C 3173   3.075   3.325   6.503 -0.0092  0.1025 -0.2683
  635ODT      C 3174   2.973   3.376   6.058 -0.0802  0.1643 -0.0235
  635ODT      C 3175   2.779   3.739   6.006  0.2296 -0.2325 -0.0690
  636ODT      C 3176   0.040   5.224   3.276 -0.2093  0.1876  0.1006
  636ODT      D 3177   0.173   5.590   3.280  0.1718 -0.1382  0.0190
  636ODT      C 3178   0.087   5.990   3.514 -0.2672  0.3644 -0.0122
  636ODT      C 3179  -0.120   6.202   3.785 -0.1412 -0.1228 -0.1319
  636ODT      C 3180  -0.278   6.439   4.126 -0.2827 -0.1424 -0.0494
  637ODT      C 3181   6.453   6.876   2.300 -0.2114 -0.0422  0.0449
  637ODT      D 3182   6.104   6.770   2.552  0.2913  0.1083 -0.2474
  637ODT      C 3183   5.680   6.720   2.588  0.0533  0.1295  0.1900
  637ODT      C 3184   5.264   6.630   2.625  0.2649 -0.0767  0.6831
  637ODT      C 3185   5.039   6.297   2.661  0.0252  0.1175  0.3276
  638ODT      C 3186   4.172   2.843   6.335  0.0876  0.2194 -0.2118
  638ODT      D 3187   3.950   3.158   6.029  0.1928 -0.0545 -0.0982
  638ODT      C 3188   3.787   3.575   5.731 -0.3516 -0.0350 -0.0263
  638ODT      C 3189   3.782   3.838   5.351 -0.0533 -0.0279  0.1581
  638ODT      C 3190   3.828   4.185   5.068  0.0498 -0.0306  0.1716
  639ODT      C 3191   6.638   5.897   5.577 -0.0487 -0.3550  0.0552
  639ODT      D 3192   6.542   6.125   5.288  0.0967  0.0681  0.1377
  639ODT      C 3193   6.470   6.597   5.226 -0.3588 -0.0939  0.1681
  639ODT      C 3194   6.262   6.957   5.465 -0.0010 -0.1214 -0.1616
  639ODT      C 3195   6.376   7.110   5.941  0.1588 -0.2324  0.0041
  640ODT      C 3196   5.607   6.174   7.117  0.2377 -0.1609 -0.0246
  640ODT      D 3197   5.940   6.395   6.917 -0.1991 -0.0389  0.0304
  640ODT      C 3198   6.415   6.758   6.913 -0.2434 -0.1088 -0.1557
  640ODT      C 3199   6.672   7.027   6.551  0.2226  0.0829 -0.1378
  640ODT      C 3200   6.729   6.789   6.133 -0.0137 -0.1557 -0.3659
  641ODT      C 3201   0.701   0.308   4.227 -0.0525  0.0167 -0.3155
  641ODT      D 3202   0.707   0.087   4.638 -0.2909  0.1530 -0.3647
  641ODT      C 3203   0.760  -0.089   5.096  0.1637  0.0599  0.2039
  641ODT      C 3204   0.927  -0.504   5.333  0.0594  0.0385 -0.2526
  641ODT      C 3205   0.866  -0.878   5.402  0.0644  0.2382 -0.0986
  642ODT      C 3206   3.133   4.225   0.279 -0.0959 -0.1106 -0.0854
  642ODT      D 3207   3.020   3.847   0.554  0.0796 -0.0438  0.1032
  642ODT      C 3208   2.954   3.393   0.531  0.0411 -0.0163  0.0763
  642ODT      C 3209   2.863   3.048   0.255 -0.0909 -0.0992  0.1664
  642ODT      C 3210   3.120   2.776   0.024  0.0227  0.2051 -0.1886
  643ODT      C 3211   9.144   3.386   6.364 -0.1466  0.0189  0.0039
  643ODT      D 3212   9.541   3.505   6.311  0.1561  0.3094 -0.0221
  643ODT      C 3213   9.934   3.437   6.505  0.2538  0.3382 -0.0170
  643ODT      C 3214  10.310   3.644   6.599 -0.0280  0.1706  0.0019
  643ODT      C 3215  10.687   3.596   6.619  0.1539 -0.2793 -0.4854
  644ODT      C 3216   5.822   2.651   7.092  0.1578 -0.1194  0.2446
  644ODT      D 3217   6.100   2.361   7.186 -0.2035  0.1784 -0.0688
  644ODT      C 3218   6.221   1.952   7.053 -0.2700  0.2100  0.2424
  644ODT      C 3219   6.041   1.828   6.630 -0.0360  0.0222  0.2397
  644ODT      C 3220   6.038   1.325   6.521  0.1765  0.0188  0.1118
  645ODT      C 3221   2.576   1.950   4.828 -0.1432  0.3994 -0.1019
  645ODT      D 3222   3.027   2.060   4.808  0.0692  0.1868  0.0036
  645ODT      C 3223   3.164   2.389   4.726 -0.2615 -0.0798  0.0775
  645ODT      C 3224   3.219   2.863   4.820  0.0150  0.1746 -0.0757
  645ODT      C 3225   3.491   3.162   4.665 -0.1840 -0.1549  0.1639
  646ODT      C 3226   3.534   5.311   6.379  0.0183 -0.1389 -0.1093
  646ODT      D 3227   3.222   5.170   6.462  0.2246 -0.5202  0.2291
  646ODT      C 3228   2.813   5.227   6.257  0.0102 -0.4173  0.0609
  646ODT      C 3229   2.753   5.253   5.792 -0.4126 -0.2860  0.3239
  646ODT      C 3230   2.899   5.103   5.407  0.1756 -0.3475 -0.2775
  647ODT      C 3231   7.539   6.417   6.377  0.1641  0.0205  0.3286
  647ODT      D 3232   7.752   6.564   6.032 -0.0765 -0.1782 -0.0709
  647ODT      C 3233   7.765   6.678   5.618 -0.3892  0.3002 -0.1527
  647ODT      C 3234   7.674   6.968   5.262  0.1050 -0.0200  0.1382
  647ODT      C 3235   7.220   7.078   5.166 -0.2507  0.0720  0.1590
  648ODT      C 3236   5.904   3.444   2.673  0.1511  0.0323 -0.0135
  648ODT      D 3237   5.982   3.114   2.453  0.1291 -0.3104 -0.1935
  648ODT      C 3238   6.036   3.123   2.045 -0.2211  0.1123  0.5755
  648ODT      C 3239   5.945   2.819   1.802 -0.0418  0.1388  0.2936
  648ODT      C 3240   5.949   2.649   1.441 -0.0527  0.0453  0.0752
  649ODT      C 3241   4.788   2.775   6.267 -0.1035  0.1447  0.1568
  649ODT      D 3242   4.563   2.878   5.887 -0.0847 -0.0040 -0.1482
  649ODT      C 3243   4.198   2.947   5.671 -0.0182  0.1395 -0.1114
  649ODT      C 3244   3.793   3.147   5.484 -0.4840 -0.1112 -0.1163
  649ODT      C 3245   3.746   3.394   5.107  0.3160  0.0009 -0.0965
  650ODT      C 3246   6.039   5.246   0.380  0.2150 -0.1789 -0.1369
  650ODT      D 3247   5.894   5.288  -0.052  0.4670  0.0199  0.1588
  650ODT      C 3248   5.976   5.366  -0.476  0.1916 -0.0245  0.3728
  650ODT      C 3249   6.303   5.336  -0.789 -0.3160  0.1052 -0.2149
  650ODT      C 3250   6.661   5.127  -0.905 -0.1554  0.1373  0.0804
  651ODT      C 3251   6.135   4.766   3.410  0.0997  0.1361 -0.0599
  651ODT      D 3252   6.502   4.809   2.981  0.1247 -0.2518  0.1829
  651ODT      C 3253   6.885   4.876   2.662  0.0075 -0.1917  0.0708
  651ODT      C 3254   7.327   4.973   2.520  0.1432  0.0138 -0.0381
  651ODT      C 3255   7.630   5.211   2.241  0.0827 -0.1537  0.0313
  652ODT      C 3256   7.423   0.061   3.631 -0.1947 -0.0782  0.0697
  652ODT      D 3257   7.637  -0.151   3.198 -0.0179 -0.0761 -0.1620
  652ODT      C 3258   7.819  -0.256   2.838 -0.1086 -0.3218  0.1905
  652ODT      C 3259   7.572  -0.180   2.500 -0.0949  0.0987 -0.1924
  652ODT      C 3260   7.287   0.125   2.302 -0.0613  0.3036  0.0883
  653ODT      C 3261   1.470   6.061   4.776 -0.1176 -0.1242 -0.1022
  653ODT      D 3262   1.278   6.017   5.161 -0.1816 -0.0377  0.1237
  653ODT      C 3263   1.201   6.015   5.661  0.1063  0.1029  0.3289
  653ODT      C 3264   1.427   5.913   6.053  0.0187 -0.0721  0.2369
  653ODT      C 3265   1.772   5.831   6.210 -0.1562 -0.0239  0.0076
  654ODT      C 3266   8.543   1.712   4.891 -0.0972 -0.1986 -0.2439
  654ODT      D 3267   9.021   1.713   4.905  0.0146  0.3260  0.0617
  654ODT      C 3268   9.456   1.712   5.111 -0.1784 -0.2244 -0.3979
  654ODT      C 3269   9.926   1.680   4.972 -0.3113 -0.0423 -0.1578
  654ODT      C 3270  10.359   1.531   5.045  0.1328 -0.1765  0.0605
  655ODT      C 3271   1.255   5.274   5.919 -0.0447 -0.1081 -0.0184
  655ODT      D 3272   0.920   5.359   6.247  0.0364 -0.1149 -0.0984
  655ODT      C 3273   0.696   5.601   6.509 -0.0013 -0.0173 -0.1107
  655ODT      C 3274   0.524   5.451   6.890  0.2314 -0.0216 -0.0825
  655ODT      C 3275   0.413   5.167   7.129  0.3551 -0.1174 -0.1647
  656ODT      C 3276   7.678   4.331   3.254 -0.0507  0.0412 -0.2979
  656ODT      D 3277   7.516   4.267   2.815  0.3653  0.1731  0.1912
  656ODT      C 3278   7.507   4.166   2.341 -0.2471 -0.0389 -0.4882
  656ODT      C 3279   7.391   3.844   2.129  0.0916  0.2177  0.2250
  656ODT      C 3280   7.098   3.756   1.770 -0.1405  0.2292  0.4130
  657ODT      C 3281   5.367   2.274   2.461  0.0882  0.1671  0.0465
  657ODT      D 3282   5.171   1.924   2.419 -0.2656 -0.0283  0.1123
  657ODT      C 3283   4.903   1.626   2.430 -0.0403 -0.1013 -0.2106
  657ODT      C 3284   4.791   1.282   2.189  0.0693  0.1122  0.2215
  657ODT      C 3285   4.780   0.949   2.183 -0.2586 -0.0068 -0.1552
  658ODT      C 3286   6.290   6.496   3.510 -0.0110  0.2954 -0.0153
  658ODT      D 3287   5.920   6.495   3.347 -0.0080 -0.0790  0.1289
  658ODT      C 3288   5.726   6.176   3.255 -0.2391 -0.1468 -0.1887
  658ODT      C 3289   5.466   5.767   3.001 -0.1157  0.3054  0.0727
  658ODT      C 3290   5.197   5.565   2.702  0.2511 -0.0271  0.1426
  659ODT      C 3291   2.230   6.115   2.589 -0.0662 -0.1493  0.0329
  659ODT      D 3292   2.602   6.357   2.681 -0.0967 -0.0914 -0.1378
  659ODT      C 3293   2.735   6.706   2.819 -0.0306  0.1795 -0.1234
  659ODT      C 3294   2.886   7.052   2.989  0.0389  0.0675  0.0656
  659ODT      C 3295   2.951   7.156   3.372 -0.0481 -0.0624 -0.0252
  660ODT      C 3296   9.088   6.857   2.326 -0.4911  0.0878 -0.2135
  660ODT      D 3297   8.970   6.635   1.903 -0.1879  0.0901  0.2472
  660ODT      C 3298   8.800   6.488   1.515 -0.2227  0.0639 -0.1003
  660ODT      C 3299   8.858   6.254   1.190  0.2935  0.0777 -0.2173
  660ODT      C 3300   8.703   5.807   1.052  0.0921 -0.1069  0.0262
  661ODT      C 3301   8.737   5.167   4.422  0.4070  0.1300  0.1961
  661ODT      D 3302   9.163   4.982   4.247  0.3715 -0.1632 -0.1838
  661ODT      C 3303   9.534   4.945   3.943 -0.0239  0.1487  0.1404
  661ODT      C 3304   9.298   4.923   3.587 -0.0641  0.0570  0.1342
  661ODT      C 3305   8.839   4.879   3.624  0.2653 -0.1906 -0.1513
  662ODT      C 3306   6.509   1.037   6.091 -0.2195  0.2609  0.0985
  662ODT      D 3307   6.573   1.146   5.749  0.2177  0.0443  0.0777
  662ODT      C 3308   6.832   1.045   5.378 -0.2639 -0.1093 -0.3634
  662ODT      C 3309   7.274   0.907   5.367  0.3133  0.1775 -0.0938
  662ODT      C 3310   7.622   0.740   5.362  0.2855  0.0564  0.5002
  663ODT      C 3311   3.727   6.706   2.674  0.1983  0.6545 -0.0065
  663ODT      D 3312   3.311   6.566   2.750 -0.0071 -0.1184 -0.0059
  663ODT      C 3313   3.088   6.216   2.982  0.1847  0.4314 -0.2695
  663ODT      C 3314   3.033   6.028   3.398  0.1484 -0.1393 -0.1168
  663ODT      C 3315   3.169   6.095   3.826  0.0911  0.0404 -0.1136
  664ODT      C 3316   7.927   6.133   1.125  0.0060 -0.1413  0.1765
  664ODT      D 3317   8.176   5.843   1.006 -0.0864 -0.3622  0.0852
  664ODT      C 3318   8.416   5.341   0.995 -0.1835 -0.0103 -0.0046
  664ODT      C 3319   8.772   4.973   0.840  0.0790 -0.1808  0.3231
  664ODT      C 3320   9.097   5.033   0.458  0.0197 -0.1415  0.1172
  665ODT      C 3321   1.479   1.675   2.488 -0.0807  0.0503 -0.2746
  665ODT      D 3322   1.402   1.928   2.808  0.0527  0.2058  0.1609
  665ODT      C 3323   1.208   2.214   3.041 -0.1541 -0.0175  0.2990
  665ODT      C 3324   0.833   2.420   3.253 -0.0077  0.0559 -0.1956
  665ODT      C 3325   0.387   2.547   3.241  0.0889 -0.1075  0.3134
  666ODT      C 3326   3.633   1.295   3.906  0.1754  0.2382  0.0528
  666ODT      D 3327   3.587   1.281   4.364  0.3155  0.3195  0.2044
  666ODT      C 3328   3.734   1.288   4.720 -0.3068 -0.0399  0.0477
  666ODT      C 3329   3.538   1.169   5.090 -0.0358  0.0919  0.1033
  666ODT      C 3330   3.376   1.232   5.463  0.3351 -0.1989  0.1591
  667ODT      C 3331   8.228   5.572   6.747 -0.0840  0.2408 -0.2169
  667ODT      D 3332   8.362   5.492   6.345 -0.1747 -0.0063 -0.1022
  667ODT      C 3333   8.418   5.248   6.013  0.0363  0.1629 -0.2580
  667ODT      C 3334   8.463   5.221   5.636 -0.2308 -0.0323 -0.1504
  667ODT      C 3335   8.434   5.360   5.209 -0.1594 -0.2818  0.0678
  668ODT      C 3336   0.330   6.863   5.778  0.0126  0.0112  0.1336
  668ODT      D 3337   0.689   7.065   5.577  0.1394 -0.1890  0.0725
  668ODT      C 3338   1.034   7.258   5.573  0.2051  0.3848 -0.1005
  668ODT      C 3339   1.211   7.407   5.261 -0.0639  0.0636 -0.0803
  668ODT      C 3340   1.545   7.540   4.936 -0.1856  0.0637  0.0025
  669ODT      C 3341   4.549   2.501   4.008 -0.1374 -0.1160  0.0824
  669ODT      D 3342   4.633   2.804   4.288 -0.1313 -0.1705  0.2337
  669ODT      C 3343   4.572   3.070   4.697 -0.0900  0.3206 -0.1060
  669ODT      C 3344   4.256   3.312   4.810  0.0921  0.1154  0.0619
  669ODT      C 3345   3.939   3.424   4.631 -0.0358 -0.2358 -0.0830
  670ODT      C 3346   4.228   3.740   3.917 -0.2233  0.1233 -0.0487
  670ODT      D 3347   4.275   3.505   3.478 -0.0425 -0.0092 -0.4923
  670ODT      C 3348   4.218   3.075   3.374 -0.0377  0.0948  0.2318
  670ODT      C 3349   4.374   2.700   3.126  0.0362  0.0744 -0.2823
  670ODT      C 3350   4.375   2.557   2.655  0.3587  0.1496 -0.0997
  671ODT      C 3351   7.317   3.002   2.240  0.0969 -0.1574 -0.0876
  671ODT      D 3352   7.317   3.250   1.841  0.1183  0.1051  0.0354
  671ODT      C 3353   7.332   3.361   1.505 -0.3717 -0.1616 -0.2529
  671ODT      C 3354   7.410   3.797   1.384  0.1401 -0.2673 -0.1740
  671ODT      C 3355   7.716   4.165   1.289  0.1398 -0.3102  0.1813
  672ODT      C 3356   5.937   3.706   0.157 -0.1136 -0.0325  0.0160
  672ODT      D 3357   5.720   3.865  -0.149 -0.0385  0.4193  0.1950
  672ODT      C 3358   5.699   4.179  -0.516 -0.3844 -0.1934  0.1923
  672ODT      C 3359   5.593   4.598  -0.760 -0.2140  0.4097 -0.2513
  672ODT      C 3360   5.275   4.690  -1.155  0.0199 -0.0262  0.0443
  673ODT      C 3361   1.715   2.119   1.991 -0.1731  0.0489 -0.3830
  673ODT      D 3362   1.960   2.543   1.914 -0.0528  0.1261  0.2130
  673ODT      C 3363   2.202   2.684   1.692  0.2008 -0.5052  0.0661
  673ODT      C 3364   2.428   2.516   1.347 -0.0186 -0.1245 -0.2011
  673ODT      C 3365   2.695   2.689   1.053 -0.1142 -0.2914  0.2814
  674ODT      C 3366   8.860   2.398   2.732  0.1714 -0.0428  0.1433
  674ODT      D 3367   8.828   2.006   2.578  0.1490 -0.0929  0.0920
  674ODT      C 3368   8.995   1.537   2.476 -0.2591  0.0594 -0.1642
  674ODT      C 3369   9.101   1.310   2.192  0.0706  0.0233 -0.2741
  674ODT      C 3370   9.495   1.033   2.131  0.2284  0.1696 -0.0394
  675ODT      C 3371   3.748   6.131   4.947 -0.0303  0.0878  0.0052
  675ODT      D 3372   4.017   5.916   5.152  0.1833 -0.0229  0.2136
  675ODT      C 3373   4.129   5.721   5.472  0.0052  0.1542 -0.0144
  675ODT      C 3374   4.198   5.435   5.737 -0.2116 -0.2417 -0.0074
  675ODT      C 3375   4.085   5.480   6.147  0.0011  0.0655 -0.1411
  676ODT      C 3376   3.769   0.814   3.500  0.0989 -0.0875 -0.0036
  676ODT      D 3377   3.789   0.671   3.983 -0.2428 -0.0655  0.1406
  676ODT      C 3378   3.827   0.796   4.375  0.0789  0.0640 -0.2584
  676ODT      C 3379   3.918   0.803   4.754  0.0134 -0.0750 -0.0621
  676ODT      C 3380   4.213   0.785   5.051 -0.1900 -0.0509  0.1655
  677ODT      C 3381   7.911   5.632   6.242  0.1755 -0.1504 -0.0970
  677ODT      D 3382   8.280   5.770   5.968 -0.1017 -0.1852 -0.2361
  677ODT      C 3383   8.789   5.641   5.824  0.1489 -0.0175 -0.1299
  677ODT      C 3384   9.274   5.597   5.619 -0.0801  0.0117  0.0175
  677ODT      C 3385   9.647   5.603   5.788  0.2807 -0.0499  0.0333
  678ODT      C 3386   4.077   5.150   2.925 -0.1398  0.0813  0.0579
  678ODT      D 3387   4.105   5.028   3.375  0.1022 -0.1460 -0.0423
  678ODT      C 3388   4.492   5.022   3.615 -0.0160  0.1406  0.0072
  678ODT      C 3389   4.908   5.201   3.594  0.0577 -0.1442 -0.1603
  678ODT      C 3390   5.294   5.357   3.678  0.0080  0.0551 -0.2723
  679ODT      C 3391   8.115   0.176   4.526  0.0436  0.0896  0.3140
  679ODT      D 3392   8.337  -0.180   4.369 -0.1068 -0.0157 -0.1373
  679ODT      C 3393   8.587  -0.419   4.718  0.0348 -0.0222 -0.2434
  679ODT      C 3394   8.632  -0.496   5.145 -0.0525 -0.3396 -0.1770
  679ODT      C 3395   8.341  -0.670   5.427 -0.2101  0.4206  0.0235
  680ODT      C 3396   0.549   0.863   3.729 -0.0419 -0.0885  0.1981
  680ODT      D 3397   0.480   0.449   3.831 -0.2171  0.2137 -0.0901
  680ODT      C 3398   0.362   0.046   3.927  0.2616 -0.1815 -0.1838
  680ODT      C 3399   0.652  -0.231   4.241  0.2531 -0.1200  0.2311
  680ODT      C 3400   0.917  -0.330   4.569 -0.1397  0.2684  0.0317
  681ODT      C 3401   3.355   0.214   1.277  0.2916 -0.4198 -0.0481
  681ODT      D 3402   3.004   0.190   1.575  0.0403 -0.0144  0.1259
  681ODT      C 3403   2.641   0.145   1.728  0.0405 -0.1046  0.1154
  681ODT      C 3404   2.286   0.254   1.973  0.2217 -0.1310 -0.0167
  681ODT      C 3405   1.961   0.566   1.898 -0.1772 -0.0758 -0.1780
  682ODT      C 3406   6.490   1.517   0.880  0.2694  0.2964  0.2318
  682ODT      D 3407   6.420   1.153   0.812 -0.0914 -0.0536  0.0781
  682ODT      C 3408   6.373   0.758   0.976  0.0782 -0.1770 -0.0008
  682ODT      C 3409   6.137   0.506   1.220  0.1602  0.0879 -0.0247
  682ODT      C 3410   5.977   0.225   1.617  0.2250  0.1634 -0.1075
  683ODT      C 3411   8.598   4.040   1.279  0.1484  0.2173 -0.3823
  683ODT      D 3412   8.323   4.364   1.251  0.1323  0.4249  0.0217
  683ODT      C 3413   8.114   4.658   1.133 -0.1650 -0.2054  0.2060
  683ODT      C 3414   7.970   5.093   1.306 -0.2401 -0.2243  0.3783
  683ODT      C 3415   8.132   5.478   1.420 -0.0496 -0.0086  0.1978
  684ODT      C 3416   9.375   0.403   0.364 -0.1049  0.0712  0.1879
  684ODT      D 3417   9.150   0.415   0.766  0.0285  0.1529 -0.0856
  684ODT      C 3418   9.207   0.263   1.148  0.0175  0.0113 -0.3117
  684ODT      C 3419   9.308   0.274   1.479  0.1531  0.1049  0.1609
  684ODT      C 3420   9.644  -0.053   1.596  0.2223 -0.1330  0.1870
  685ODT      C 3421   2.840   7.073   1.219 -0.3038 -0.2616 -0.2504
  685ODT      D 3422   2.522   7.436   1.213 -0.3222  0.0466  0.0144
  685ODT      C 3423   2.211   7.673   1.270  0.2281  0.2712 -0.1466
  685ODT      C 3424   1.696   7.769   1.432  0.1332  0.0082  0.0139
  685ODT      C 3425   1.455   8.167   1.445  0.1106 -0.1240 -0.0331
  686ODT      C 3426   0.691   0.497   0.990  0.0861 -0.2784  0.3136
  686ODT      D 3427   0.719   0.863   1.310  0.1477 -0.1904  0.0656
  686ODT      C 3428   0.583   1.195   1.527  0.0010  0.0112  0.0598
  686ODT      C 3429   0.595   1.586   1.738 -0.0399  0.1769 -0.2141
  686ODT      C 3430   0.771   1.980   1.891 -0.2157 -0.0403 -0.3351
  687ODT      C 3431   8.528   0.117   3.986 -0.0679 -0.0081  0.0736
  687ODT      D 3432   8.075   0.063   4.050 -0.1992 -0.0414  0.2758
  687ODT      C 3433   7.786  -0.138   4.385  0.2086  0.4125 -0.0951
  687ODT      C 3434   8.076  -0.338   4.740 -0.0252  0.2027 -0.1747
  687ODT      C 3435   8.106  -0.388   5.058 -0.0109 -0.2626  0.2965
  688ODT      C 3436   2.335   5.168   4.358  0.3825 -0.0746 -0.1782
  688ODT      D 3437   2.196   5.553   4.685 -0.3881  0.2238  0.1490
  688ODT      C 3438   1.980   5.979   4.572  0.0862 -0.1074  0.0363
  688ODT      C 3439   1.805   6.422   4.546 -0.0573 -0.1540 -0.2412
  688ODT      C 3440   1.551   6.772   4.608  0.3347 -0.2400  0.1970
  689ODT      C 3441   3.390   1.280   6.427  0.2024 -0.0201  0.1156
  689ODT      D 3442   3.096   1.648   6.321 -0.0462 -0.0875  0.3605
  689ODT      C 3443   2.736   1.925   6.409  0.0120  0.1874  0.1623
  689ODT      C 3444   2.599   2.202   6.650  0.0104 -0.2072  0.0222
  689ODT      C 3445   2.594   2.605   6.909  0.2063 -0.0141  0.1091
  690ODT      C 3446   7.754   5.416   5.289  0.0918 -0.2260 -0.3963
  690ODT      D 3447   8.062   5.591   5.073  0.1976 -0.0290 -0.2823
  690ODT      C 3448   8.289   5.424   4.748 -0.0926 -0.2451 -0.2266
  690ODT      C 3449   8.117   5.161   4.491  0.2437 -0.1030 -0.0593
  690ODT      C 3450   8.116   5.011   4.110 -0.0244  0.0794 -0.0095
  691ODT      C 3451   1.636   0.040   0.933 -0.1031  0.0787  0.0798
  691ODT      D 3452   2.030  -0.030   1.065 -0.3552 -0.1295  0.0617
  691ODT      C 3453   2.393  -0.199   0.986 -0.1157  0.2776 -0.0635
  691ODT      C 3454   2.520  -0.603   1.105 -0.0080 -0.3226  0.0298
  691ODT      C 3455   2.741  -0.922   0.881 -0.1640  0.3204 -0.2172
  692ODT      C 3456   0.428   3.020   3.030 -0.1931  0.0884  0.1215
  692ODT      D 3457   0.033   2.979   2.958  0.0228 -0.0378  0.4230
  692ODT      C 3458  -0.384   3.134   3.088  0.2529  0.1267  0.3626
  692ODT      C 3459  -0.432   3.441   3.346 -0.1543  0.0763 -0.1122
  692ODT      C 3460  -0.528   3.779   3.580  0.0845 -0.0888 -0.0800
  693ODT      C 3461   8.925   5.711   5.277 -0.0184 -0.3597 -0.2879
  693ODT      D 3462   9.069   6.047   5.597 -0.1517  0.0706  0.0326
  693ODT      C 3463   9.070   6.262   6.015 -0.1382  0.1039 -0.0222
  693ODT      C 3464   9.154   6.573   6.293 -0.1951 -0.2691 -0.0356
  693ODT      C 3465   9.018   6.894   6.590 -0.1675  0.1301 -0.1547
  694ODT      C 3466   3.804   3.873   3.504  0.2586 -0.3547  0.1315
  694ODT      D 3467   3.650   4.252   3.485 -0.0618  0.0727  0.1280
  694ODT      C 3468   3.346   4.603   3.284 -0.2228  0.2911  0.0911
  694ODT      C 3469   3.077   4.779   3.022  0.1536  0.1186  0.0491
  694ODT      C 3470   2.830   4.977   2.928  0.1409  0.1341  0.1890
  695ODT      C 3471   7.586   2.456   6.559 -0.0516 -0.1151  0.2137
  695ODT      D 3472   7.647   2.673   6.147  0.0187  0.2559  0.3237
  695ODT      C 3473   7.529   3.057   5.931 -0.2748  0.2272  0.0384
  695ODT      C 3474   7.740   3.261   6.149 -0.1835 -0.0453  0.0651
  695ODT      C 3475   7.869   3.660   6.154 -0.1879  0.1441 -0.1085
  696ODT      C 3476   3.950   6.749   6.928  0.0467 -0.1095 -0.4020
  696ODT      D 3477   4.351   6.798   7.055  0.0473  0.2829 -0.1954
  696ODT      C 3478   4.593   7.095   7.249  0.1487 -0.0442  0.0282
  696ODT      C 3479   4.604   7.399   7.450  0.2060 -0.0797  0.1222
  696ODT      C 3480   4.719   7.728   7.447  0.2365  0.1344 -0.0562
  697ODT      C 3481   7.157   5.995   2.641  0.1029 -0.0323  0.0953
  697ODT      D 3482   6.881   6.047   2.979 -0.1157 -0.1803  0.3041
  697ODT      C 3483   6.752   6.250   3.337  0.0126 -0.0986 -0.4145
  697ODT      C 3484   6.959   6.571   3.520 -0.0429 -0.0110 -0.4510
  697ODT      C 3485   7.290   6.775   3.446 -0.0758 -0.1419 -0.0551
  698ODT      C 3486   7.724   2.675   4.673 -0.2027  0.0901  0.1419
  698ODT      D 3487   8.005   2.841   4.747 -0.0666 -0.0348 -0.0241
  698ODT      C 3488   8.375   3.096   4.564  0.2143  0.1892  0.2630
  698ODT      C 3489   8.449   3.488   4.292 -0.2796 -0.1032  0.1939
  698ODT      C 3490   8.453   3.737   3.841 -0.2762 -0.3370 -0.4107
  699ODT      C 3491   7.448   5.562   0.513 -0.0892  0.0535 -0.0349
  699ODT      D 3492   7.383   5.810   0.824  0.0500  0.0510 -0.0516
  699ODT      C 3493   7.358   6.030   1.125 -0.2065  0.1105  0.0843
  699ODT      C 3494   7.178   6.074   1.562  0.0019 -0.1649  0.0646
  699ODT      C 3495   6.857   5.875   1.775  0.1078  0.0731 -0.0563
  700ODT      C 3496   3.402   0.800   3.172  0.2135 -0.0587  0.2642
  700ODT      D 3497   3.349   1.144   3.549  0.1479 -0.0132 -0.0534
  700ODT      C 3498   3.129   1.338   3.791 -0.2889 -0.2612  0.2854
  700ODT      C 3499   3.043   1.675   4.175  0.0326  0.0086  0.1641
  700ODT      C 3500   3.215   2.085   4.306  0.0949  0.0158  0.0203
  701ODT      C 3501   6.266   4.333   2.771  0.0982  0.1046  0.0278
  701ODT      D 3502   6.055   4.274   3.118  0.3798 -0.0782  0.0833
  701ODT      C 3503   5.786   4.388   3.504 -0.0250 -0.1425 -0.1651
  701ODT      C 3504   5.915   4.494   3.949 -0.0998  0.0805 -0.0689
  701ODT      C 3505   5.925   4.652   4.318 -0.1592  0.0159  0.1394
  702ODT      C 3506   7.364   1.822   4.373  0.0499 -0.0023  0.3937
  702ODT      D 3507   7.620   1.825   3.824 -0.0372  0.1908 -0.3272
  702ODT      C 3508   7.991   1.646   3.613  0.1680  0.2499 -0.1149
  702ODT      C 3509   8.236   1.226   3.579 -0.0365  0.0374 -0.0562
  702ODT      C 3510   8.631   1.075   3.844  0.0638 -0.0539  0.2852
  703ODT      C 3511   6.592   1.866   6.652 -0.4934  0.2140 -0.0612
  703ODT      D 3512   6.419   2.343   6.643  0.3757 -0.2064  0.0956
  703ODT      C 3513   6.573   2.811   6.503  0.0896  0.0130  0.0868
  703ODT      C 3514   6.827   3.180   6.458  0.0019 -0.3354 -0.1896
  703ODT      C 3515   7.210   3.243   6.354 -0.5260 -0.0363 -0.0263
  704ODT      C 3516   7.271   5.522   1.779 -0.0760 -0.0367 -0.1332
  704ODT      D 3517   7.726   5.413   1.748  0.2460  0.0087  0.2227
  704ODT      C 3518   7.966   5.190   1.818  0.0579 -0.4498  0.2699
  704ODT      C 3519   8.283   4.903   1.830  0.0270 -0.0079 -0.3009
  704ODT      C 3520   8.341   4.468   1.903  0.2009  0.2329 -0.0024
  705ODT      C 3521   2.647   0.801   6.188 -0.1779 -0.0207 -0.2155
  705ODT      D 3522   2.434   0.918   6.536  0.0457 -0.0047 -0.1533
  705ODT      C 3523   2.183   1.214   6.604 -0.0126 -0.0832 -0.3598
  705ODT      C 3524   2.119   1.573   6.788  0.1700  0.1137  0.0906
  705ODT      C 3525   2.071   1.948   6.678 -0.2230 -0.1434 -0.2488
  706ODT      C 3526   8.594   1.446   5.358 -0.3898 -0.1632  0.3229
  706ODT      D 3527   8.482   1.607   5.757 -0.1627 -0.0534 -0.1908
  706ODT      C 3528   8.659   1.782   6.168 -0.1898 -0.0201 -0.1112
  706ODT      C 3529   8.919   2.137   6.243 -0.0185  0.1013 -0.1229
  706ODT      C 3530   8.730   2.491   6.229  0.4055  0.2587 -0.0466
  707ODT      C 3531   0.516   1.333   4.105 -0.3193  0.0406 -0.0926
  707ODT      D 3532   0.450   1.728   3.901 -0.3563  0.0968  0.0307
  707ODT      C 3533   0.171   2.133   3.676  0.1477  0.1268 -0.0309
  707ODT      C 3534   0.049   2.605   3.642 -0.5196  0.2658 -0.0766
  707ODT      C 3535  -0.239   2.830   3.418  0.1092  0.0049  0.0384
  708ODT      C 3536   1.107   1.801   1.600 -0.0651  0.0464 -0.0222
  708ODT      D 3537   1.050   1.436   1.338 -0.0990  0.0684 -0.4184
  708ODT      C 3538   0.909   1.270   1.043 -0.1894 -0.1309 -0.2185
  708ODT      C 3539   0.918   1.083   0.597 -0.0004  0.0061 -0.1589
  708ODT      C 3540   1.206   1.176   0.302 -0.2038  0.1739 -0.1997
  709ODT      C 3541   0.333   1.869   6.404  0.1750  0.0528 -0.0606
  709ODT      D 3542   0.576   2.227   6.317  0.2352 -0.1782  0.0097
  709ODT      C 3543   0.851   2.485   6.114  0.0490  0.3232 -0.2518
  709ODT      C 3544   0.802   2.850   5.961 -0.0907  0.1227  0.2959
  709ODT      C 3545   0.893   3.279   6.164  0.0961 -0.2405 -0.1743
  710ODT      C 3546   8.168   5.307   3.117  0.4019 -0.0531 -0.2495
  710ODT      D 3547   8.350   5.150   2.813 -0.0384  0.1570 -0.0484
  710ODT      C 3548   8.408   5.069   2.389 -0.2473 -0.0130 -0.1846
  710ODT      C 3549   8.751   4.688   2.259  0.1342  0.2160  0.1525
  710ODT      C 3550   8.925   4.256   2.238  0.0696 -0.1049  0.0329
  711ODT      C 3551   7.221   0.708   0.689  0.1615 -0.0816  0.0476
  711ODT      D 3552   7.259   0.620   1.136  0.0971  0.2953  0.3044
  711ODT      C 3553   7.257   0.513   1.588 -0.2462  0.0926  0.0440
  711ODT      C 3554   7.401   0.563   2.044  0.0499  0.1089 -0.0151
  711ODT      C 3555   7.724   0.321   2.294 -0.1193  0.0564  0.0051
  712ODT      C 3556   1.276   5.762   7.125  0.0165 -0.4001  0.2693
  712ODT      D 3557   1.417   5.507   7.502 -0.0293 -0.0318 -0.1971
  712ODT      C 3558   1.568   5.445   7.829  0.0188  0.0144 -0.1518
  712ODT      C 3559   1.606   5.334   8.274 -0.2259 -0.1387  0.0277
  712ODT      C 3560   1.723   5.421   8.707 -0.2875 -0.0974 -0.0869
  713ODT      C 3561   3.804   6.339   1.808  0.0882  0.1746 -0.1914
  713ODT      D 3562   3.915   6.168   1.418 -0.3096  0.1878  0.1907
  713ODT      C 3563   4.029   5.994   1.069 -0.0308 -0.3009 -0.3589
  713ODT      C 3564   3.837   5.790   0.848 -0.2688 -0.3821  0.1571
  713ODT      C 3565   3.644   5.419   0.738  0.0350 -0.1337 -0.2167
  714ODT      C 3566   6.570   2.291   4.863  0.0733 -0.0077 -0.1594
  714ODT      D 3567   6.742   2.288   4.462  0.1679  0.2212 -0.1826
  714ODT      C 3568   7.058   2.290   4.186  0.0372 -0.4531  0.0851
  714ODT      C 3569   7.291   2.599   3.976 -0.0073  0.0798  0.1121
  714ODT      C 3570   7.479   2.884   3.976 -0.4186 -0.5033 -0.0067
  715ODT      C 3571   2.260   4.876   0.747 -0.1378  0.0283 -0.1506
  715ODT      D 3572   2.108   5.109   0.998 -0.2615  0.0478 -0.0837
  715ODT      C 3573   2.187   5.210   1.392 -0.2552 -0.0183 -0.1642
  715ODT      C 3574   2.482   5.202   1.605 -0.0981  0.0453  0.2342
  715ODT      C 3575   2.769   5.103   1.957 -0.0020  0.1169 -0.0117
  716ODT      C 3576   2.966   1.003   1.979 -0.1627  0.1198  0.2513
  716ODT      D 3577   2.975   1.408   2.089  0.1596  0.0568 -0.2652
  716ODT      C 3578   2.938   1.905   2.284 -0.1247 -0.1571  0.2229
  716ODT      C 3579   3.160   2.073   2.457  0.1765 -0.1601 -0.0025
  716ODT      C 3580   3.364   2.509   2.370  0.0773 -0.0016  0.0168
  717ODT      C 3581   4.039   0.594   1.807  0.0207 -0.0789 -0.1561
  717ODT      D 3582   3.970   1.094   1.852 -0.2712  0.2050  0.3374
  717ODT      C 3583   4.028   1.538   1.979  0.0465  0.0286  0.3660
  717ODT      C 3584   3.865   1.692   2.351  0.1546  0.1913  0.0932
  717ODT      C 3585   3.744   2.164   2.450  0.0055 -0.3435 -0.1700
  718ODT      C 3586   8.176   0.552   0.468  0.1057  0.0083  0.0752
  718ODT      D 3587   7.882   0.186   0.347 -0.1030  0.0259 -0.2769
  718ODT      C 3588   7.431   0.105   0.522  0.2326  0.1706  0.1392
  718ODT      C 3589   7.197   0.110   0.930  0.0193 -0.0940 -0.0527
  718ODT      C 3590   6.961   0.154   1.402  0.1810  0.0902 -0.0838
  719ODT      C 3591   1.092   4.249   0.849  0.1767  0.0063 -0.1260
  719ODT      D 3592   1.199   4.535   0.498 -0.0934 -0.0844 -0.2280
  719ODT      C 3593   1.325   4.973   0.279  0.0171  0.3732 -0.2988
  719ODT      C 3594   1.169   5.258  -0.045 -0.1538  0.2264 -0.2126
  719ODT      C 3595   1.163   5.499  -0.557  0.3826 -0.3994 -0.1126
  720ODT      C 3596   6.153   0.883   0.422  0.0378  0.0370 -0.3108
  720ODT      D 3597   6.261   1.293   0.331 -0.1722  0.2459  0.2959
  720ODT      C 3598   6.354   1.667   0.412 -0.3039 -0.1425  0.2090
  720ODT      C 3599   6.058   2.044   0.404 -0.4009 -0.2197 -0.0096
  720ODT      C 3600   5.666   2.131   0.079  0.2547  0.3466  0.1504
  721ODT      C 3601   8.086   3.258   6.858  0.0463 -0.1028 -0.0852
  721ODT      D 3602   8.024   3.153   7.273  0.3670 -0.4785  0.0223
  721ODT      C 3603   7.978   2.970   7.733 -0.1465 -0.2334  0.0075
  721ODT      C 3604   7.704   2.737   7.976  0.2872 -0.1576 -0.0983
  721ODT      C 3605   7.643   2.340   7.977  0.1412  0.0947  0.2376
  722ODT      C 3606   6.831   3.759   5.599  0.2874  0.2876 -0.1760
  722ODT      D 3607   6.563   3.826   5.319  0.0101  0.1158  0.1600
  722ODT      C 3608   6.245   3.480   4.947  0.0198  0.0503  0.1729
  722ODT      C 3609   5.907   3.260   4.793 -0.1370  0.0726  0.0919
  722ODT      C 3610   5.543   3.127   4.603 -0.1522 -0.0223 -0.1346
  723ODT      C 3611   7.457   1.827   2.901  0.0248  0.1476  0.2232
  723ODT      D 3612   7.318   1.749   2.479 -0.1042  0.2499  0.1163
  723ODT      C 3613   7.602   1.615   2.151  0.0787 -0.3872  0.0533
  723ODT      C 3614   7.656   1.623   1.684 -0.0321  0.0564  0.1097
  723ODT      C 3615   7.887   1.600   1.348  0.2217 -0.0956 -0.2011
  724ODT      C 3616   3.977   1.340   3.451  0.0622 -0.1251  0.0794
  724ODT      D 3617   3.652   1.276   3.190  0.2742 -0.1451 -0.3106
  724ODT      C 3618   3.461   1.154   2.792  0.1203  0.0849  0.3073
  724ODT      C 3619   3.296   0.969   2.414  0.1554  0.2020 -0.0832
  724ODT      C 3620   3.431   0.923   1.906 -0.1276 -0.0290  0.1291
  725ODT      C 3621   9.188   1.510   3.258 -0.2163  0.0445  0.1271
  725ODT      D 3622   9.423   1.348   2.938 -0.1132 -0.2313  0.1876
  725ODT      C 3623   9.771   1.026   2.646 -0.4668 -0.1552  0.3044
  725ODT      C 3624  10.085   0.881   2.477 -0.1135 -0.3302  0.2618
  725ODT      C 3625  10.507   0.888   2.413  0.0360  0.1322 -0.0054
  726ODT      C 3626   8.612   1.264   1.101  0.1992 -0.2064  0.1682
  726ODT      D 3627   8.376   1.433   1.494 -0.0306  0.1230  0.3094
  726ODT      C 3628   8.236   1.801   1.642 -0.0200  0.2828  0.0588
  726ODT      C 3629   8.414   2.265   1.612  0.3070  0.1781  0.0113
  726ODT      C 3630   8.382   2.392   1.912 -0.0344  0.1257 -0.0328
  727ODT      C 3631   5.605   1.899   6.387  0.0967 -0.1701  0.0997
  727ODT      D 3632   5.619   2.303   6.246  0.3124 -0.2426  0.0698
  727ODT      C 3633   5.745   2.520   6.062  0.4174  0.3007  0.1633
  727ODT      C 3634   5.521   2.768   5.704 -0.4391 -0.2278 -0.6728
  727ODT      C 3635   5.608   2.570   5.307 -0.0405 -0.3855  0.1361
  728ODT      C 3636   7.464   2.639   0.336  0.0922  0.0907 -0.4217
  728ODT      D 3637   7.872   2.551   0.379  0.1636 -0.0550 -0.1377
  728ODT      C 3638   8.339   2.508   0.413  0.0034 -0.2989  0.3135
  728ODT      C 3639   8.753   2.592   0.577 -0.0289  0.3974 -0.1428
  728ODT      C 3640   9.121   2.579   0.714  0.2773 -0.0450  0.0136
  729ODT      C 3641   6.540   0.302   6.625 -0.0141 -0.1833 -0.1642
  729ODT      D 3642   6.300   0.044   6.883 -0.0740 -0.1430 -0.0638
  729ODT      C 3643   5.967   0.117   7.189 -0.0561  0.1052 -0.0130
  729ODT      C 3644   5.592  -0.115   7.356  0.0989 -0.3431  0.0462
  729ODT      C 3645   5.444  -0.497   7.512 -0.0606 -0.0316 -0.0996
  730ODT      C 3646   7.142   3.917   3.242 -0.0997 -0.1429 -0.1373
  730ODT      D 3647   7.104   3.950   2.836  0.2979  0.0925  0.0313
  730ODT      C 3648   7.016   4.000   2.436 -0.3386 -0.2092 -0.2109
  730ODT      C 3649   6.987   4.209   2.009 -0.1383 -0.2271 -0.0984
  730ODT      C 3650   6.901   4.618   1.824 -0.1341 -0.0488  0.0284
  731ODT      C 3651   1.541   6.413   5.113  0.2300  0.2197 -0.0868
  731ODT      D 3652   1.428   6.438   5.520  0.0821 -0.0669  0.2380
  731ODT      C 3653   1.115   6.480   5.916 -0.0962 -0.0325 -0.1670
  731ODT      C 3654   0.786   6.762   5.972  0.0564 -0.0716  0.3310
  731ODT      C 3655   0.666   7.024   6.236  0.0194 -0.1433  0.0026
  732ODT      C 3656   4.045   7.023   0.139  0.0049  0.0408  0.1224
  732ODT      D 3657   4.329   6.987   0.436  0.1795  0.1655 -0.2238
  732ODT      C 3658   4.752   6.804   0.585  0.1684  0.1056 -0.2602
  732ODT      C 3659   4.979   6.462   0.535 -0.1933 -0.3969  0.0238
  732ODT      C 3660   4.986   6.122   0.662  0.1885  0.0543 -0.2501
  733ODT      C 3661   8.558   3.226   2.303  0.3914  0.1596 -0.3844
  733ODT      D 3662   8.754   3.490   2.395  0.1203 -0.2559 -0.0617
  733ODT      C 3663   8.991   3.774   2.144 -0.1686 -0.0189  0.1015
  733ODT      C 3664   9.233   4.158   1.791 -0.1627  0.1453  0.1731
  733ODT      C 3665   9.391   4.459   1.556 -0.1450 -0.2772 -0.1928
  734ODT      C 3666   0.562   3.136   1.991 -0.0075 -0.2274 -0.3748
  734ODT      D 3667   0.493   3.050   1.556  0.0318 -0.0193  0.0730
  734ODT      C 3668   0.556   2.878   1.340 -0.1318 -0.1131  0.0483
  734ODT      C 3669   0.559   2.421   1.078  0.1862 -0.4926  0.0195
  734ODT      C 3670   0.626   2.264   0.659  0.0049 -0.2397  0.1554
  735ODT      C 3671   1.534   5.879   0.883  0.1975 -0.1353  0.2234
  735ODT      D 3672   1.904   5.793   0.965 -0.3075  0.0963 -0.0868
  735ODT      C 3673   2.283   5.601   1.036  0.0263  0.0193  0.0279
  735ODT      C 3674   2.617   5.775   0.734  0.1024 -0.0917  0.0123
  735ODT      C 3675   2.942   5.888   0.632 -0.2903 -0.0602  0.1046
  736ODT      C 3676   8.626   0.193   6.932  0.1247 -0.0838  0.0874
  736ODT      D 3677   8.321   0.192   7.283 -0.0229  0.2392  0.0260
  736ODT      C 3678   8.153  -0.258   7.423  0.1200 -0.1297 -0.1142
  736ODT      C 3679   7.790  -0.336   7.656  0.1137  0.2177  0.0620
  736ODT      C 3680   7.284  -0.443   7.850 -0.1590  0.4570  0.0568
  737ODT      C 3681   2.669   0.538   2.088 -0.1056 -0.2009  0.1766
  737ODT      D 3682   2.807   0.674   2.428  0.1569  0.0213 -0.0741
  737ODT      C 3683   3.031   0.748   2.825  0.0300  0.1304  0.2604
  737ODT      C 3684   3.041   1.200   3.063  0.0097  0.3072  0.3180
  737ODT      C 3685   3.017   1.482   3.309 -0.1465 -0.1309 -0.0403
  738ODT      C 3686   6.463   5.785   2.769  0.0823  0.1141  0.1593
  738ODT      D 3687   6.746   5.935   2.365  0.1891  0.3843 -0.0858
  738ODT      C 3688   7.096   6.199   2.188 -0.0085 -0.0579 -0.4139
  738ODT      C 3689   7.538   6.064   2.034  0.2693  0.1161  0.2224
  738ODT      C 3690   7.818   5.777   2.053 -0.3767  0.1684  0.0635
  739ODT      C 3691   8.765   5.361   1.306  0.0709 -0.0243  0.0126
  739ODT      D 3692   8.551   5.326   1.632 -0.0988 -0.0119  0.1592
  739ODT      C 3693   8.283   5.485   1.975  0.2611  0.1516 -0.1687
  739ODT      C 3694   8.214   5.975   2.237 -0.0704 -0.0757  0.0370
  739ODT      C 3695   7.968   5.950   2.531 -0.2252 -0.1782  0.2100
  740ODT      C 3696   5.361   4.917   4.374 -0.2660  0.0891  0.1246
  740ODT      D 3697   5.525   4.804   4.724  0.0121 -0.2103 -0.0561
  740ODT      C 3698   5.399   4.601   5.114 -0.0830 -0.0710 -0.3891
  740ODT      C 3699   5.319   4.783   5.521  0.0600 -0.1588 -0.0245
  740ODT      C 3700   5.226   5.119   5.792 -0.2844  0.1224  0.2241
  741ODT      C 3701   4.920   1.806   6.781  0.0337  0.1988 -0.0978
  741ODT      D 3702   5.228   1.560   6.718 -0.3608  0.1568 -0.2840
  741ODT      C 3703   5.580   1.324   6.712 -0.1127  0.0282  0.0338
  741ODT      C 3704   5.772   0.890   6.623 -0.0396  0.1577  0.0411
  741ODT      C 3705   5.928   0.481   6.809  0.0704 -0.0916  0.0689
  742ODT      C 3706   8.684   4.586   4.221  0.0294 -0.0304  0.1093
  742ODT      D 3707   8.435   4.239   4.299  0.2217 -0.0368 -0.0926
  742ODT      C 3708   8.057   3.867   4.227 -0.0896  0.0138 -0.0646
  742ODT      C 3709   7.876   3.674   3.738 -0.2285 -0.1309  0.2148
  742ODT      C 3710   8.038   3.416   3.401 -0.1000  0.1099  0.0330
  743ODT      C 3711   1.898   5.657   7.098  0.2851  0.1030 -0.1339
  743ODT      D 3712   2.176   5.366   7.034 -0.0590  0.4388 -0.4793
  743ODT      C 3713   2.025   4.907   7.062  0.0141  0.1322  0.1957
  743ODT      C 3714   2.175   4.483   6.847 -0.1245 -0.5265  0.2963
  743ODT      C 3715   2.101   4.495   6.428  0.1129 -0.2582  0.4065
  744ODT      C 3716   6.099   1.799   2.006 -0.1121  0.1266  0.0789
  744ODT      D 3717   5.644   2.020   2.080  0.0468 -0.1004  0.1786
  744ODT      C 3718   5.311   2.034   1.925  0.1644  0.0849  0.0030
  744ODT      C 3719   4.904   1.897   1.970 -0.0869  0.0174 -0.1258
  744ODT      C 3720   4.525   1.560   1.827 -0.2141 -0.2131  0.3354
  745ODT      C 3721   7.368   4.790   6.054 -0.2225  0.0722 -0.0659
  745ODT      D 3722   7.723   4.854   5.984 -0.1982  0.3521  0.0430
  745ODT      C 3723   7.947   5.213   5.896  0.0482  0.0505  0.1690
  745ODT      C 3724   8.030   5.487   5.670  0.0602 -0.0795 -0.2006
  745ODT      C 3725   8.364   5.747   5.481 -0.2212  0.1577 -0.0867
  746ODT      C 3726   4.945   0.739   2.836  0.2951  0.0540 -0.0592
  746ODT      D 3727   4.726   0.469   2.444  0.0655 -0.2797 -0.3171
  746ODT      C 3728   4.769   0.216   2.185  0.1802  0.0294  0.1927
  746ODT      C 3729   4.681  -0.149   2.070  0.4067 -0.0142  0.0702
  746ODT      C 3730   4.504  -0.558   2.181 -0.1286  0.1165  0.0658
  747ODT      C 3731   9.378   6.526   0.037  0.2056  0.0114 -0.0262
  747ODT      D 3732   9.238   6.107   0.063  0.5362  0.0024  0.0377
  747ODT      C 3733   9.203   5.759  -0.266  0.0664 -0.2691  0.1936
  747ODT      C 3734   9.445   5.351  -0.390  0.2820 -0.1206 -0.3481
  747ODT      C 3735   9.647   5.136  -0.522  0.0892 -0.1277 -0.0633
  748ODT      C 3736   6.265   4.449   4.556  0.1757  0.1049 -0.1342
  748ODT      D 3737   6.308   4.778   4.881  0.0177  0.0666 -0.2208
  748ODT      C 3738   6.086   5.141   5.057 -0.1645 -0.1341  0.1244
  748ODT      C 3739   6.320   5.656   5.021 -0.1772 -0.0648  0.0229
  748ODT      C 3740   6.323   6.093   4.749 -0.1157  0.4003 -0.1823
  749ODT      C 3741   0.154   1.185   4.731 -0.0148 -0.2126 -0.0359
  749ODT      D 3742  -0.308   1.311   4.711  0.2105 -0.0562 -0.1684
  749ODT      C 3743  -0.697   1.500   4.471  0.1565  0.0194 -0.2689
  749ODT      C 3744  -0.962   1.578   4.140  0.1566  0.0046 -0.2175
  749ODT      C 3745  -1.086   1.642   3.780 -0.0846 -0.2034  0.1405
  750ODT      C 3746   8.093   6.616   4.103 -0.0135 -0.1498  0.3767
  750ODT      D 3747   7.729   6.392   4.050  0.4385 -0.4483 -0.0383
  750ODT      C 3748   7.385   6.253   4.005  0.0745 -0.1323  0.0351
  750ODT      C 3749   6.961   6.095   3.825 -0.2768  0.1446 -0.0481
  750ODT      C 3750   6.539   6.025   3.772 -0.2330  0.1096  0.0912
  751ODT      C 3751   5.276   6.876   5.045  0.1752 -0.4482 -0.2038
  751ODT      D 3752   5.002   6.945   4.919 -0.2234 -0.0074 -0.0477
  751ODT      C 3753   4.916   7.046   4.528  0.1765  0.2052  0.0688
  751ODT      C 3754   4.840   6.965   4.096 -0.1259  0.0713  0.1844
  751ODT      C 3755   4.564   6.957   3.802  0.0657 -0.2026  0.0519
  752ODT      C 3756   0.533   6.866   0.804  0.2029  0.4473  0.0515
  752ODT      D 3757   0.710   7.259   0.717  0.1729 -0.3624 -0.2904
  752ODT      C 3758   0.940   7.589   0.433 -0.1760  0.1405 -0.1108
  752ODT      C 3759   0.756   7.581  -0.003  0.1846 -0.1027  0.2298
  752ODT      C 3760   0.577   7.444  -0.262 -0.0911  0.0555 -0.1463
  753ODT      C 3761   7.450   5.781   3.766 -0.2399  0.0032  0.2229
  753ODT      D 3762   7.202   5.775   4.191 -0.0800 -0.1069  0.2056
  753ODT      C 3763   7.189   5.844   4.589 -0.0779 -0.2061  0.1484
  753ODT      C 3764   7.607   5.714   4.873 -0.0910  0.0670 -0.0514
  753ODT      C 3765   7.703   5.348   4.751 -0.0214  0.1365 -0.0800
  754ODT      C 3766   8.149   5.950   0.205  0.1491 -0.1696  0.0567
  754ODT      D 3767   8.233   6.052  -0.263 -0.0362 -0.3011  0.2990
  754ODT      C 3768   8.276   6.004  -0.727  0.0520 -0.1332 -0.1062
  754ODT      C 3769   8.746   5.959  -0.906  0.0658 -0.0584  0.0837
  754ODT      C 3770   9.125   6.031  -0.686  0.2072 -0.1204 -0.0731
  755ODT      C 3771   8.946   5.602   0.619 -0.3133  0.0230  0.1952
  755ODT      D 3772   9.378   5.477   0.729  0.2875  0.2558 -0.0142
  755ODT      C 3773   9.508   5.118   0.862 -0.1117  0.0412  0.0918
  755ODT      C 3774   9.493   4.712   0.704 -0.0440  0.2157 -0.4483
  755ODT      C 3775   9.338   4.310   0.691  0.0233 -0.1908 -0.0323
  756ODT      C 3776   3.591   3.989   0.542  0.0294 -0.1068 -0.3116
  756ODT      D 3777   3.470   4.045   0.908  0.0053 -0.2358 -0.1531
  756ODT      C 3778   3.165   3.941   1.174  0.0566 -0.0862 -0.1355
  756ODT      C 3779   3.068   3.955   1.546  0.0161  0.0390 -0.0098
  756ODT      C 3780   3.223   3.797   1.903 -0.1034  0.1474  0.1619
  757ODT      C 3781   2.154   3.421   2.659  0.2289 -0.0332  0.1486
  757ODT      D 3782   1.919   3.459   2.280  0.0735  0.0846 -0.0832
  757ODT      C 3783   1.656   3.543   1.876 -0.3050  0.2714 -0.3351
  757ODT      C 3784   1.506   3.312   1.575 -0.2114  0.1395  0.0564
  757ODT      C 3785   1.687   2.940   1.486 -0.1471  0.1506 -0.0467
  758ODT      C 3786   5.041   5.870   5.382  0.2340  0.0525  0.1564
  758ODT      D 3787   5.525   5.942   5.425 -0.0239 -0.1744 -0.2133
  758ODT      C 3788   5.731   6.232   5.524  0.0479  0.0350 -0.0586
  758ODT      C 3789   5.938   6.565   5.426 -0.1324  0.0111  0.1682
  758ODT      C 3790   5.830   6.917   5.221  0.0103 -0.0373  0.1671
  759ODT      C 3791   1.365   4.317   3.791  0.0243  0.2232  0.1979
  759ODT      D 3792   1.085   4.721   3.662  0.1623 -0.2771 -0.1911
  759ODT      C 3793   0.963   5.092   3.739  0.0255  0.0616 -0.0821
  759ODT      C 3794   1.035   5.419   3.769  0.2772  0.1934  0.4468
  759ODT      C 3795   0.864   5.895   3.803 -0.2051 -0.2119  0.1746
  760ODT      C 3796   0.918   7.112   0.262  0.1357  0.0384 -0.1151
  760ODT      D 3797   0.618   6.929   0.030 -0.0236  0.1321  0.1496
  760ODT      C 3798   0.344   6.724  -0.177  0.1651 -0.0500  0.0955
  760ODT      C 3799   0.001   6.526  -0.525 -0.2736  0.1944 -0.1437
  760ODT      C 3800   0.062   6.244  -0.860  0.0842  0.2137  0.0594
  761ODT      C 3801   5.192   4.539   0.156  0.2081 -0.2391  0.2208
  761ODT      D 3802   5.194   4.943   0.446 -0.0523 -0.0809  0.0050
  761ODT      C 3803   5.015   5.271   0.618  0.0048  0.0997  0.4958
  761ODT      C 3804   4.947   5.595   0.979 -0.1142  0.1827  0.1225
  761ODT      C 3805   4.938   5.908   1.249  0.0837 -0.2995 -0.0828
  762ODT      C 3806   4.080   5.676   3.172 -0.0762 -0.1298 -0.0369
  762ODT      D 3807   3.962   6.136   3.021 -0.0577 -0.6088  0.0134
  762ODT      C 3808   4.189   6.583   3.076  0.0245  0.2687 -0.1307
  762ODT      C 3809   4.261   6.848   2.632 -0.4134 -0.0010 -0.4556
  762ODT      C 3810   4.503   7.206   2.527 -0.0293 -0.1519  0.1083
  763ODT      C 3811   5.855   7.097   4.737  0.0198  0.1366  0.2400
  763ODT      D 3812   6.063   7.149   4.305 -0.0648  0.0289  0.2815
  763ODT      C 3813   6.254   6.960   3.938  0.1703 -0.1183  0.0805
  763ODT      C 3814   6.116   6.991   3.469 -0.1874  0.2161  0.3079
  763ODT      C 3815   6.067   7.106   2.928  0.0211  0.1837 -0.1990
  764ODT      C 3816   1.320   6.369   1.947  0.1319  0.1553 -0.0883
  764ODT      D 3817   0.982   6.205   2.023 -0.0039  0.0520 -0.0623
  764ODT      C 3818   0.536   6.252   1.847  0.1021 -0.0383  0.1289
  764ODT      C 3819   0.177   6.336   1.758 -0.0826  0.2903  0.1549
  764ODT      C 3820  -0.068   6.600   1.905  0.0459  0.0142 -0.0508
  765ODT      C 3821   4.301   4.358   4.255  0.0365  0.2837 -0.2567
  765ODT      D 3822   4.625   4.098   4.584 -0.3460  0.0726  0.1758
  765ODT      C 3823   4.763   3.922   4.979  0.2240  0.0371  0.1636
  765ODT      C 3824   4.634   3.547   5.091 -0.1502 -0.0379 -0.1745
  765ODT      C 3825   4.550   3.157   5.183 -0.1779  0.2697 -0.2315
  766ODT      C 3826   0.869   5.004   2.324  0.0631 -0.0961 -0.2344
  766ODT      D 3827   0.960   4.683   2.660 -0.0758  0.1504 -0.1301
  766ODT      C 3828   1.137   4.449   2.986  0.1406  0.1947 -0.0864
  766ODT      C 3829   1.149   4.205   3.346 -0.2641 -0.0834 -0.0219
  766ODT      C 3830   0.851   3.831   3.506 -0.2791 -0.0197 -0.1099
  767ODT      C 3831   9.388   1.438   6.748 -0.2471  0.1674  0.0876
  767ODT      D 3832   9.685   1.631   6.914 -0.0666 -0.0018  0.3364
  767ODT      C 3833   9.946   1.823   7.291 -0.2578  0.2366  0.3250
  767ODT      C 3834   9.964   2.272   7.304  0.3328 -0.0395  0.1403
  767ODT      C 3835   9.935   2.645   7.532 -0.1343 -0.0931  0.0211
  768ODT      C 3836   5.733   0.134   3.823  0.0132  0.2114  0.2026
  768ODT      D 3837   5.952   0.406   3.904  0.1200 -0.0524 -0.1441
  768ODT      C 3838   6.217   0.685   3.667  0.1959 -0.1123 -0.0898
  768ODT      C 3839   6.104   0.826   3.259 -0.0802  0.0710  0.0959
  768ODT      C 3840   6.049   1.203   3.048  0.1851 -0.3164  0.3044
  769ODT      C 3841   8.725   3.938   2.606 -0.1148  0.0560  0.1546
  769ODT      D 3842   8.443   4.266   2.380  0.1687 -0.1043  0.0005
  769ODT      C 3843   8.169   4.577   2.415  0.0336  0.3075  0.0019
  769ODT      C 3844   7.972   4.970   2.550  0.0186  0.0299  0.0343
  769ODT      C 3845   7.705   5.179   2.743 -0.2455 -0.3394 -0.2952
  770ODT      C 3846   1.697   1.333   3.898 -0.0579  0.1548  0.0009
  770ODT      D 3847   1.637   0.974   3.648 -0.1092 -0.0271  0.0281
  770ODT      C 3848   1.559   0.870   3.303  0.3030 -0.1077 -0.1360
  770ODT      C 3849   1.527   0.472   2.960  0.0162  0.1580 -0.0054
  770ODT      C 3850   1.573   0.087   2.751  0.1544  0.1443  0.1289
  771ODT      C 3851   1.124   0.426   4.682 -0.1062  0.2621  0.1378
  771ODT      D 3852   1.468   0.586   4.531  0.1815 -0.0979  0.0550
  771ODT      C 3853   1.753   0.753   4.180  0.1838  0.2000 -0.0987
  771ODT      C 3854   2.050   0.851   3.857 -0.0488  0.0943 -0.3419
  771ODT      C 3855   2.396   0.900   3.726  0.0471 -0.1386 -0.0556
  772ODT      C 3856   1.561   2.753   5.745 -0.1327 -0.2099 -0.2774
  772ODT      D 3857   1.756   2.452   6.034 -0.1472  0.0462 -0.2075
  772ODT      C 3858   1.896   2.035   6.065 -0.2279  0.0434  0.2105
  772ODT      C 3859   2.116   1.641   5.817  0.0540  0.1051  0.2270
  772ODT      C 3860   2.430   1.719   5.547  0.2736 -0.4072  0.2057
  773ODT      C 3861   1.488   4.561   2.581 -0.0971  0.1693  0.0021
  773ODT      D 3862   1.591   4.304   2.901 -0.2776 -0.1083 -0.2645
  773ODT      C 3863   1.680   4.064   3.259 -0.3423 -0.1214 -0.1297
  773ODT      C 3864   1.775   4.046   3.684 -0.2360 -0.5055  0.2537
  773ODT      C 3865   1.785   3.891   4.075 -0.1394  0.1273  0.0255
  774ODT      C 3866   3.786   2.740   6.654  0.1933 -0.0416 -0.2288
  774ODT      D 3867   3.714   2.772   7.115 -0.2977 -0.0220 -0.1337
  774ODT      C 3868   3.687   2.577   7.469  0.2064  0.0988 -0.0781
  774ODT      C 3869   3.297   2.552   7.626  0.2692 -0.1638 -0.1626
  774ODT      C 3870   2.753   2.559   7.739  0.0152  0.3428  0.0544
  775ODT      C 3871   7.016   3.109   3.395 -0.4206 -0.0540 -0.1718
  775ODT      D 3872   6.960   2.804   3.586  0.0261 -0.4190 -0.0342
  775ODT      C 3873   7.169   2.433   3.507 -0.0734  0.2169  0.0170
  775ODT      C 3874   7.356   2.030   3.358  0.0511 -0.1825  0.2215
  775ODT      C 3875   7.543   1.642   3.378  0.4055 -0.0219 -0.0671
  776ODT      C 3876   5.433   5.850   0.919 -0.2366 -0.1418 -0.0228
  776ODT      D 3877   5.407   5.415   0.942 -0.1245  0.1734  0.2297
  776ODT      C 3878   5.471   4.937   0.809  0.1244 -0.0468  0.2778
  776ODT      C 3879   5.504   4.499   0.649 -0.1604  0.0304  0.1385
  776ODT      C 3880   5.840   4.102   0.501 -0.2842  0.0507 -0.1322
  777ODT      C 3881   0.535   2.718   4.515  0.2113 -0.0000 -0.4051
  777ODT      D 3882   0.397   2.733   4.185 -0.0509 -0.2043 -0.1647
  777ODT      C 3883   0.138   3.143   4.034  0.0240  0.1087  0.0010
  777ODT      C 3884  -0.196   3.389   4.229  0.0131  0.1588 -0.1460
  777ODT      C 3885  -0.552   3.579   4.163  0.1872  0.1474  0.1179
  778ODT      C 3886   5.098   2.478   5.932  0.0471 -0.1708  0.0389
  778ODT      D 3887   5.053   2.905   5.731 -0.0726  0.0164 -0.4105
  778ODT      C 3888   5.036   3.014   5.265 -0.1527 -0.0606 -0.5383
  778ODT      C 3889   5.023   3.137   4.891  0.0594  0.0177  0.1712
  778ODT      C 3890   5.079   3.122   4.408 -0.0057 -0.1827  0.2183
  779ODT      C 3891   6.651   6.539   3.885 -0.2358 -0.3983  0.0690
  779ODT      D 3892   6.984   6.549   4.046  0.0233  0.0276  0.2314
  779ODT      C 3893   7.330   6.827   4.219 -0.0307  0.1915 -0.0791
  779ODT      C 3894   7.545   6.966   3.955  0.0023  0.0657 -0.0586
  779ODT      C 3895   7.795   6.872   3.728 -0.1830  0.2826 -0.1249
  780ODT      C 3896   1.280   3.873   1.775  0.1599  0.2086  0.0612
  780ODT      D 3897   1.092   3.860   2.085  0.2507  0.3735 -0.3095
  780ODT      C 3898   0.858   3.735   2.482 -0.0557 -0.1943  0.0245
  780ODT      C 3899   0.670   3.379   2.773  0.0436 -0.1095  0.0575
  780ODT      C 3900   0.855   3.380   3.062  0.0354  0.2647 -0.2128
  781ODT      C 3901   3.944   4.186   0.904 -0.1023  0.0367 -0.0526
  781ODT      D 3902   3.862   4.440   0.534  0.0713  0.2364 -0.0057
  781ODT      C 3903   3.534   4.542   0.215  0.0323  0.1402 -0.0307
  781ODT      C 3904   3.370   4.743  -0.143  0.3862  0.1167  0.1365
  781ODT      C 3905   2.989   4.976  -0.332 -0.0251  0.5407 -0.1496
  782ODT      C 3906   9.293   2.970   6.637 -0.2695 -0.2667  0.1572
  782ODT      D 3907   9.667   2.994   6.707  0.0037 -0.1461  0.0877
  782ODT      C 3908  10.211   3.093   6.673  0.0244 -0.2037  0.1252
  782ODT      C 3909  10.645   3.043   6.521  0.1443 -0.0074 -0.1258
  782ODT      C 3910  11.049   3.227   6.683  0.3322  0.2965 -0.0821
  783ODT      C 3911   2.541   3.651   0.572  0.2379  0.0742 -0.1459
  783ODT      D 3912   2.301   3.897   0.402 -0.1004 -0.0255 -0.1674
  783ODT      C 3913   2.207   3.986  -0.038  0.2704  0.0741  0.0631
  783ODT      C 3914   2.213   4.050  -0.564 -0.0514  0.3825  0.0771
  783ODT      C 3915   2.513   3.968  -0.803  0.3635 -0.3446 -0.3214
  784ODT      C 3916   3.241   3.357   5.087 -0.1430 -0.1172 -0.2579
  784ODT      D 3917   3.352   3.642   5.443 -0.0687 -0.0280  0.1632
  784ODT      C 3918   3.384   3.864   5.806  0.0698 -0.1691 -0.1324
  784ODT      C 3919   3.754   3.881   6.174 -0.0357  0.3984 -0.1287
  784ODT      C 3920   3.914   3.819   6.589  0.0808  0.0504  0.1026
  785ODT      C 3921   4.509   5.155   0.896 -0.3628 -0.2414  0.2434
  785ODT      D 3922   4.932   5.039   1.125  0.0250  0.2014 -0.2899
  785ODT      C 3923   5.243   4.974   1.352 -0.3518  0.1184 -0.0044
  785ODT      C 3924   5.643   5.051   1.347 -0.1700 -0.0756 -0.0918
  785ODT      C 3925   6.070   5.159   1.491  0.0077 -0.1681 -0.2047
  786ODT      C 3926   3.350   4.598   3.849  0.0373  0.0807 -0.3636
  786ODT      D 3927   3.288   4.735   4.332 -0.1880 -0.4338  0.2488
  786ODT      C 3928   3.434   5.013   4.537  0.0385 -0.3974 -0.5980
  786ODT      C 3929   3.207   5.271   4.777 -0.3160  0.0319 -0.3779
  786ODT      C 3930   2.888   5.630   4.957 -0.3178  0.4124  0.1188
  787ODT      C 3931   8.049   1.306   2.363 -0.0121  0.1553  0.0424
  787ODT      D 3932   8.063   1.603   2.138 -0.0701 -0.1299 -0.1323
  787ODT      C 3933   7.942   2.016   2.007 -0.3665  0.4133  0.0607
  787ODT      C 3934   7.994   2.448   2.224 -0.1870 -0.0175  0.2088
  787ODT      C 3935   7.733   2.737   2.386 -0.0364 -0.0924  0.0521
  788ODT      C 3936   5.529   6.697   3.084 -0.0904  0.0234 -0.0298
  788ODT      D 3937   5.316   7.028   2.972 -0.3314 -0.0083 -0.0481
  788ODT      C 3938   5.340   7.502   2.956 -0.0594 -0.1584 -0.3251
  788ODT      C 3939   5.470   7.958   3.026  0.0058 -0.0314  0.0175
  788ODT      C 3940   5.570   8.410   2.949 -0.0795 -0.1909 -0.0313
  789ODT      C 3941   2.067   2.893   2.461 -0.1139 -0.0743  0.2553
  789ODT      D 3942   2.044   2.390   2.443  0.0250  0.0149  0.0112
  789ODT      C 3943   1.837   1.958   2.468  0.0968 -0.0203  0.1241
  789ODT      C 3944   1.861   1.683   2.872  0.0179 -0.0405 -0.0336
  789ODT      C 3945   2.056   1.447   3.073 -0.1412 -0.4525  0.1117
  790ODT      C 3946   3.470   3.359   6.056  0.2367  0.3240 -0.0941
  790ODT      D 3947   3.543   3.497   6.499  0.1469 -0.2406  0.1787
  790ODT      C 3948   3.415   3.760   6.897 -0.1673 -0.3101  0.2265
  790ODT      C 3949   3.417   3.693   7.326  0.0382  0.1360 -0.0543
  790ODT      C 3950   3.493   3.493   7.772  0.4015 -0.1960 -0.2658
  791ODT      C 3951   7.004   0.215   6.767 -0.1962 -0.5168  0.0038
  791ODT      D 3952   6.818  -0.010   7.018  0.0537  0.0973  0.1613
  791ODT      C 3953   6.506  -0.183   7.348  0.1707  0.1275  0.3193
  791ODT      C 3954   6.191  -0.069   7.644  0.0051  0.0638  0.1110
  791ODT      C 3955   5.842  -0.093   7.812 -0.2318  0.0961  0.4576
  792ODT      C 3956   9.434   6.990   1.152 -0.0778  0.0558  0.1088
  792ODT      D 3957   9.785   6.716   1.227  0.2968  0.1850 -0.3341
  792ODT      C 3958   9.942   6.325   1.276 -0.2686  0.3321 -0.1248
  792ODT      C 3959   9.798   5.877   1.522  0.2892 -0.1198 -0.1612
  792ODT      C 3960   9.559   5.473   1.579 -0.0018  0.0801  0.3353
  793ODT      C 3961   8.092   6.588   2.647 -0.0300 -0.3238  0.1995
  793ODT      D 3962   8.344   6.776   2.870  0.2932  0.0007 -0.0103
  793ODT      C 3963   8.544   6.924   3.231 -0.2680 -0.0490  0.0639
  793ODT      C 3964   8.784   7.061   3.607 -0.0151 -0.0638  0.0200
  793ODT      C 3965   8.941   7.484   3.727 -0.1705 -0.3383 -0.1521
  794ODT      C 3966   1.252   0.423   2.489 -0.0894 -0.0833 -0.0363
  794ODT      D 3967   1.442   0.113   2.264 -0.0594 -0.1308  0.1143
  794ODT      C 3968   1.787  -0.030   1.937 -0.4768 -0.1266 -0.0378
  794ODT      C 3969   1.944  -0.491   1.846  0.2304  0.0668  0.2181
  794ODT      C 3970   2.174  -0.655   1.610 -0.3185 -0.1137 -0.4377
  795ODT      C 3971   2.077   1.316   3.559 -0.0961 -0.1942  0.1704
  795ODT      D 3972   2.509   1.403   3.748 -0.4374  0.0693  0.2712
  795ODT      C 3973   2.788   1.748   3.718 -0.2867 -0.1592  0.0001
  795ODT      C 3974   3.044   2.109   3.845 -0.1228 -0.0347  0.1274
  795ODT      C 3975   3.260   2.528   3.893  0.0460 -0.0773 -0.0039
  796ODT      C 3976   5.544   0.604   3.616 -0.0285  0.2848 -0.3113
  796ODT      D 3977   5.407   1.048   3.607 -0.1277 -0.1290  0.1189
  796ODT      C 3978   5.430   1.413   3.855 -0.1770 -0.3322 -0.0469
  796ODT      C 3979   5.387   1.804   3.629  0.0679  0.0850  0.0128
  796ODT      C 3980   5.234   2.100   3.695 -0.2071 -0.1541  0.2108
  797ODT      C 3981   2.414   2.528   4.729 -0.2167 -0.0389  0.1561
  797ODT      D 3982   2.030   2.385   5.013 -0.1137  0.3749 -0.1980
  797ODT      C 3983   1.626   2.530   5.323 -0.2583 -0.2826 -0.1661
  797ODT      C 3984   1.465   2.288   5.576 -0.1842  0.2095 -0.3445
  797ODT      C 3985   1.335   2.149   6.039 -0.1262  0.1514  0.1590
  798ODT      C 3986   2.227   5.563   2.178  0.0900 -0.0619  0.0736
  798ODT      D 3987   2.309   5.802   1.847  0.2394 -0.2170  0.3054
  798ODT      C 3988   2.104   5.764   1.502 -0.1868  0.0611 -0.1259
  798ODT      C 3989   1.795   5.966   1.392 -0.2627  0.0475 -0.1299
  798ODT      C 3990   1.688   6.317   1.512  0.2624  0.1624  0.0085
  799ODT      C 3991   2.897   1.367   5.357 -0.1598  0.3356  0.1051
  799ODT      D 3992   2.713   0.981   5.168  0.2698 -0.1750  0.1991
  799ODT      C 3993   2.785   0.522   4.943 -0.3609 -0.1694  0.3677
  799ODT      C 3994   3.161   0.470   4.690  0.0396 -0.1363  0.2132
  799ODT      C 3995   3.596   0.399   4.523  0.1803  0.1862 -0.3785
  800ODT      C 3996   6.609   7.100   2.782  0.0947 -0.0229  0.0881
  800ODT      D 3997   6.669   7.285   2.381  0.1855 -0.0399 -0.1253
  800ODT      C 3998   6.693   7.094   1.891  0.3915  0.3088  0.1166
  800ODT      C 3999   6.813   6.905   1.621 -0.0769 -0.1314 -0.0114
  800ODT      C 4000   7.035   6.893   1.195 -0.1148  0.0992  0.1507
  801ODT      C 4001   2.537   2.629   2.993 -0.0566  0.0048  0.0262
  801ODT      D 4002   2.435   2.630   2.611 -0.0570  0.0314  0.0436
  801ODT      C 4003   2.438   2.774   2.153 -0.2326  0.2355 -0.2353
  801ODT      C 4004   2.574   2.935   1.866  0.0467 -0.1717 -0.1386
  801ODT      C 4005   2.523   3.079   1.476 -0.0161 -0.1009  0.2503
  802ODT      C 4006   6.879   0.344   1.857  0.1524 -0.1593 -0.0834
  802ODT      D 4007   6.921   0.498   2.278 -0.3302  0.0099  0.2214
  802ODT      C 4008   6.898   0.784   2.717 -0.4361  0.0146 -0.1211
  802ODT      C 4009   6.890   1.098   3.055 -0.3242  0.1317 -0.0920
  802ODT      C 4010   6.573   1.179   3.446  0.2304 -0.0673  0.0495
  803ODT      C 4011   8.927   1.514   3.719 -0.0944  0.3973  0.0604
  803ODT      D 4012   9.036   1.239   4.084  0.0713 -0.0125 -0.1239
  803ODT      C 4013   8.825   0.998   4.438  0.3619  0.2268  0.0306
  803ODT      C 4014   8.396   0.986   4.366 -0.1481  0.0314 -0.1242
  803ODT      C 4015   8.094   1.091   4.026  0.4792 -0.1245  0.0277
  804ODT      C 4016   6.804   1.362   1.239  0.3041  0.0913 -0.0685
  804ODT      D 4017   6.468   1.529   1.444 -0.1486 -0.2263  0.1185
  804ODT      C 4018   5.992   1.682   1.549  0.0611 -0.0934  0.0443
  804ODT      C 4019   5.834   2.180   1.640  0.1301  0.2827 -0.2978
  804ODT      C 4020   5.588   2.488   1.826 -0.1755  0.1767  0.0277
  805ODT      C 4021   9.090   4.157   1.234 -0.1454  0.1084 -0.0092
  805ODT      D 4022   9.408   3.957   1.011  0.3427 -0.0428  0.2658
  805ODT      C 4023   9.869   3.788   0.911  0.1680  0.1409 -0.2423
  805ODT      C 4024  10.102   3.491   0.812 -0.1138 -0.0079 -0.3314
  805ODT      C 4025  10.493   3.216   0.786 -0.0979 -0.3672 -0.1217
  806ODT      C 4026   9.011   5.888   2.318 -0.0870  0.0248  0.0993
  806ODT      D 4027   9.065   5.708   2.714 -0.0218  0.1771 -0.0070
  806ODT      C 4028   9.173   5.575   3.081 -0.0034  0.0764 -0.2398
  806ODT      C 4029   9.216   5.520   3.488 -0.1191  0.0442 -0.1402
  806ODT      C 4030   9.611   5.422   3.767 -0.1552 -0.3415 -0.0944
  807ODT      C 4031   0.763   0.476   2.712  0.1586  0.2301  0.1784
  807ODT      D 4032   0.553   0.173   2.915  0.3668  0.1387 -0.0161
  807ODT      C 4033   0.303  -0.239   2.927 -0.2244  0.0376 -0.1901
  807ODT      C 4034   0.367  -0.653   2.748  0.0305 -0.1360  0.0307
  807ODT      C 4035   0.646  -0.930   2.969  0.0994 -0.0267 -0.0839
  808ODT      C 4036   6.666   3.717   3.078  0.0706 -0.2336  0.1664
  808ODT      D 4037   6.676   3.276   3.017  0.0257 -0.0051  0.1628
  808ODT      C 4038   6.815   2.918   2.950 -0.0277 -0.1547 -0.2883
  808ODT      C 4039   6.928   2.473   3.070  0.0275 -0.0214 -0.2815
  808ODT      C 4040   7.229   2.284   2.958  0.1325 -0.1394 -0.1369
  809ODT      C 4041   1.220   3.294   2.761  0.3109  0.1392 -0.0387
  809ODT      D 4042   0.869   2.941   2.760  0.3850  0.1383 -0.3280
  809ODT      C 4043   0.672   2.622   2.819 -0.0903  0.2446  0.2177
  809ODT      C 4044   0.847   2.208   2.678 -0.4706 -0.4610  0.0714
  809ODT      C 4045   1.022   1.929   2.361  0.2029 -0.0312  0.1701
  810ODT      C 4046   8.607   4.272   5.421 -0.1255 -0.1016 -0.0635
  810ODT      D 4047   8.516   3.846   5.336 -0.0357  0.2758  0.1316
  810ODT      C 4048   8.539   3.467   5.434  0.0263 -0.0898 -0.2403
  810ODT      C 4049   8.855   3.318   5.690 -0.1813 -0.3324 -0.2168
  810ODT      C 4050   9.306   3.367   5.912  0.0413 -0.0764  0.5302
  811ODT      C 4051   2.379   4.940   2.734 -0.0182  0.2482 -0.0904
  811ODT      D 4052   2.413   5.307   3.058  0.1568  0.1175  0.1525
  811ODT      C 4053   2.093   5.609   3.191 -0.0266  0.0407 -0.1443
  811ODT      C 4054   1.834   5.834   3.381 -0.0601 -0.1095  0.1314
  811ODT      C 4055   1.453   5.966   3.082 -0.1013  0.0784 -0.0096
  812ODT      C 4056   8.267   4.668   4.442 -0.0167 -0.1919  0.4671
  812ODT      D 4057   8.539   4.505   4.710 -0.0752  0.1518  0.1906
  812ODT      C 4058   8.723   4.125   4.910  0.1328 -0.1194 -0.2249
  812ODT      C 4059   9.195   3.997   4.954 -0.1105  0.1963 -0.3015
  812ODT      C 4060   9.540   3.894   4.993  0.0938  0.3119 -0.0331
  813ODT      C 4061   7.392   3.586   5.980 -0.0005  0.0256 -0.2723
  813ODT      D 4062   7.711   3.492   5.712  0.0439  0.1678 -0.1413
  813ODT      C 4063   8.061   3.455   5.640  0.1234 -0.0851 -0.2609
  813ODT      C 4064   8.306   3.097   5.786 -0.0467  0.2976  0.0464
  813ODT      C 4065   8.599   2.933   5.468 -0.3125 -0.1768  0.0867
  814ODT      C 4066   9.164   2.510   6.507 -0.0168  0.4094  0.2155
  814ODT      D 4067   8.873   2.751   6.690  0.1506 -0.0641  0.0158
  814ODT      C 4068   8.384   2.847   6.640 -0.1360  0.5680 -0.1477
  814ODT      C 4069   7.999   2.788   6.668 -0.2132  0.2167 -0.2098
  814ODT      C 4070   7.696   3.011   6.535 -0.0114 -0.2219 -0.1416
  815ODT      C 4071   3.431   2.066   1.332  0.2456 -0.0058  0.1864
  815ODT      D 4072   3.777   2.298   1.453  0.2767  0.1669 -0.0396
  815ODT      C 4073   4.168   2.411   1.576 -0.0441 -0.0724 -0.3723
  815ODT      C 4074   4.461   2.720   1.544  0.0972  0.1483  0.1053
  815ODT      C 4075   4.810   3.009   1.347  0.3852 -0.0149 -0.0498
  816ODT      C 4076   7.212   1.338   5.189 -0.0751 -0.1017  0.0494
  816ODT      D 4077   6.952   1.598   5.440  0.1744 -0.0892 -0.3192
  816ODT      C 4078   6.589   1.866   5.569 -0.2878  0.1228 -0.0449
  816ODT      C 4079   6.440   2.099   5.850 -0.4385  0.2474 -0.0844
  816ODT      C 4080   6.304   2.052   6.240 -0.0533 -0.2848 -0.1087
  817ODT      C 4081   6.825   2.262   1.580 -0.0299  0.1553 -0.1836
  817ODT      D 4082   6.532   2.572   1.700  0.1426  0.1478 -0.0353
  817ODT      C 4083   6.408   2.943   1.664 -0.0456 -0.1003 -0.0059
  817ODT      C 4084   6.289   3.424   1.711 -0.1197 -0.1240 -0.1488
  817ODT      C 4085   6.072   3.683   1.285  0.0718 -0.0998  0.2789
  818ODT      C 4086   9.157   0.771   5.407  0.1522 -0.2258 -0.1403
  818ODT      D 4087   9.616   0.850   5.623  0.0489 -0.2954  0.1245
  818ODT      C 4088   9.916   1.076   5.769 -0.3940 -0.1467 -0.0671
  818ODT      C 4089  10.138   1.303   6.056  0.0916  0.2133 -0.0619
  818ODT      C 4090  10.374   1.439   6.230  0.2181  0.2333  0.1719
  819ODT      C 4091   2.096   6.112   3.142  0.0149  0.2941 -0.1167
  819ODT      D 4092   1.813   5.839   2.828 -0.0702  0.3668  0.0279
  819ODT      C 4093   1.395   5.653   2.639  0.0626  0.0588  0.0122
  819ODT      C 4094   0.957   5.468   2.558 -0.0977  0.2413 -0.2902
  819ODT      C 4095   0.583   5.419   2.386 -0.1079 -0.1648 -0.0746
  820ODT      C 4096   7.711   2.634   2.862  0.2193  0.0279 -0.3442
  820ODT      D 4097   7.765   2.221   3.066  0.2768  0.3439  0.0567
  820ODT      C 4098   7.966   1.835   3.110  0.0234 -0.1205 -0.1045
  820ODT      C 4099   8.305   1.597   3.214 -0.0020  0.2846 -0.1366
  820ODT      C 4100   8.700   1.689   3.318  0.1867  0.3795 -0.0528
  821ODT      C 4101   7.546   5.528   5.734 -0.0585 -0.1288  0.1973
  821ODT      D 4102   7.639   5.818   5.865  0.0251 -0.2052  0.0035
  821ODT      C 4103   7.937   6.087   6.080  0.0540 -0.0870 -0.1459
  821ODT      C 4104   8.261   6.380   6.095  0.1406  0.1332 -0.0027
  821ODT      C 4105   8.583   6.149   5.762  0.1524  0.1432  0.0859
  822ODT      C 4106   7.183   3.431   3.057  0.2292  0.0167  0.4141
  822ODT      D 4107   7.538   3.226   3.096 -0.1843 -0.2877  0.1474
  822ODT      C 4108   7.947   2.995   3.110 -0.0812 -0.1351 -0.2600
  822ODT      C 4109   8.281   2.954   3.295  0.1126 -0.0510 -0.2154
  822ODT      C 4110   8.654   3.196   3.286  0.1469  0.1164  0.0358
  823ODT      C 4111   6.487   0.352   0.038  0.0157 -0.2259 -0.1157
  823ODT      D 4112   6.434   0.812  -0.045  0.3841 -0.2313 -0.1483
  823ODT      C 4113   6.631   1.198   0.017 -0.3015  0.0275  0.0764
  823ODT      C 4114   6.786   1.295  -0.428 -0.3907 -0.0441  0.2471
  823ODT      C 4115   6.526   1.446  -0.802 -0.1648 -0.2415 -0.0009
  824ODT      C 4116   0.426   4.866   0.919 -0.1330  0.0220  0.0181
  824ODT      D 4117   0.269   5.003   0.421  0.0897 -0.1254 -0.0342
  824ODT      C 4118  -0.064   5.131   0.131 -0.0920 -0.1269 -0.0581
  824ODT      C 4119  -0.177   4.861  -0.151 -0.2237  0.0024 -0.0441
  824ODT      C 4120  -0.545   4.824  -0.433 -0.0690  0.0092  0.1427
  825ODT      C 4121   4.004   3.582   2.754  0.2435 -0.4740  0.0931
  825ODT      D 4122   3.847   3.808   3.016  0.1017  0.3089 -0.1885
  825ODT      C 4123   3.446   3.922   3.031 -0.0231 -0.2117  0.3056
  825ODT      C 4124   2.999   3.886   2.782  0.0285  0.0542 -0.0375
  825ODT      C 4125   2.627   3.578   2.800  0.4657  0.1350  0.2853
  826ODT      C 4126   8.953   4.580   6.312  0.1524  0.2746 -0.1769
  826ODT      D 4127   8.522   4.632   6.292 -0.0902 -0.3886 -0.1282
  826ODT      C 4128   8.272   4.813   5.856 -0.0543 -0.0609  0.1651
  826ODT      C 4129   8.026   5.015   5.463 -0.0924  0.0844  0.0149
  826ODT      C 4130   8.023   5.098   5.043 -0.0888 -0.0891 -0.1452
  827ODT      C 4131   7.330   3.336   4.156 -0.0519  0.1119  0.2390
  827ODT      D 4132   6.961   3.282   3.846  0.1507  0.2643  0.2046
  827ODT      C 4133   6.770   3.506   3.561  0.1994  0.1185  0.0500
  827ODT      C 4134   6.712   4.034   3.535 -0.1011 -0.1318  0.0029
  827ODT      C 4135   6.601   4.344   3.203  0.0072  0.1405  0.1852
  828ODT      C 4136   8.228   2.659   6.204  0.2819  0.0015  0.0693
  828ODT      D 4137   8.544   2.629   5.802  0.3187  0.1135  0.1127
  828ODT      C 4138   8.758   2.465   5.415  0.0359 -0.0278  0.0993
  828ODT      C 4139   8.934   2.667   5.093 -0.1889 -0.0446 -0.1642
  828ODT      C 4140   9.065   2.809   4.696  0.1884 -0.0783  0.3829
  829ODT      C 4141   1.276   4.962   6.394  0.0595 -0.0719  0.1741
  829ODT      D 4142   1.570   5.234   6.724 -0.0176  0.0550  0.2936
  829ODT      C 4143   1.679   5.212   7.177 -0.1158  0.3017  0.1737
  829ODT      C 4144   1.969   5.289   7.570 -0.0999 -0.0625 -0.1540
  829ODT      C 4145   2.266   5.392   7.755  0.6265  0.2740 -0.1779
  830ODT      C 4146   7.681   2.193   2.480 -0.1070  0.0665  0.1977
  830ODT      D 4147   7.234   2.330   2.460 -0.2592  0.1614  0.1252
  830ODT      C 4148   6.942   2.427   2.081 -0.2528  0.2097  0.1849
  830ODT      C 4149   6.870   2.849   2.026 -0.1220  0.0518 -0.0059
  830ODT      C 4150   6.565   3.200   2.099  0.1451 -0.2793  0.0837
  831ODT      C 4151   4.221   4.090   3.218  0.0720 -0.0416 -0.2096
  831ODT      D 4152   4.676   4.354   3.051 -0.1295 -0.3865 -0.2170
  831ODT      C 4153   5.131   4.322   3.141 -0.0863  0.1851 -0.0012
  831ODT      C 4154   5.482   4.235   3.051 -0.0679  0.0066 -0.2181
  831ODT      C 4155   5.660   3.963   2.701  0.0383 -0.0757 -0.2029
  832ODT      C 4156   8.995   5.152   3.237 -0.0611 -0.3077  0.1866
  832ODT      D 4157   8.663   4.998   3.169  0.1451  0.1026 -0.2065
  832ODT      C 4158   8.339   4.742   3.197 -0.1162  0.2576  0.0952
  832ODT      C 4159   8.224   4.353   3.423 -0.2139 -0.0257 -0.2133
  832ODT      C 4160   8.165   4.113   3.843  0.0492 -0.0251  0.0075
  833ODT      C 4161   7.467   6.538   6.902 -0.1757  0.1006 -0.3681
  833ODT      D 4162   7.661   6.827   6.598  0.0817  0.3136 -0.1969
  833ODT      C 4163   8.029   6.948   6.349 -0.3018  0.0661  0.5121
  833ODT      C 4164   8.463   7.114   6.395 -0.3690 -0.1048 -0.0192
  833ODT      C 4165   8.800   7.372   6.466  0.0168  0.1545  0.1074
  834ODT      C 4166   2.566   6.522   4.825 -0.1895 -0.0596 -0.0103
  834ODT      D 4167   2.638   6.459   4.458  0.2062 -0.2024 -0.0929
  834ODT      C 4168   2.791   6.077   4.166 -0.2546 -0.0353 -0.1710
  834ODT      C 4169   2.703   5.859   3.829  0.1631 -0.1708 -0.1785
  834ODT      C 4170   2.202   5.790   3.714  0.1743 -0.1839 -0.1155
  835ODT      C 4171   6.283   5.051   7.020 -0.3361 -0.0985 -0.0306
  835ODT      D 4172   6.446   4.829   6.679  0.1098  0.1317 -0.0350
  835ODT      C 4173   6.434   4.693   6.257 -0.1757  0.2246  0.1282
  835ODT      C 4174   6.238   4.633   5.855  0.0657 -0.4207  0.0143
  835ODT      C 4175   6.233   4.939   5.498 -0.1109  0.1693 -0.0207
  836ODT      C 4176   5.120   2.906   1.829 -0.0405 -0.2164 -0.0163
  836ODT      D 4177   4.726   3.042   1.854  0.2256  0.0737 -0.0954
  836ODT      C 4178   4.308   3.101   1.948  0.5258  0.0103 -0.0958
  836ODT      C 4179   3.858   3.176   2.100  0.4040 -0.4851 -0.1434
  836ODT      C 4180   3.499   2.997   2.139  0.1939  0.0590 -0.1261
  837ODT      C 4181   7.956   2.351   5.885  0.0977  0.0027  0.1863
  837ODT      D 4182   7.931   2.691   5.693  0.2714 -0.1311  0.2942
  837ODT      C 4183   8.075   2.944   5.419 -0.2386  0.0786  0.1844
  837ODT      C 4184   8.209   3.171   5.056 -0.2454  0.1349  0.0677
  837ODT      C 4185   8.059   3.496   4.640 -0.2610  0.0555 -0.1568
  838ODT      C 4186   0.937   5.863   6.088  0.1378  0.2577 -0.1400
  838ODT      D 4187   0.793   5.446   5.770 -0.0911 -0.1464  0.1862
  838ODT      C 4188   0.451   5.440   5.472  0.0471 -0.1514  0.0007
  838ODT      C 4189   0.077   5.217   5.234 -0.1072  0.0698  0.0483
  838ODT      C 4190  -0.155   4.811   5.091  0.0959 -0.1681 -0.2453
  839ODT      C 4191   0.396   1.486   3.040 -0.3234 -0.2325  0.3285
  839ODT      D 4192   0.561   1.561   2.609  0.3367 -0.0298 -0.0319
  839ODT      C 4193   0.484   1.326   2.193  0.1804  0.1429  0.0794
  839ODT      C 4194   0.664   1.071   1.985  0.3101  0.0656  0.1741
  839ODT      C 4195   1.023   1.031   1.730  0.0519  0.6166  0.0810
  840ODT      C 4196   6.215   4.022   5.656  0.0165 -0.0322 -0.1289
  840ODT      D 4197   6.100   4.446   5.423 -0.5088 -0.0836  0.2620
  840ODT      C 4198   5.826   4.735   5.291 -0.2482  0.0193 -0.0976
  840ODT      C 4199   5.685   5.172   5.587 -0.1251 -0.1092  0.0623
  840ODT      C 4200   5.680   5.525   5.776  0.3606  0.1301  0.4168
  841ODT      C 4201   0.320   7.043   5.270  0.3729  0.2325 -0.0118
  841ODT      D 4202  -0.037   7.064   5.497  0.2385  0.1335 -0.0846
  841ODT      C 4203  -0.548   7.048   5.555  0.0482 -0.0884  0.1231
  841ODT      C 4204  -0.941   6.969   5.645  0.1225  0.4504 -0.2474
  841ODT      C 4205  -1.240   6.790   5.930  0.1340  0.0713 -0.0040
  842ODT      C 4206   9.077   4.686   1.158  0.0376  0.0677  0.1798
  842ODT      D 4207   8.799   4.444   0.990  0.1261 -0.2308  0.0176
  842ODT      C 4208   8.453   4.146   0.817 -0.2283 -0.0634 -0.2031
  842ODT      C 4209   8.097   3.959   0.626  0.2175  0.3717  0.0082
  842ODT      C 4210   7.655   3.920   0.342 -0.1092  0.1921  0.0603
  843ODT      C 4211   5.056   5.518   3.180 -0.0546  0.2572 -0.0350
  843ODT      D 4212   4.916   5.681   3.582  0.1816  0.2629 -0.0680
  843ODT      C 4213   4.707   5.550   3.968 -0.2465 -0.1592 -0.3195
  843ODT      C 4214   4.915   5.538   4.393  0.1615 -0.1712 -0.0723
  843ODT      C 4215   5.336   5.434   4.594  0.0812 -0.0365 -0.0255
  844ODT      C 4216   2.346   0.647   4.221 -0.2684  0.3020  0.0851
  844ODT      D 4217   2.191   0.250   4.217 -0.2921  0.2140 -0.0784
  844ODT      C 4218   2.062  -0.050   4.456  0.0592 -0.2232 -0.0194
  844ODT      C 4219   2.192  -0.457   4.372 -0.0065  0.0214 -0.3213
  844ODT      C 4220   2.171  -0.971   4.174 -0.1698  0.1479 -0.2338
  845ODT      C 4221   3.168   6.553   0.974 -0.0844 -0.1956  0.1474
  845ODT      D 4222   3.616   6.628   0.973  0.0632  0.3001 -0.1220
  845ODT      C 4223   3.899   6.414   0.840  0.1641  0.2593  0.0777
  845ODT      C 4224   3.945   6.175   0.500 -0.1328  0.0441 -0.0502
  845ODT      C 4225   3.943   6.465   0.121  0.0702 -0.2517 -0.3171
  846ODT      C 4226   3.134   0.760   0.030  0.0417  0.1620  0.3556
  846ODT      D 4227   2.866   1.102   0.073  0.0067 -0.0802  0.1942
  846ODT      C 4228   2.686   1.402   0.286  0.0739  0.0573  0.1265
  846ODT      C 4229   2.879   1.651   0.551  0.2802  0.1518 -0.0126
  846ODT      C 4230   2.969   1.809   0.937 -0.0553 -0.0733 -0.2354
  847ODT      C 4231   7.897   4.762   3.427  0.1448 -0.3897  0.0889
  847ODT      D 4232   7.810   4.625   3.777  0.2821  0.1205  0.0025
  847ODT      C 4233   7.571   4.682   4.110  0.2691 -0.0698  0.0633
  847ODT      C 4234   7.537   5.093   4.268  0.1856  0.2608 -0.2351
  847ODT      C 4235   7.607   5.514   4.292  0.0818  0.3531  0.2723
  848ODT      C 4236   3.108   5.733   4.512  0.0420 -0.2848 -0.2030
  848ODT      D 4237   3.339   5.830   4.844  0.0208 -0.2337 -0.0912
  848ODT      C 4238   3.647   5.637   5.184 -0.2597  0.2240  0.4358
  848ODT      C 4239   3.988   5.324   5.187  0.1300  0.1797  0.0558
  848ODT      C 4240   4.097   5.034   4.862  0.2093 -0.1376 -0.1794
  849ODT      C 4241   0.401   6.246   7.119  0.0306 -0.0104  0.2057
  849ODT      D 4242   0.760   6.393   7.180 -0.2848  0.2773 -0.1761
  849ODT      C 4243   1.115   6.186   7.389  0.0445 -0.2251 -0.1178
  849ODT      C 4244   1.394   6.007   7.615  0.3308 -0.1324 -0.0298
  849ODT      C 4245   1.809   5.837   7.534  0.0628  0.1019 -0.0697
  850ODT      C 4246   0.762   5.205   0.252  0.2446 -0.0865  0.3210
  850ODT      D 4247   1.086   5.228   0.558 -0.0498 -0.0141 -0.0666
  850ODT      C 4248   1.330   4.994   0.745 -0.0160 -0.0795  0.0514
  850ODT      C 4249   1.649   4.936   0.671 -0.2977  0.1196 -0.2069
  850ODT      C 4250   1.888   4.763   0.327  0.2392 -0.3570 -0.1207
  851ODT      C 4251   5.466   1.441   2.337 -0.1757  0.0080 -0.0362
  851ODT      D 4252   5.249   1.077   2.557 -0.1561 -0.0207 -0.4704
  851ODT      C 4253   5.475   0.595   2.554  0.1887 -0.0121 -0.1752
  851ODT      C 4254   5.775   0.261   2.727  0.3601 -0.0228  0.1734
  851ODT      C 4255   6.139   0.124   2.514  0.1064  0.2877 -0.0248
  852ODT      C 4256   0.199   0.392   1.795 -0.3194 -0.1193  0.1737
  852ODT      D 4257   0.218   0.614   2.161  0.1762  0.0663 -0.0742
  852ODT      C 4258   0.253   0.536   2.653  0.0333  0.0490  0.0305
  852ODT      C 4259  -0.052   0.274   3.038  0.2192 -0.0221 -0.2995
  852ODT      C 4260  -0.148   0.133   3.499 -0.2571 -0.0430 -0.1534
  853ODT      C 4261   8.108   2.769   2.658 -0.0224 -0.1384  0.0334
  853ODT      D 4262   8.136   2.376   2.752 -0.1217  0.2116 -0.0211
  853ODT      C 4263   8.454   2.085   2.889 -0.2783  0.0309 -0.1097
  853ODT      C 4264   8.823   2.137   3.167  0.1267  0.0137 -0.0304
  853ODT      C 4265   9.316   2.374   3.195  0.0056 -0.0986 -0.1000
  854ODT      C 4266   4.463   3.448   2.974 -0.1088 -0.1609 -0.0006
  854ODT      D 4267   4.651   2.980   2.757  0.0428 -0.1268 -0.2087
  854ODT      C 4268   4.978   2.667   2.857  0.3871  0.1127  0.3184
  854ODT      C 4269   5.145   2.316   2.924 -0.3199 -0.1833 -0.3469
  854ODT      C 4270   5.476   2.053   2.965 -0.1120 -0.1557  0.1566
  855ODT      C 4271   2.383   6.590   0.588  0.1572  0.1332 -0.2997
  855ODT      D 4272   1.969   6.742   0.722  0.1583 -0.1237  0.2642
  855ODT      C 4273   1.534   6.738   0.864 -0.0112  0.2062  0.0616
  855ODT      C 4274   1.209   6.892   1.216 -0.1068 -0.4068 -0.5855
  855ODT      C 4275   1.095   7.190   1.631 -0.3781  0.0245 -0.1742
  856ODT      C 4276   4.674   0.323   4.195 -0.0786  0.0433  0.0741
  856ODT      D 4277   4.703   0.231   3.731  0.1584 -0.0263  0.1704
  856ODT      C 4278   4.488   0.141   3.415 -0.2335 -0.5299  0.3664
  856ODT      C 4279   4.309  -0.040   3.032  0.3315  0.3253  0.3584
  856ODT      C 4280   3.940   0.033   2.733 -0.0912 -0.1615 -0.0596
  857ODT      C 4281   6.944   5.053   2.097 -0.1695  0.1844 -0.1663
  857ODT      D 4282   6.877   5.399   2.196  0.0984 -0.0081 -0.1582
  857ODT      C 4283   6.946   5.543   2.639 -0.2831  0.0520 -0.1036
  857ODT      C 4284   7.251   5.680   2.979  0.0146  0.5460 -0.3210
  857ODT      C 4285   7.200   5.988   3.359 -0.1264  0.0981 -0.0650
  858ODT      C 4286   0.213   0.780   6.148  0.0257 -0.1229  0.1152
  858ODT      D 4287  -0.043   0.540   6.436 -0.2701 -0.2557  0.1996
  858ODT      C 4288  -0.189   0.199   6.505 -0.2783  0.0125 -0.0566
  858ODT      C 4289  -0.024  -0.243   6.322  0.2754  0.0995  0.1251
  858ODT      C 4290   0.280  -0.534   6.190  0.4039  0.2848 -0.1649
  859ODT      C 4291   3.031   6.054   2.524 -0.1717 -0.3522  0.0621
  859ODT      D 4292   2.658   6.011   2.258  0.0051  0.2879 -0.3538
  859ODT      C 4293   2.410   6.227   2.112 -0.0465 -0.0368 -0.1386
  859ODT      C 4294   2.234   6.546   2.191  0.0755  0.1421  0.1128
  859ODT      C 4295   2.299   6.942   2.054 -0.0527  0.0351  0.0404
  860ODT      C 4296   1.909   4.504   4.564 -0.2776  0.0977 -0.1571
  860ODT      D 4297   1.890   4.291   4.886  0.0092  0.1972 -0.1648
  860ODT      C 4298   1.940   4.361   5.248  0.3190  0.0642  0.2623
  860ODT      C 4299   1.783   4.680   5.458 -0.4030 -0.4296  0.3098
  860ODT      C 4300   1.705   5.027   5.767  0.2867 -0.2342  0.2101
  861ODT      C 4301   7.017   1.153   6.301 -0.0515 -0.0042 -0.0159
  861ODT      D 4302   7.051   1.577   6.526  0.0821 -0.2322 -0.2243
  861ODT      C 4303   7.093   1.795   6.834 -0.0317 -0.3464 -0.2931
  861ODT      C 4304   7.263   1.776   7.266  0.2033  0.3808  0.0550
  861ODT      C 4305   7.369   1.643   7.701  0.2998 -0.1278  0.1909
  862ODT      C 4306   4.209   1.897   2.692 -0.0367 -0.2922 -0.0674
  862ODT      D 4307   4.424   1.602   2.808 -0.3891  0.0863 -0.1461
  862ODT      C 4308   4.638   1.531   3.255  0.2194  0.0710  0.1844
  862ODT      C 4309   4.389   1.604   3.664  0.1391 -0.4940  0.0489
  862ODT      C 4310   3.907   1.692   3.872 -0.0955  0.2608 -0.3545
  863ODT      C 4311   3.591   3.739   4.834 -0.1524 -0.1008  0.1262
  863ODT      D 4312   3.686   3.711   4.342  0.0963  0.0430 -0.1606
  863ODT      C 4313   3.758   3.593   3.934 -0.0694 -0.0888  0.1662
  863ODT      C 4314   3.915   3.293   3.710  0.3690 -0.2195 -0.0690
  863ODT      C 4315   3.765   2.885   3.606 -0.2028  0.0933 -0.0063
  864ODT      C 4316   6.551   0.502   5.976 -0.0247  0.1968  0.1905
  864ODT      D 4317   6.468   0.706   5.520 -0.1050 -0.0982  0.0126
  864ODT      C 4318   6.371   1.022   5.157  0.0145  0.1003 -0.0473
  864ODT      C 4319   6.112   1.288   5.030 -0.2197  0.0399  0.1773
  864ODT      C 4320   6.363   1.566   4.733 -0.3718  0.0498 -0.0506
  865ODT      C 4321   0.940   5.717   0.477  0.0440  0.2885  0.0161
  865ODT      D 4322   1.144   5.553   0.893 -0.6090 -0.0315  0.3652
  865ODT      C 4323   1.231   5.691   1.297 -0.0957  0.1236 -0.0840
  865ODT      C 4324   1.332   5.922   1.642  0.1750 -0.0446  0.1932
  865ODT      C 4325   1.737   5.754   1.872 -0.0656 -0.0304  0.1355
  866ODT      C 4326   8.502   7.152   5.084 -0.0292  0.0635  0.1058
  866ODT      D 4327   8.484   7.533   4.932 -0.0639 -0.0114 -0.0680
  866ODT      C 4328   8.541   7.665   4.504  0.0774 -0.2894  0.2104
  866ODT      C 4329   8.638   7.775   4.139  0.0182 -0.0847  0.2552
  866ODT      C 4330   9.028   7.820   4.070  0.0787  0.1931 -0.0801
  867ODT      C 4331   6.981   6.950   2.373 -0.2688 -0.2440  0.0156
  867ODT      D 4332   6.837   6.617   2.118 -0.0807  0.0247  0.2364
  867ODT      C 4333   6.756   6.386   1.801  0.0689 -0.0227  0.2571
  867ODT      C 4334   6.489   6.152   1.592 -0.2640  0.1235  0.1437
  867ODT      C 4335   6.353   5.964   1.163  0.1652  0.1145  0.0620
  868ODT      C 4336   6.259   5.654   4.458 -0.0988 -0.0000 -0.1259
  868ODT      D 4337   6.685   5.789   4.688 -0.0267  0.2732 -0.0013
  868ODT      C 4338   6.958   6.014   4.976  0.3123  0.1780  0.2243
  868ODT      C 4339   7.051   6.063   5.348 -0.1867  0.1271 -0.2238
  868ODT      C 4340   6.967   6.298   5.610 -0.0768 -0.4966  0.0638
  869ODT      C 4341   2.753   5.463   3.421  0.1288 -0.1402  0.0375
  869ODT      D 4342   2.569   5.859   3.333  0.1892 -0.0062 -0.1770
  869ODT      C 4343   2.632   6.213   3.160  0.1790  0.3304 -0.0388
  869ODT      C 4344   2.348   6.509   3.104  0.1583 -0.0745 -0.1125
  869ODT      C 4345   2.028   6.629   3.318 -0.0161 -0.1480  0.1317
  870ODT      C 4346   7.655   1.033   1.376 -0.2359 -0.0687  0.0216
  870ODT      D 4347   7.742   0.699   1.667 -0.0275 -0.0988 -0.4560
  870ODT      C 4348   7.768   0.232   1.731  0.2439  0.0704  0.1390
  870ODT      C 4349   7.955  -0.090   1.428  0.3162 -0.1109  0.1092
  870ODT      C 4350   8.155  -0.263   1.212  0.0073  0.0344 -0.0437
  871ODT      C 4351   4.454   4.810   3.066 -0.2243 -0.0586 -0.4405
  871ODT      D 4352   4.398   4.501   3.438  0.0658  0.1310 -0.3917
  871ODT      C 4353   4.233   4.259   3.730  0.1091 -0.0172 -0.2369
  871ODT      C 4354   3.857   4.115   4.019  0.3310 -0.0776 -0.0064
  871ODT      C 4355   3.515   4.184   4.003  0.2258 -0.2594 -0.0711
  872ODT      C 4356   4.379   1.118   3.447  0.0911  0.0653  0.2856
  872ODT      D 4357   4.102   1.053   3.078  0.0100  0.1574 -0.4199
  872ODT      C 4358   3.825   0.813   2.935 -0.5465 -0.0585  0.1476
  872ODT      C 4359   3.530   0.631   2.661 -0.1070  0.3280  0.0902
  872ODT      C 4360   3.257   0.406   2.345 -0.0063 -0.1935  0.3540
  873ODT      C 4361   4.024   6.546   2.284 -0.2616  0.1352  0.1808
  873ODT      D 4362   3.636   6.444   2.300 -0.1540  0.1754 -0.1036
  873ODT      C 4363   3.138   6.353   2.132 -0.1524  0.4046  0.1956
  873ODT      C 4364   2.880   6.150   1.819  0.2289  0.0099 -0.1308
  873ODT      C 4365   2.568   6.175   1.490  0.0022 -0.0959 -0.0410
  874ODT      C 4366   3.595   4.727   2.835  0.2152 -0.0038 -0.1791
  874ODT      D 4367   3.647   4.980   3.220  0.1415 -0.1032  0.2905
  874ODT      C 4368   3.754   5.343   3.413 -0.1653 -0.2322  0.1192
  874ODT      C 4369   3.664   5.506   3.764 -0.2485 -0.0075 -0.3593
  874ODT      C 4370   3.610   5.870   3.927 -0.1396 -0.0587 -0.1223
  875ODT      C 4371   6.198   4.398   6.533  0.1266  0.1228 -0.0964
  875ODT      D 4372   6.628   4.294   6.539 -0.0984  0.1308  0.3755
  875ODT      C 4373   7.031   4.184   6.700  0.4262  0.2942 -0.1277
  875ODT      C 4374   7.401   4.428   6.704 -0.2013  0.1632  0.0758
  875ODT      C 4375   7.564   4.560   6.411 -0.3159 -0.4545  0.0595
  876ODT      C 4376   5.734   3.562   2.194  0.1388  0.3037  0.0464
  876ODT      D 4377   5.790   3.405   1.762  0.2733  0.1520  0.0849
  876ODT      C 4378   5.561   3.080   1.628  0.0258  0.0605 -0.0430
  876ODT      C 4379   5.350   2.713   1.411  0.0153 -0.0761  0.4109
  876ODT      C 4380   5.179   2.288   1.518  0.1814  0.0636 -0.0219
  877ODT      C 4381   8.219   0.306   1.041  0.0487  0.2798 -0.1216
  877ODT      D 4382   8.075   0.439   1.403  0.0613 -0.2481 -0.0744
  877ODT      C 4383   8.235   0.591   1.864 -0.0075  0.0841 -0.0454
  877ODT      C 4384   8.590   0.570   2.171 -0.1040  0.2018  0.0429
  877ODT      C 4385   8.721   0.141   2.264 -0.0687 -0.0866  0.3887
  878ODT      C 4386   1.714   1.843   1.613  0.1572  0.1902  0.1126
  878ODT      D 4387   2.065   1.740   1.722  0.0695  0.1585 -0.0248
  878ODT      C 4388   2.377   1.704   1.422  0.1309 -0.0738 -0.0313
  878ODT      C 4389   2.563   2.043   1.156  0.1349  0.2981  0.0972
  878ODT      C 4390   2.580   2.036   0.723 -0.1723 -0.2008  0.1296
  879ODT      C 4391   3.159   1.458   1.650 -0.1734 -0.3767  0.1494
  879ODT      D 4392   3.286   1.581   1.270  0.1517 -0.1367 -0.0847
  879ODT      C 4393   3.625   1.546   1.070  0.0984  0.0710  0.0716
  879ODT      C 4394   3.994   1.378   0.895  0.0484 -0.1355 -0.0577
  879ODT      C 4395   4.419   1.237   0.944  0.1778  0.0694 -0.0185
  880ODT      C 4396   3.967   3.809   1.182  0.1374  0.0042 -0.0267
  880ODT      D 4397   3.572   3.604   1.064  0.2175  0.4244 -0.0404
  880ODT      C 4398   3.130   3.394   0.978  0.1475  0.0706 -0.0599
  880ODT      C 4399   2.767   3.284   1.050  0.0674 -0.1165  0.0016
  880ODT      C 4400   2.355   3.416   1.044 -0.0454 -0.0097 -0.1060
  881ODT      C 4401   4.085   4.692   2.743  0.3892  0.3748  0.2323
  881ODT      D 4402   4.257   4.280   2.804  0.1543 -0.5772  0.0059
  881ODT      C 4403   4.337   3.932   2.729 -0.0870  0.1290 -0.1757
  881ODT      C 4404   4.578   3.740   2.449 -0.0030  0.0351 -0.0718
  881ODT      C 4405   4.627   3.306   2.422 -0.1484 -0.0180 -0.1324
  882ODT      C 4406   3.446   1.771   3.948 -0.0603 -0.1735 -0.0500
  882ODT      D 4407   3.695   2.042   4.162 -0.1239 -0.0427 -0.2693
  882ODT      C 4408   3.662   2.239   4.546  0.0274 -0.0071  0.1093
  882ODT      C 4409   3.619   2.599   4.918  0.3529  0.3056  0.1057
  882ODT      C 4410   3.908   2.946   4.960  0.2351  0.0171  0.1380
  883ODT      C 4411   9.121   6.019   3.381 -0.0976 -0.0146 -0.0709
  883ODT      D 4412   8.835   5.938   3.511 -0.1049 -0.2456 -0.0734
  883ODT      C 4413   8.594   5.688   3.879  0.0380 -0.0505 -0.1632
  883ODT      C 4414   8.519   5.650   4.249 -0.1347 -0.1979  0.0243
  883ODT      C 4415   8.384   5.938   4.463 -0.2215 -0.2422 -0.1292
  884ODT      C 4416   5.574   2.958   2.179  0.0293  0.4159  0.4619
  884ODT      D 4417   5.482   2.848   2.564  0.0805 -0.0394 -0.3190
  884ODT      C 4418   5.630   2.515   2.839  0.0042  0.0643 -0.0455
  884ODT      C 4419   5.932   2.275   3.160  0.2753 -0.0387 -0.1017
  884ODT      C 4420   5.848   2.097   3.420  0.3298  0.1954  0.1631
  885ODT      C 4421   7.491   3.304   6.967 -0.2778 -0.1515  0.0229
  885ODT      D 4422   7.191   3.474   7.223  0.0136  0.2822  0.1222
  885ODT      C 4423   6.777   3.407   7.342 -0.2730 -0.1546  0.3577
  885ODT      C 4424   6.310   3.389   7.476 -0.1000  0.0470 -0.2262
  885ODT      C 4425   6.080   2.955   7.620  0.0125 -0.1857 -0.0912
  886ODT      C 4426   3.838   0.545   0.207 -0.2910  0.2321  0.2196
  886ODT      D 4427   3.518   0.286   0.145 -0.3019 -0.1303  0.3548
  886ODT      C 4428   3.151   0.096   0.163 -0.1268 -0.0041  0.0806
  886ODT      C 4429   2.886   0.052   0.398 -0.0312 -0.2857 -0.1375
  886ODT      C 4430   2.812   0.101   0.765  0.0979 -0.0603 -0.3278
  887ODT      C 4431   3.659   7.035   2.326  0.0508  0.3064  0.2440
  887ODT      D 4432   3.793   7.502   2.256  0.0521  0.1236 -0.0866
  887ODT      C 4433   3.834   8.010   2.288  0.2360  0.2449  0.3525
  887ODT      C 4434   3.858   8.394   2.472  0.3807 -0.0641  0.2308
  887ODT      C 4435   3.973   8.639   2.804 -0.1001  0.0246  0.3408
  888ODT      C 4436   1.336   5.841   2.189 -0.0500 -0.3897  0.0177
  888ODT      D 4437   1.495   6.135   2.485  0.3062  0.3087 -0.2115
  888ODT      C 4438   1.783   6.340   2.848  0.3072 -0.3035  0.4651
  888ODT      C 4439   2.167   6.665   2.655 -0.1846  0.2790 -0.0567
  888ODT      C 4440   2.424   6.980   2.503 -0.1092  0.5282 -0.2384
  889ODT      C 4441   4.276   2.483   3.544 -0.3532 -0.1377 -0.1083
  889ODT      D 4442   4.681   2.837   3.594 -0.1220  0.0464  0.1587
  889ODT      C 4443   4.982   3.063   3.906 -0.0552 -0.0959 -0.3050
  889ODT      C 4444   4.901   3.577   4.031 -0.0289  0.1172 -0.0847
  889ODT      C 4445   4.646   3.999   4.005  0.4803 -0.0850 -0.0418
  890ODT      C 4446   4.611   5.469   1.366  0.2565  0.2942  0.0910
  890ODT      D 4447   4.608   5.579   1.734 -0.0302 -0.1225 -0.2328
  890ODT      C 4448   4.294   5.740   1.959 -0.1326  0.1038 -0.1001
  890ODT      C 4449   4.252   6.071   2.207  0.0820  0.1106  0.0009
  890ODT      C 4450   3.975   6.082   2.546  0.0433 -0.0563 -0.1015
  891ODT      C 4451   5.397   0.102   4.760  0.0730 -0.0974 -0.1128
  891ODT      D 4452   5.063   0.480   4.664  0.0222  0.1335  0.0100
  891ODT      C 4453   4.840   0.752   4.356 -0.0762  0.1728  0.1620
  891ODT      C 4454   4.614   1.230   4.475  0.0533 -0.0396 -0.1082
  891ODT      C 4455   4.272   1.234   4.761  0.0860 -0.2080  0.1127
  892ODT      C 4456   2.535   1.801   3.239 -0.1576  0.0540  0.0532
  892ODT      D 4457   2.720   2.260   3.269 -0.2632  0.1751 -0.0789
  892ODT      C 4458   2.876   2.567   3.435  0.1971 -0.1995  0.1324
  892ODT      C 4459   3.101   2.895   3.603  0.0165  0.2534  0.2273
  892ODT      C 4460   3.019   3.365   3.619  0.1730  0.5634 -0.0008
  893ODT      C 4461   8.512   3.963   3.364  0.0806  0.1716  0.0786
  893ODT      D 4462   8.586   3.709   3.110  0.0396 -0.1928 -0.1351
  893ODT      C 4463   8.876   3.490   2.863 -0.2224  0.0972 -0.2644
  893ODT      C 4464   9.193   3.356   2.593 -0.1109 -0.0998  0.0530
  893ODT      C 4465   9.668   3.353   2.659  0.0707  0.1609  0.1355
  894ODT      C 4466   4.077   4.505   1.299  0.2468 -0.1868 -0.2219
  894ODT      D 4467   4.217   4.964   1.320 -0.1361 -0.2425  0.1103
  894ODT      C 4468   4.210   5.239   1.667  0.0785 -0.0529  0.1537
  894ODT      C 4469   3.933   5.347   2.038 -0.0009  0.1262 -0.0855
  894ODT      C 4470   3.730   5.528   2.308 -0.1682 -0.0062 -0.4565
  895ODT      C 4471   0.205   6.308   4.199  0.0224  0.0387 -0.1275
  895ODT      D 4472   0.389   6.568   4.414  0.0362 -0.1145  0.1933
  895ODT      C 4473   0.305   6.972   4.703  0.2646 -0.1448  0.0089
  895ODT      C 4474   0.267   7.487   4.848  0.2880 -0.0328 -0.0988
  895ODT      C 4475   0.354   7.917   4.824 -0.0743 -0.2039  0.1001
  896ODT      C 4476   3.105   2.500   2.784 -0.0910 -0.1070 -0.2007
  896ODT      D 4477   3.435   2.238   2.896  0.0789 -0.0939 -0.0074
  896ODT      C 4478   3.878   2.142   2.912  0.2816  0.2074 -0.1707
  896ODT      C 4479   4.294   2.235   3.067  0.2068 -0.0411 -0.0330
  896ODT      C 4480   4.695   2.289   3.068  0.4666  0.0786 -0.2102
  897ODT      C 4481   4.366   5.875   2.740 -0.0321  0.1397 -0.1088
  897ODT      D 4482   4.791   5.877   2.933 -0.1469 -0.0230 -0.0905
  897ODT      C 4483   5.093   6.095   3.166  0.0622  0.1032 -0.4253
  897ODT      C 4484   5.372   5.874   3.491 -0.0270 -0.1428  0.1233
  897ODT      C 4485   5.715   5.618   3.698  0.1087 -0.3220  0.0753
  898ODT      C 4486   1.953   0.483   4.558 -0.1920  0.1900 -0.2076
  898ODT      D 4487   1.792   0.885   4.785  0.0712  0.1199 -0.3455
  898ODT      C 4488   1.793   1.346   4.926 -0.0853  0.1681 -0.2893
  898ODT      C 4489   1.713   1.744   4.707  0.2408  0.1524  0.2242
  898ODT      C 4490   1.608   1.881   4.322 -0.0801  0.0624  0.4827
  899ODT      C 4491   9.110   6.227   0.687  0.2221  0.1161  0.3046
  899ODT      D 4492   9.165   5.970   0.948 -0.0752 -0.1738  0.2308
  899ODT      C 4493   9.192   5.572   1.150  0.0400 -0.1721 -0.3086
  899ODT      C 4494   9.244   5.197   1.314 -0.3336 -0.1462 -0.3678
  899ODT      C 4495   9.350   4.974   1.698  0.0694 -0.2158  0.0680
  900ODT      C 4496   5.914   6.707   4.408  0.0455 -0.1090  0.2043
  900ODT      D 4497   5.768   6.357   4.210 -0.0901 -0.2049 -0.3983
  900ODT      C 4498   5.453   6.115   4.032 -0.0033  0.0284  0.1456
  900ODT      C 4499   5.185   5.780   4.026 -0.0539  0.3231  0.2471
  900ODT      C 4500   5.239   5.366   4.146  0.0873  0.2294  0.0583
   9.50658   7.19417   7.19417
