Split from step5_input.gro (molecule=POPC)
134
    1POPC     N    1   3.415   2.120   6.779
    1POPC   C12    2   3.304   2.218   6.817
    1POPC  H12A    3   3.348   2.315   6.830
    1POPC  H12B    4   3.271   2.188   6.915
    1POPC   C13    5   3.524   2.131   6.880
    1POPC  H13A    6   3.487   2.105   6.979
    1POPC  H13B    7   3.605   2.062   6.858
    1POPC  H13C    8   3.567   2.231   6.882
    1POPC   C14    9   3.362   1.980   6.782
    1POPC  H14A   10   3.430   1.910   6.738
    1POPC  H14B   11   3.338   1.948   6.883
    1POPC  H14C   12   3.266   1.976   6.730
    1POPC   C15   13   3.472   2.147   6.644
    1POPC  H15A   14   3.491   2.254   6.631
    1POPC  H15B   15   3.401   2.112   6.569
    1POPC  H15C   16   3.567   2.098   6.631
    1POPC   C11   17   3.175   2.230   6.731
    1POPC  H11A   18   3.196   2.274   6.631
    1POPC  H11B   19   3.107   2.300   6.785
    1POPC     P   20   2.967   2.091   6.654
    1POPC   O13   21   2.899   2.220   6.664
    1POPC   O14   22   2.900   1.975   6.716
    1POPC   O12   23   3.114   2.102   6.716
    1POPC   O11   24   3.003   2.065   6.500
    1POPC    C1   25   3.084   1.956   6.455
    1POPC    HA   26   3.020   1.867   6.436
    1POPC    HB   27   3.158   1.928   6.533
    1POPC    C2   28   3.169   1.985   6.327
    1POPC    HS   29   3.238   1.900   6.311
    1POPC   O21   30   3.245   2.106   6.355
    1POPC   C21   31   3.341   2.144   6.274
    1POPC   O22   32   3.378   2.083   6.176
    1POPC   C22   33   3.395   2.282   6.323
    1POPC   H2R   34   3.437   2.271   6.422
    1POPC   H2S   35   3.311   2.345   6.354
    1POPC    C3   36   3.079   1.997   6.199
    1POPC    HX   37   3.021   1.902   6.189
    1POPC    HY   38   3.141   2.009   6.107
    1POPC   O31   39   2.987   2.104   6.215
    1POPC   C31   40   2.903   2.131   6.119
    1POPC   O32   41   2.895   2.067   6.014
    1POPC   C32   42   2.813   2.252   6.170
    1POPC   H2X   43   2.839   2.275   6.274
    1POPC   H2Y   44   2.711   2.208   6.178
    1POPC   C23   45   3.496   2.360   6.227
    1POPC   H3R   46   3.568   2.286   6.188
    1POPC   H3S   47   3.530   2.452   6.279
    1POPC   C24   48   3.435   2.421   6.104
    1POPC   H4R   49   3.373   2.501   6.151
    1POPC   H4S   50   3.393   2.326   6.059
    1POPC   C25   51   3.465   2.505   5.985
    1POPC   H5R   52   3.508   2.604   6.012
    1POPC   H5S   53   3.384   2.522   5.908
    1POPC   C26   54   3.540   2.409   5.913
    1POPC   H6R   55   3.605   2.365   5.991
    1POPC   H6S   56   3.594   2.481   5.861
    1POPC   C27   57   3.467   2.305   5.829
    1POPC   H7R   58   3.397   2.349   5.755
    1POPC   H7S   59   3.413   2.231   5.894
    1POPC   C28   60   3.558   2.206   5.768
    1POPC   H8R   61   3.603   2.150   5.847
    1POPC   H8S   62   3.654   2.208   5.723
    1POPC   C29   63   3.498   2.145   5.659
    1POPC   H91   64   3.464   2.048   5.695
    1POPC  C210   65   3.538   2.172   5.534
    1POPC  H101   66   3.624   2.105   5.525
    1POPC  C211   67   3.624   2.248   5.436
    1POPC  H11R   68   3.693   2.192   5.367
    1POPC  H11S   69   3.701   2.307   5.468
    1POPC  C212   70   3.508   2.302   5.362
    1POPC  H12R   71   3.414   2.323   5.420
    1POPC  H12S   72   3.471   2.236   5.286
    1POPC  C213   73   3.546   2.400   5.261
    1POPC  H13R   74   3.615   2.362   5.183
    1POPC  H13S   75   3.579   2.482   5.324
    1POPC  C214   76   3.425   2.448   5.195
    1POPC  H14R   77   3.439   2.549   5.161
    1POPC  H14S   78   3.361   2.427   5.279
    1POPC  C215   79   3.354   2.370   5.097
    1POPC  H15R   80   3.294   2.288   5.148
    1POPC  H15S   81   3.428   2.348   5.018
    1POPC  C216   82   3.247   2.423   5.020
    1POPC  H16R   83   3.284   2.513   4.963
    1POPC  H16S   84   3.174   2.455   5.094
    1POPC  C217   85   3.200   2.308   4.926
    1POPC  H17R   86   3.273   2.310   4.848
    1POPC  H17S   87   3.131   2.334   4.850
    1POPC  C218   88   3.097   2.199   4.959
    1POPC  H18R   89   3.057   2.151   4.869
    1POPC  H18S   90   3.001   2.230   5.004
    1POPC  H18T   91   3.137   2.132   5.028
    1POPC   C33   92   2.799   2.392   6.086
    1POPC   H3X   93   2.703   2.439   6.092
    1POPC   H3Y   94   2.769   2.306   6.023
    1POPC   C34   95   2.913   2.510   6.025
    1POPC   H4X   96   2.946   2.412   6.045
    1POPC   H4Y   97   2.963   2.559   6.105
    1POPC   C35   98   2.975   2.575   5.857
    1POPC   H5X   99   3.036   2.658   5.897
    1POPC   H5Y  100   2.894   2.603   5.794
    1POPC   C36  101   3.092   2.537   5.728
    1POPC   H6X  102   3.144   2.436   5.723
    1POPC   H6Y  103   3.199   2.564   5.738
    1POPC   C37  104   3.077   2.473   5.599
    1POPC   H7X  105   3.174   2.454   5.544
    1POPC   H7Y  106   3.031   2.575   5.595
    1POPC   C38  107   2.968   2.397   5.545
    1POPC   H8X  108   2.966   2.431   5.445
    1POPC   H8Y  109   2.884   2.457   5.588
    1POPC   C39  110   2.970   2.240   5.546
    1POPC   H9X  111   2.880   2.204   5.497
    1POPC   H9Y  112   2.944   2.189   5.640
    1POPC  C310  113   3.085   2.167   5.489
    1POPC  H10X  114   3.169   2.177   5.561
    1POPC  H10Y  115   3.110   2.221   5.396
    1POPC  C311  116   3.046   2.020   5.465
    1POPC  H11X  117   2.941   2.006   5.431
    1POPC  H11Y  118   3.051   1.968   5.563
    1POPC  C312  119   3.140   1.956   5.364
    1POPC  H12X  120   3.134   1.846   5.373
    1POPC  H12Y  121   3.242   1.990   5.394
    1POPC  C313  122   3.110   1.995   5.219
    1POPC  H13X  123   3.152   2.099   5.211
    1POPC  H13Y  124   3.001   2.001   5.200
    1POPC  C314  125   3.164   1.899   5.106
    1POPC  H14X  126   3.168   1.951   5.007
    1POPC  H14Y  127   3.114   1.804   5.098
    1POPC  C315  128   3.304   1.858   5.133
    1POPC  H15X  129   3.326   1.820   5.235
    1POPC  H15Y  130   3.314   1.967   5.140
    1POPC  C316  131   3.407   1.810   5.027
    1POPC  H16X  132   3.382   1.848   4.927
    1POPC  H16Y  133   3.421   1.703   5.032
    1POPC  H16Z  134   3.510   1.851   5.043
  10.00000  10.00000  10.00000
