Split from step5_input.gro (molecule=DPPS)
123
    1DPPS     N    1   2.874   0.733   2.898
    1DPPS   HN1    2   2.815   0.666   2.950
    1DPPS   HN2    3   2.959   0.692   2.854
    1DPPS   HN3    4   2.902   0.810   2.962
    1DPPS   C12    5   2.786   0.795   2.794
    1DPPS  H12A    6   2.734   0.716   2.742
    1DPPS   C13    7   2.864   0.877   2.691
    1DPPS  O13A    8   2.988   0.890   2.710
    1DPPS  O13B    9   2.802   0.928   2.595
    1DPPS   C11   10   2.684   0.886   2.867
    1DPPS  H11A   11   2.609   0.920   2.791
    1DPPS  H11B   12   2.735   0.978   2.906
    1DPPS     P   13   2.555   0.872   3.101
    1DPPS   O13   14   2.452   0.777   3.146
    1DPPS   O14   15   2.516   1.012   3.073
    1DPPS   O12   16   2.622   0.810   2.971
    1DPPS   O11   17   2.677   0.870   3.203
    1DPPS    C1   18   2.755   0.755   3.239
    1DPPS    HA   19   2.862   0.783   3.234
    1DPPS    HB   20   2.738   0.672   3.168
    1DPPS    C2   21   2.727   0.694   3.383
    1DPPS    HS   22   2.745   0.584   3.373
    1DPPS   O21   23   2.591   0.717   3.424
    1DPPS   C21   24   2.554   0.643   3.526
    1DPPS   O22   25   2.622   0.559   3.582
    1DPPS   C22   26   2.410   0.676   3.568
    1DPPS   H2R   27   2.346   0.605   3.510
    1DPPS   H2S   28   2.385   0.779   3.538
    1DPPS    C3   29   2.825   0.749   3.493
    1DPPS    HX   30   2.930   0.739   3.459
    1DPPS    HY   31   2.815   0.686   3.585
    1DPPS   O31   32   2.794   0.887   3.518
    1DPPS   C31   33   2.819   0.937   3.636
    1DPPS   O32   34   2.875   0.881   3.728
    1DPPS   C32   35   2.768   1.082   3.634
    1DPPS   H2X   36   2.667   1.081   3.587
    1DPPS   H2Y   37   2.836   1.139   3.568
    1DPPS   C23   38   2.388   0.653   3.719
    1DPPS   H3R   39   2.439   0.559   3.750
    1DPPS   H3S   40   2.280   0.637   3.739
    1DPPS   C24   41   2.438   0.773   3.804
    1DPPS   H4R   42   2.403   0.868   3.760
    1DPPS   H4S   43   2.549   0.771   3.803
    1DPPS   C25   44   2.393   0.774   3.950
    1DPPS   H5R   45   2.284   0.795   3.958
    1DPPS   H5S   46   2.450   0.846   4.012
    1DPPS   C26   47   2.414   0.639   4.010
    1DPPS   H6R   48   2.342   0.580   3.950
    1DPPS   H6S   49   2.380   0.645   4.116
    1DPPS   C27   50   2.555   0.579   4.001
    1DPPS   H7R   51   2.594   0.578   3.898
    1DPPS   H7S   52   2.573   0.472   4.022
    1DPPS   C28   53   2.636   0.634   4.112
    1DPPS   H8R   54   2.579   0.639   4.208
    1DPPS   H8S   55   2.664   0.737   4.081
    1DPPS   C29   56   2.753   0.545   4.137
    1DPPS   H9R   57   2.812   0.530   4.044
    1DPPS   H9S   58   2.726   0.444   4.175
    1DPPS  C210   59   2.833   0.618   4.239
    1DPPS  H10R   60   2.899   0.537   4.260
    1DPPS  H10S   61   2.781   0.651   4.331
    1DPPS  C211   62   2.927   0.717   4.180
    1DPPS  H11R   63   2.875   0.806   4.140
    1DPPS  H11S   64   2.974   0.661   4.095
    1DPPS  C212   65   3.038   0.761   4.275
    1DPPS  H12R   66   3.081   0.849   4.223
    1DPPS  H12S   67   3.111   0.678   4.282
    1DPPS  C213   68   3.004   0.821   4.409
    1DPPS  H13R   69   2.923   0.763   4.457
    1DPPS  H13S   70   2.958   0.919   4.388
    1DPPS  C214   71   3.126   0.846   4.501
    1DPPS  H14R   72   3.201   0.912   4.453
    1DPPS  H14S   73   3.187   0.758   4.530
    1DPPS  C215   74   3.077   0.899   4.634
    1DPPS  H15R   75   3.157   0.893   4.711
    1DPPS  H15S   76   2.991   0.830   4.651
    1DPPS  C216   77   2.997   1.025   4.643
    1DPPS  H16R   78   3.063   1.111   4.622
    1DPPS  H16S   79   2.954   1.031   4.746
    1DPPS  H16T   80   2.912   1.019   4.572
    1DPPS   C33   81   2.759   1.146   3.774
    1DPPS   H3X   82   2.753   1.257   3.766
    1DPPS   H3Y   83   2.851   1.122   3.831
    1DPPS   C34   84   2.633   1.099   3.849
    1DPPS   H4X   85   2.634   0.987   3.851
    1DPPS   H4Y   86   2.542   1.130   3.792
    1DPPS   C35   87   2.620   1.151   3.994
    1DPPS   H5X   88   2.524   1.112   4.035
    1DPPS   H5Y   89   2.614   1.262   3.993
    1DPPS   C36   90   2.734   1.102   4.083
    1DPPS   H6X   91   2.832   1.131   4.039
    1DPPS   H6Y   92   2.729   0.991   4.082
    1DPPS   C37   93   2.734   1.149   4.230
    1DPPS   H7X   94   2.763   1.256   4.236
    1DPPS   H7Y   95   2.814   1.091   4.284
    1DPPS   C38   96   2.602   1.127   4.306
    1DPPS   H8X   97   2.521   1.186   4.258
    1DPPS   H8Y   98   2.615   1.168   4.409
    1DPPS   C39   99   2.560   0.979   4.313
    1DPPS   H9X  100   2.643   0.919   4.357
    1DPPS   H9Y  101   2.544   0.941   4.210
    1DPPS  C310  102   2.431   0.959   4.393
    1DPPS  H10X  103   2.389   0.858   4.370
    1DPPS  H10Y  104   2.354   1.031   4.356
    1DPPS  C311  105   2.453   0.977   4.544
    1DPPS  H11X  106   2.356   0.963   4.597
    1DPPS  H11Y  107   2.487   1.080   4.564
    1DPPS  C312  108   2.563   0.889   4.608
    1DPPS  H12X  109   2.552   0.901   4.718
    1DPPS  H12Y  110   2.666   0.912   4.575
    1DPPS  C313  111   2.544   0.745   4.572
    1DPPS  H13X  112   2.545   0.733   4.463
    1DPPS  H13Y  113   2.443   0.748   4.617
    1DPPS  C314  114   2.620   0.636   4.645
    1DPPS  H14X  115   2.717   0.620   4.596
    1DPPS  H14Y  116   2.569   0.537   4.638
    1DPPS  C315  117   2.624   0.674   4.792
    1DPPS  H15X  118   2.520   0.697   4.825
    1DPPS  H15Y  119   2.685   0.764   4.804
    1DPPS  C316  120   2.676   0.563   4.877
    1DPPS  H16X  121   2.670   0.573   4.987
    1DPPS  H16Y  122   2.770   0.518   4.842
    1DPPS  H16Z  123   2.604   0.489   4.851
  10.00000  10.00000  10.00000
