Split from step5_input.gro (molecule=LLPC)
132
    1LLPC     N    1   0.899   3.198   6.513
    1LLPC   C13    2   0.901   3.151   6.654
    1LLPC  H13A    3   0.998   3.114   6.684
    1LLPC  H13B    4   0.867   3.229   6.721
    1LLPC  H13C    5   0.830   3.068   6.663
    1LLPC   C14    6   0.763   3.254   6.492
    1LLPC  H14A    7   0.749   3.346   6.549
    1LLPC  H14B    8   0.750   3.278   6.387
    1LLPC  H14C    9   0.684   3.183   6.518
    1LLPC   C15   10   0.997   3.306   6.499
    1LLPC  H15A   11   1.099   3.268   6.514
    1LLPC  H15B   12   0.983   3.389   6.567
    1LLPC  H15C   13   0.995   3.347   6.398
    1LLPC   C12   14   0.925   3.083   6.418
    1LLPC  H12A   15   1.006   3.024   6.457
    1LLPC  H12B   16   0.952   3.119   6.320
    1LLPC   C11   17   0.807   2.988   6.394
    1LLPC  H11A   18   0.721   3.044   6.350
    1LLPC  H11B   19   0.831   2.912   6.319
    1LLPC     P   20   0.636   2.895   6.562
    1LLPC   O13   21   0.580   3.018   6.621
    1LLPC   O14   22   0.625   2.768   6.637
    1LLPC   O12   23   0.783   2.923   6.517
    1LLPC   O11   24   0.570   2.878   6.424
    1LLPC    C1   25   0.498   2.761   6.402
    1LLPC    HA   26   0.408   2.760   6.471
    1LLPC    HB   27   0.555   2.670   6.414
    1LLPC    C2   28   0.463   2.760   6.258
    1LLPC    HS   29   0.417   2.663   6.222
    1LLPC   O21   30   0.553   2.815   6.163
    1LLPC   C21   31   0.632   2.730   6.115
    1LLPC   O22   32   0.663   2.623   6.162
    1LLPC   C22   33   0.704   2.794   5.999
    1LLPC   H2R   34   0.808   2.774   6.028
    1LLPC   H2S   35   0.681   2.903   5.995
    1LLPC    C3   36   0.354   2.845   6.272
    1LLPC    HX   37   0.285   2.812   6.352
    1LLPC    HY   38   0.283   2.788   6.210
    1LLPC   O31   39   0.378   2.995   6.260
    1LLPC   C31   40   0.324   3.112   6.223
    1LLPC   O32   41   0.233   3.158   6.159
    1LLPC   C32   42   0.367   3.212   6.296
    1LLPC   H2X   43   0.272   3.273   6.312
    1LLPC   H2Y   44   0.424   3.189   6.387
    1LLPC   C23   45   0.683   2.729   5.863
    1LLPC   H3R   46   0.622   2.804   5.809
    1LLPC   H3S   47   0.636   2.628   5.863
    1LLPC   C24   48   0.789   2.746   5.761
    1LLPC   H4R   49   0.880   2.705   5.810
    1LLPC   H4S   50   0.801   2.856   5.747
    1LLPC   C25   51   0.751   2.677   5.628
    1LLPC   H5R   52   0.739   2.568   5.647
    1LLPC   H5S   53   0.832   2.691   5.554
    1LLPC   C26   54   0.624   2.716   5.553
    1LLPC   H6R   55   0.538   2.668   5.604
    1LLPC   H6S   56   0.629   2.667   5.453
    1LLPC   C27   57   0.609   2.867   5.533
    1LLPC   H7R   58   0.708   2.904   5.504
    1LLPC   H7S   59   0.586   2.916   5.629
    1LLPC   C28   60   0.506   2.903   5.424
    1LLPC   H8R   61   0.424   2.834   5.445
    1LLPC   H8S   62   0.539   2.862   5.327
    1LLPC   C29   63   0.468   3.049   5.401
    1LLPC   H9R   64   0.555   3.115   5.404
    1LLPC  C210   65   0.348   3.114   5.404
    1LLPC  H10R   66   0.339   3.222   5.416
    1LLPC  C211   67   0.217   3.053   5.433
    1LLPC  H11R   68   0.162   3.079   5.521
    1LLPC  H11S   69   0.253   2.984   5.503
    1LLPC  C212   70   0.106   3.028   5.339
    1LLPC  H12R   71   0.022   2.964   5.377
    1LLPC  C213   72   0.127   3.026   5.211
    1LLPC  H13R   73   0.104   3.131   5.215
    1LLPC  C214   74   0.242   3.043   5.116
    1LLPC  H14R   75   0.299   2.951   5.139
    1LLPC  H14S   76   0.325   3.110   5.150
    1LLPC  C215   77   0.244   3.007   4.969
    1LLPC  H15R   78   0.178   3.099   4.979
    1LLPC  C216   79   0.240   3.041   4.837
    1LLPC  H16R   80   0.333   2.981   4.814
    1LLPC  C217   81   0.266   3.165   4.750
    1LLPC  H17R   82   0.244   3.262   4.802
    1LLPC  H17S   83   0.182   3.148   4.682
    1LLPC  C218   84   0.373   3.191   4.636
    1LLPC  H18R   85   0.440   3.264   4.678
    1LLPC  H18S   86   0.359   3.264   4.556
    1LLPC  H18T   87   0.439   3.104   4.613
    1LLPC   C33   88   0.436   3.282   6.191
    1LLPC   H3X   89   0.445   3.385   6.213
    1LLPC   H3Y   90   0.391   3.299   6.099
    1LLPC   C34   91   0.560   3.211   6.175
    1LLPC   H4X   92   0.556   3.108   6.137
    1LLPC   H4Y   93   0.601   3.221   6.279
    1LLPC   C35   94   0.632   3.294   6.086
    1LLPC   H5X   95   0.734   3.256   6.105
    1LLPC   H5Y   96   0.606   3.393   6.128
    1LLPC   C36   97   0.617   3.311   5.939
    1LLPC   H6X   98   0.521   3.327   5.913
    1LLPC   H6Y   99   0.659   3.401   5.889
    1LLPC   C37  100   0.653   3.190   5.867
    1LLPC   H7X  101   0.750   3.159   5.905
    1LLPC   H7Y  102   0.567   3.127   5.903
    1LLPC   C38  103   0.644   3.223   5.720
    1LLPC   H8X  104   0.569   3.307   5.725
    1LLPC   H8Y  105   0.609   3.132   5.670
    1LLPC   C39  106   0.719   3.303   5.624
    1LLPC   H9X  107   0.654   3.360   5.559
    1LLPC  C310  108   0.849   3.306   5.591
    1LLPC  H10X  109   0.893   3.392   5.541
    1LLPC  C311  110   0.953   3.217   5.646
    1LLPC  H11X  111   0.900   3.154   5.720
    1LLPC  H11Y  112   1.008   3.233   5.740
    1LLPC  C312  113   0.895   3.125   5.546
    1LLPC  H12X  114   1.008   3.118   5.562
    1LLPC  C313  115   0.903   3.073   5.421
    1LLPC  H13X  116   0.800   3.031   5.411
    1LLPC  C314  117   0.955   3.102   5.282
    1LLPC  H14X  118   1.048   3.128   5.222
    1LLPC  H14Y  119   1.058   3.091   5.325
    1LLPC  C315  120   0.892   2.969   5.229
    1LLPC  H15X  121   0.816   2.909   5.283
    1LLPC  H15Y  122   0.953   2.880   5.207
    1LLPC  C316  123   0.846   3.001   5.094
    1LLPC  H16X  124   0.789   3.093   5.092
    1LLPC  H16Y  125   0.950   3.019   5.057
    1LLPC  C317  126   0.777   2.878   5.040
    1LLPC  H17X  127   0.866   2.819   5.045
    1LLPC  H17Y  128   0.706   2.823   5.105
    1LLPC  C318  129   0.727   2.884   4.898
    1LLPC  H18X  130   0.792   2.948   4.836
    1LLPC  H18Y  131   0.720   2.784   4.849
    1LLPC  H18Z  132   0.628   2.932   4.895
  10.00000  10.00000  10.00000
