Split from step5_input.gro (molecule=POPE)
125
    1POPE     N    1   1.897   1.201   6.838
    1POPE   HN1    2   1.806   1.151   6.827
    1POPE   HN2    3   1.971   1.136   6.875
    1POPE   HN3    4   1.884   1.281   6.902
    1POPE   C12    5   1.947   1.252   6.707
    1POPE  H12A    6   1.874   1.325   6.671
    1POPE  H12B    7   1.947   1.169   6.634
    1POPE   C11    8   2.087   1.314   6.724
    1POPE  H11A    9   2.085   1.402   6.792
    1POPE  H11B   10   2.122   1.353   6.625
    1POPE     P   11   2.245   1.108   6.686
    1POPE   O13   12   2.187   0.980   6.731
    1POPE   O14   13   2.391   1.123   6.674
    1POPE   O11   14   2.179   1.143   6.547
    1POPE   O12   15   2.179   1.221   6.778
    1POPE    C1   16   2.194   1.058   6.432
    1POPE    HA   17   2.148   0.958   6.451
    1POPE    HB   18   2.302   1.042   6.410
    1POPE    C2   19   2.127   1.124   6.308
    1POPE    HS   20   2.177   1.223   6.294
    1POPE   O21   21   1.987   1.143   6.335
    1POPE   C21   22   1.928   1.237   6.261
    1POPE   O22   23   1.974   1.289   6.161
    1POPE   C22   24   1.789   1.255   6.314
    1POPE   H2R   25   1.733   1.337   6.263
    1POPE   H2S   26   1.787   1.263   6.423
    1POPE    C3   27   2.148   1.040   6.178
    1POPE    HX   28   2.258   1.049   6.157
    1POPE    HY   29   2.095   1.087   6.092
    1POPE   O31   30   2.104   0.903   6.195
    1POPE   C31   31   2.175   0.820   6.122
    1POPE   O32   32   2.255   0.857   6.038
    1POPE   C32   33   2.151   0.678   6.171
    1POPE   H2X   34   2.059   0.633   6.129
    1POPE   H2Y   35   2.137   0.679   6.281
    1POPE   C23   36   1.725   1.130   6.274
    1POPE   H3R   37   1.624   1.137   6.318
    1POPE   H3S   38   1.772   1.039   6.319
    1POPE   C24   39   1.721   1.133   6.123
    1POPE   H4R   40   1.816   1.126   6.069
    1POPE   H4S   41   1.658   1.220   6.090
    1POPE   C25   42   1.644   1.028   6.064
    1POPE   H5R   43   1.625   1.059   5.959
    1POPE   H5S   44   1.558   1.039   6.130
    1POPE   C26   45   1.678   0.885   6.068
    1POPE   H6R   46   1.592   0.816   6.047
    1POPE   H6S   47   1.719   0.868   6.166
    1POPE   C27   48   1.788   0.882   5.979
    1POPE   H7R   49   1.862   0.947   6.035
    1POPE   H7S   50   1.739   0.919   5.886
    1POPE   C28   51   1.874   0.769   5.973
    1POPE   H8R   52   1.853   0.668   5.976
    1POPE   H8S   53   1.926   0.745   6.066
    1POPE   C29   54   1.941   0.813   5.847
    1POPE   H91   55   2.038   0.771   5.877
    1POPE  C210   56   1.900   0.816   5.712
    1POPE  H101   57   1.984   0.783   5.651
    1POPE  C211   58   1.781   0.784   5.615
    1POPE  H11R   59   1.743   0.883   5.592
    1POPE  H11S   60   1.684   0.736   5.641
    1POPE  C212   61   1.807   0.711   5.478
    1POPE  H12R   62   1.714   0.721   5.416
    1POPE  H12S   63   1.827   0.601   5.478
    1POPE  C213   64   1.918   0.789   5.412
    1POPE  H13R   65   2.015   0.750   5.451
    1POPE  H13S   66   1.908   0.895   5.442
    1POPE  C214   67   1.913   0.786   5.262
    1POPE  H14R   68   1.987   0.861   5.223
    1POPE  H14S   69   1.817   0.804   5.212
    1POPE  C215   70   1.966   0.655   5.226
    1POPE  H15R   71   1.947   0.625   5.126
    1POPE  H15S   72   1.932   0.566   5.285
    1POPE  C216   73   2.111   0.681   5.225
    1POPE  H16R   74   2.114   0.612   5.308
    1POPE  H16S   75   2.187   0.746   5.270
    1POPE  C217   76   2.158   0.653   5.091
    1POPE  H17R   77   2.113   0.559   5.052
    1POPE  H17S   78   2.264   0.645   5.112
    1POPE  C218   79   2.175   0.760   4.993
    1POPE  H18R   80   2.225   0.724   4.905
    1POPE  H18S   81   2.270   0.817   5.013
    1POPE  H18T   82   2.088   0.769   4.928
    1POPE   C33   83   2.265   0.583   6.141
    1POPE   H3X   84   2.251   0.493   6.207
    1POPE   H3Y   85   2.367   0.626   6.146
    1POPE   C34   86   2.251   0.529   6.005
    1POPE   H4X   87   2.142   0.511   5.998
    1POPE   H4Y   88   2.288   0.425   6.008
    1POPE   C35   89   2.328   0.615   5.901
    1POPE   H5X   90   2.437   0.608   5.920
    1POPE   H5Y   91   2.288   0.716   5.885
    1POPE   C36   92   2.321   0.579   5.759
    1POPE   H6X   93   2.221   0.598   5.709
    1POPE   H6Y   94   2.377   0.479   5.758
    1POPE   C37   95   2.386   0.639   5.652
    1POPE   H7X   96   2.347   0.547   5.597
    1POPE   H7Y   97   2.494   0.645   5.656
    1POPE   C38   98   2.342   0.767   5.594
    1POPE   H8X   99   2.375   0.826   5.682
    1POPE   H8Y  100   2.232   0.762   5.580
    1POPE   C39  101   2.415   0.807   5.463
    1POPE   H9X  102   2.370   0.766   5.370
    1POPE   H9Y  103   2.520   0.777   5.452
    1POPE  C310  104   2.404   0.943   5.422
    1POPE  H10X  105   2.442   0.947   5.317
    1POPE  H10Y  106   2.472   0.995   5.493
    1POPE  C311  107   2.257   0.972   5.435
    1POPE  H11X  108   2.228   0.969   5.543
    1POPE  H11Y  109   2.188   0.908   5.377
    1POPE  C312  110   2.248   1.112   5.393
    1POPE  H12X  111   2.300   1.135   5.298
    1POPE  H12Y  112   2.315   1.146   5.472
    1POPE  C313  113   2.115   1.178   5.417
    1POPE  H13X  114   2.125   1.288   5.428
    1POPE  H13Y  115   2.075   1.140   5.514
    1POPE  C314  116   2.022   1.148   5.301
    1POPE  H14X  117   1.924   1.195   5.321
    1POPE  H14Y  118   2.009   1.039   5.298
    1POPE  C315  119   2.073   1.192   5.163
    1POPE  H15X  120   2.168   1.139   5.136
    1POPE  H15Y  121   2.096   1.301   5.165
    1POPE  C316  122   1.968   1.161   5.057
    1POPE  H16X  123   1.980   1.056   5.022
    1POPE  H16Y  124   1.978   1.231   4.972
    1POPE  H16Z  125   1.867   1.170   5.101
  10.00000  10.00000  10.00000
