Split from step5_input.gro (molecule=POPI)
137
    1POPI   C12    1   2.161   0.582   7.030
    1POPI    H2    2   2.109   0.671   6.986
    1POPI    O2    3   2.284   0.558   6.961
    1POPI   HO2    4   2.289   0.465   6.937
    1POPI   C13    5   2.191   0.614   7.176
    1POPI    H3    6   2.096   0.639   7.226
    1POPI    O3    7   2.281   0.725   7.187
    1POPI   HO3    8   2.348   0.708   7.120
    1POPI   C14    9   2.253   0.491   7.242
    1POPI    H4   10   2.346   0.471   7.189
    1POPI    O4   11   2.291   0.517   7.378
    1POPI   HO4   12   2.385   0.537   7.375
    1POPI   C15   13   2.162   0.369   7.231
    1POPI    H5   14   2.066   0.395   7.280
    1POPI    O5   15   2.219   0.256   7.302
    1POPI   HO5   16   2.313   0.252   7.278
    1POPI   C16   17   2.129   0.338   7.083
    1POPI    H6   18   2.220   0.313   7.025
    1POPI    O6   19   2.042   0.224   7.075
    1POPI   HO6   20   2.046   0.191   6.985
    1POPI   C11   21   2.064   0.462   7.020
    1POPI    H1   22   1.976   0.485   7.085
    1POPI     P   23   1.864   0.461   6.839
    1POPI   O13   24   1.826   0.603   6.849
    1POPI   O14   25   1.783   0.368   6.921
    1POPI   O12   26   2.023   0.440   6.883
    1POPI   O11   27   1.865   0.414   6.689
    1POPI    C1   28   1.984   0.422   6.612
    1POPI    HA   29   2.060   0.348   6.646
    1POPI    HB   30   2.030   0.524   6.618
    1POPI    C2   31   1.952   0.389   6.466
    1POPI    HS   32   2.032   0.427   6.399
    1POPI   O21   33   1.825   0.441   6.427
    1POPI   C21   34   1.826   0.566   6.404
    1POPI   O22   35   1.922   0.641   6.407
    1POPI   C22   36   1.690   0.598   6.347
    1POPI   H2R   37   1.653   0.685   6.407
    1POPI   H2S   38   1.618   0.516   6.347
    1POPI    C3   39   1.941   0.240   6.442
    1POPI    HX   40   2.037   0.192   6.472
    1POPI    HY   41   1.857   0.197   6.502
    1POPI   O31   42   1.912   0.231   6.303
    1POPI   C31   43   1.967   0.130   6.247
    1POPI   O32   44   2.007   0.031   6.304
    1POPI   C32   45   1.948   0.137   6.098
    1POPI   H2X   46   1.854   0.184   6.066
    1POPI   H2Y   47   1.943   0.026   6.101
    1POPI   C23   48   1.706   0.634   6.199
    1POPI   H3R   49   1.791   0.707   6.202
    1POPI   H3S   50   1.609   0.673   6.172
    1POPI   C24   51   1.694   0.537   6.079
    1POPI   H4R   52   1.621   0.458   6.100
    1POPI   H4S   53   1.797   0.500   6.086
    1POPI   C25   54   1.658   0.583   5.930
    1POPI   H5R   55   1.663   0.691   5.905
    1POPI   H5S   56   1.550   0.573   5.915
    1POPI   C26   57   1.750   0.529   5.813
    1POPI   H6R   58   1.719   0.591   5.733
    1POPI   H6S   59   1.719   0.429   5.784
    1POPI   C27   60   1.906   0.530   5.807
    1POPI   H7R   61   1.936   0.515   5.914
    1POPI   H7S   62   1.967   0.613   5.769
    1POPI   C28   63   1.967   0.452   5.696
    1POPI   H8R   64   1.982   0.510   5.600
    1POPI   H8S   65   1.914   0.358   5.691
    1POPI   C29   66   2.084   0.425   5.778
    1POPI   H91   67   2.112   0.518   5.825
    1POPI  C210   68   2.182   0.350   5.777
    1POPI  H101   69   2.269   0.363   5.843
    1POPI  C211   70   2.211   0.260   5.685
    1POPI  H11R   71   2.207   0.197   5.771
    1POPI  H11S   72   2.310   0.291   5.663
    1POPI  C212   73   2.136   0.233   5.563
    1POPI  H12R   74   2.041   0.289   5.551
    1POPI  H12S   75   2.125   0.126   5.565
    1POPI  C213   76   2.215   0.252   5.439
    1POPI  H13R   77   2.312   0.201   5.429
    1POPI  H13S   78   2.256   0.343   5.472
    1POPI  C214   79   2.110   0.225   5.331
    1POPI  H14R   80   2.018   0.283   5.358
    1POPI  H14S   81   2.107   0.116   5.343
    1POPI  C215   82   2.115   0.268   5.187
    1POPI  H15R   83   2.222   0.236   5.173
    1POPI  H15S   84   2.071   0.366   5.165
    1POPI  C216   85   2.107   0.221   5.053
    1POPI  H16R   86   2.194   0.246   4.985
    1POPI  H16S   87   2.016   0.264   5.005
    1POPI  C217   88   2.137   0.088   5.060
    1POPI  H17R   89   2.071   0.055   5.143
    1POPI  H17S   90   2.243   0.066   5.093
    1POPI  C218   91   2.098   0.082   4.918
    1POPI  H18R   92   2.152   0.141   4.842
    1POPI  H18S   93   2.113  -0.024   4.899
    1POPI  H18T   94   1.999   0.119   4.896
    1POPI   C33   95   2.052   0.117   5.992
    1POPI   H3X   96   2.112   0.038   6.041
    1POPI   H3Y   97   2.099   0.217   5.991
    1POPI   C34   98   2.003   0.061   5.855
    1POPI   H4X   99   2.082   0.078   5.785
    1POPI   H4Y  100   1.921   0.123   5.814
    1POPI   C35  101   2.001  -0.092   5.823
    1POPI   H5X  102   1.962  -0.155   5.902
    1POPI   H5Y  103   2.105  -0.126   5.809
    1POPI   C36  104   1.926  -0.135   5.695
    1POPI   H6X  105   1.819  -0.113   5.691
    1POPI   H6Y  106   1.922  -0.245   5.687
    1POPI   C37  107   1.982  -0.059   5.579
    1POPI   H7X  108   2.089  -0.081   5.566
    1POPI   H7Y  109   1.959   0.049   5.592
    1POPI   C38  110   1.912  -0.084   5.454
    1POPI   H8X  111   1.903  -0.195   5.445
    1POPI   H8Y  112   1.978  -0.056   5.371
    1POPI   C39  113   1.776  -0.009   5.467
    1POPI   H9X  114   1.717  -0.044   5.552
    1POPI   H9Y  115   1.718  -0.029   5.379
    1POPI  C310  116   1.727   0.128   5.445
    1POPI  H10X  117   1.762   0.179   5.536
    1POPI  H10Y  118   1.613   0.122   5.444
    1POPI  C311  119   1.775   0.171   5.311
    1POPI  H11X  120   1.743   0.112   5.223
    1POPI  H11Y  121   1.883   0.158   5.312
    1POPI  C312  122   1.714   0.303   5.280
    1POPI  H12X  123   1.731   0.370   5.366
    1POPI  H12Y  124   1.605   0.284   5.267
    1POPI  C313  125   1.773   0.346   5.149
    1POPI  H13X  126   1.799   0.256   5.087
    1POPI  H13Y  127   1.870   0.396   5.169
    1POPI  C314  128   1.674   0.427   5.067
    1POPI  H14X  129   1.667   0.530   5.108
    1POPI  H14Y  130   1.573   0.380   5.064
    1POPI  C315  131   1.724   0.437   4.927
    1POPI  H15X  132   1.648   0.481   4.859
    1POPI  H15Y  133   1.753   0.336   4.887
    1POPI  C316  134   1.841   0.529   4.940
    1POPI  H16X  135   1.931   0.468   4.970
    1POPI  H16Y  136   1.863   0.591   4.853
    1POPI  H16Z  137   1.821   0.615   5.003
  10.00000  10.00000  10.00000
