Split from step5_input.gro (molecule=SDPE)
133
    1SDPE     N    1   3.829   3.045   6.855
    1SDPE   HN1    2   3.921   3.092   6.863
    1SDPE   HN2    3   3.807   3.033   6.755
    1SDPE   HN3    4   3.754   3.105   6.898
    1SDPE   C12    5   3.834   2.906   6.918
    1SDPE  H12A    6   3.835   2.918   7.028
    1SDPE  H12B    7   3.920   2.851   6.878
    1SDPE   C11    8   3.713   2.826   6.881
    1SDPE  H11A    9   3.697   2.732   6.939
    1SDPE  H11B   10   3.721   2.798   6.772
    1SDPE     P   11   3.480   2.876   6.851
    1SDPE   O13   12   3.403   3.001   6.846
    1SDPE   O14   13   3.428   2.760   6.923
    1SDPE   O12   14   3.611   2.917   6.912
    1SDPE   O11   15   3.510   2.826   6.707
    1SDPE    C1   16   3.528   2.925   6.611
    1SDPE    HA   17   3.604   2.889   6.540
    1SDPE    HB   18   3.567   3.021   6.653
    1SDPE    C2   19   3.392   2.952   6.544
    1SDPE    HS   20   3.323   3.006   6.613
    1SDPE   O21   21   3.332   2.840   6.484
    1SDPE   C21   22   3.224   2.877   6.421
    1SDPE   O22   23   3.155   2.976   6.440
    1SDPE   C22   24   3.191   2.765   6.334
    1SDPE   H2R   25   3.168   2.696   6.419
    1SDPE   H2S   26   3.276   2.725   6.275
    1SDPE    C3   27   3.420   3.045   6.439
    1SDPE    HX   28   3.472   3.114   6.506
    1SDPE    HY   29   3.332   3.093   6.392
    1SDPE   O31   30   3.494   2.990   6.333
    1SDPE   C31   31   3.613   3.029   6.321
    1SDPE   O32   32   3.683   3.085   6.404
    1SDPE   C32   33   3.656   2.929   6.213
    1SDPE   H2X   34   3.622   2.831   6.238
    1SDPE   H2Y   35   3.721   2.940   6.296
    1SDPE   C23   36   3.064   2.796   6.256
    1SDPE   H3R   37   2.996   2.843   6.330
    1SDPE   H3S   38   3.001   2.709   6.236
    1SDPE   C24   39   3.062   2.862   6.121
    1SDPE   H4R   40   2.961   2.883   6.093
    1SDPE   C25   41   3.143   2.899   6.024
    1SDPE   H5R   42   3.093   2.948   5.939
    1SDPE   C26   43   3.290   2.886   6.009
    1SDPE   H6R   44   3.337   2.866   6.107
    1SDPE   H6S   45   3.328   2.982   5.970
    1SDPE   C27   46   3.314   2.773   5.915
    1SDPE   H7R   47   3.303   2.679   5.969
    1SDPE   C28   48   3.342   2.767   5.784
    1SDPE   H8R   49   3.365   2.670   5.738
    1SDPE   C29   50   3.358   2.883   5.692
    1SDPE   H9R   51   3.409   2.850   5.598
    1SDPE   H9S   52   3.419   2.953   5.746
    1SDPE  C210   53   3.244   2.974   5.669
    1SDPE  H10R   54   3.231   3.052   5.745
    1SDPE  C211   55   3.165   2.977   5.564
    1SDPE  H11R   56   3.085   3.049   5.560
    1SDPE  C212   57   3.169   2.892   5.443
    1SDPE  H12R   58   3.267   2.885   5.392
    1SDPE  H12S   59   3.091   2.925   5.372
    1SDPE  C213   60   3.116   2.763   5.481
    1SDPE  H13R   61   3.045   2.755   5.564
    1SDPE  C214   62   3.154   2.657   5.416
    1SDPE  H14R   63   3.086   2.574   5.411
    1SDPE  C215   64   3.241   2.627   5.311
    1SDPE  H15R   65   3.226   2.519   5.316
    1SDPE  H15S   66   3.346   2.655   5.332
    1SDPE  C216   67   3.169   2.671   5.189
    1SDPE  H16R   68   3.065   2.646   5.174
    1SDPE  C217   69   3.227   2.727   5.089
    1SDPE  H17R   70   3.163   2.758   5.006
    1SDPE  C218   71   3.373   2.757   5.086
    1SDPE  H18R   72   3.423   2.740   4.990
    1SDPE  H18S   73   3.435   2.729   5.173
    1SDPE  C219   74   3.352   2.894   5.113
    1SDPE  H19R   75   3.382   2.924   5.216
    1SDPE  C220   76   3.332   2.977   5.013
    1SDPE  H20R   77   3.300   3.074   5.025
    1SDPE  C221   78   3.322   2.990   4.875
    1SDPE  H21R   79   3.259   3.082   4.855
    1SDPE  H21S   80   3.279   2.893   4.874
    1SDPE  C222   81   3.443   2.997   4.789
    1SDPE  H22R   82   3.412   3.008   4.684
    1SDPE  H22S   83   3.496   2.902   4.803
    1SDPE  H22T   84   3.506   3.085   4.813
    1SDPE   C33   85   3.733   2.929   6.066
    1SDPE   H3X   86   3.782   3.016   6.022
    1SDPE   H3Y   87   3.639   2.907   6.019
    1SDPE   C34   88   3.864   2.861   6.008
    1SDPE   H4X   89   3.854   2.756   6.027
    1SDPE   H4Y   90   3.949   2.915   6.055
    1SDPE   C35   91   3.942   2.885   5.882
    1SDPE   H5X   92   4.028   2.955   5.875
    1SDPE   H5Y   93   3.883   2.931   5.818
    1SDPE   C36   94   3.947   2.777   5.789
    1SDPE   H6X   95   4.013   2.727   5.861
    1SDPE   H6Y   96   3.981   2.810   5.690
    1SDPE   C37   97   3.862   2.665   5.789
    1SDPE   H7X   98   3.845   2.638   5.893
    1SDPE   H7Y   99   3.937   2.589   5.761
    1SDPE   C38  100   3.726   2.683   5.729
    1SDPE   H8X  101   3.663   2.748   5.781
    1SDPE   H8Y  102   3.670   2.617   5.786
    1SDPE   C39  103   3.701   2.666   5.581
    1SDPE   H9X  104   3.604   2.624   5.548
    1SDPE   H9Y  105   3.789   2.627   5.529
    1SDPE  C310  106   3.730   2.782   5.510
    1SDPE  H10X  107   3.828   2.812   5.555
    1SDPE  H10Y  108   3.649   2.852   5.537
    1SDPE  C311  109   3.737   2.773   5.363
    1SDPE  H11X  110   3.808   2.845   5.317
    1SDPE  H11Y  111   3.629   2.781   5.332
    1SDPE  C312  112   3.780   2.660   5.294
    1SDPE  H12X  113   3.721   2.581   5.337
    1SDPE  H12Y  114   3.887   2.636   5.306
    1SDPE  C313  115   3.738   2.696   5.156
    1SDPE  H13X  116   3.798   2.770   5.101
    1SDPE  H13Y  117   3.630   2.718   5.138
    1SDPE  C314  118   3.778   2.571   5.106
    1SDPE  H14X  119   3.747   2.486   5.168
    1SDPE  H14Y  120   3.889   2.571   5.110
    1SDPE  C315  121   3.718   2.558   4.976
    1SDPE  H15X  122   3.612   2.571   5.007
    1SDPE  H15Y  123   3.707   2.459   4.929
    1SDPE  C316  124   3.777   2.662   4.878
    1SDPE  H16X  125   3.716   2.752   4.893
    1SDPE  H16Y  126   3.774   2.608   4.783
    1SDPE  C317  127   3.915   2.720   4.860
    1SDPE  H17X  128   3.956   2.633   4.833
    1SDPE  H17Y  129   3.973   2.737   4.950
    1SDPE  C318  130   3.970   2.758   4.721
    1SDPE  H18X  131   4.075   2.724   4.717
    1SDPE  H18Y  132   3.950   2.862   4.696
    1SDPE  H18Z  133   3.940   2.693   4.638
  10.00000  10.00000  10.00000
