Split from step5_input.gro (molecule=SEPPC)
141
    1SEPPC    N    1   2.396   3.379   6.923
    1SEPPC  C12    2   2.254   3.326   6.897
    1SEPPC H12A    3   2.184   3.400   6.933
    1SEPPC H12B    4   2.241   3.236   6.954
    1SEPPC  C13    5   2.431   3.374   7.069
    1SEPPC H13A    6   2.532   3.411   7.085
    1SEPPC H13B    7   2.367   3.438   7.129
    1SEPPC H13C    8   2.426   3.273   7.108
    1SEPPC  C14    9   2.494   3.295   6.847
    1SEPPC H14A   10   2.466   3.190   6.850
    1SEPPC H14B   11   2.494   3.323   6.741
    1SEPPC H14C   12   2.595   3.308   6.885
    1SEPPC  C15   13   2.400   3.523   6.875
    1SEPPC H15A   14   2.368   3.527   6.770
    1SEPPC H15B   15   2.332   3.587   6.931
    1SEPPC H15C   16   2.497   3.570   6.883
    1SEPPC  C11   17   2.209   3.285   6.755
    1SEPPC H11A   18   2.098   3.280   6.755
    1SEPPC H11B   19   2.249   3.182   6.734
    1SEPPC    P   20   2.227   3.323   6.504
    1SEPPC  O13   21   2.224   3.176   6.496
    1SEPPC  O14   22   2.116   3.399   6.446
    1SEPPC  O12   23   2.251   3.375   6.654
    1SEPPC  O11   24   2.362   3.366   6.440
    1SEPPC   C1   25   2.416   3.493   6.463
    1SEPPC   HA   26   2.483   3.494   6.552
    1SEPPC   HB   27   2.339   3.574   6.477
    1SEPPC   C2   28   2.501   3.526   6.341
    1SEPPC   HS   29   2.533   3.626   6.370
    1SEPPC  O21   30   2.440   3.511   6.214
    1SEPPC  C21   31   2.359   3.593   6.161
    1SEPPC  O22   32   2.296   3.682   6.214
    1SEPPC  C22   33   2.362   3.559   6.009
    1SEPPC  H2R   34   2.266   3.571   5.968
    1SEPPC  H2S   35   2.401   3.459   5.989
    1SEPPC   C3   36   2.633   3.451   6.323
    1SEPPC   HX   37   2.704   3.519   6.268
    1SEPPC   HY   38   2.663   3.439   6.427
    1SEPPC  O31   39   2.623   3.321   6.263
    1SEPPC  C31   40   2.627   3.323   6.131
    1SEPPC  O32   41   2.651   3.419   6.059
    1SEPPC  C32   42   2.593   3.185   6.084
    1SEPPC  H2X   43   2.483   3.171   6.076
    1SEPPC  H2Y   44   2.631   3.110   6.157
    1SEPPC  C23   45   2.412   3.654   5.902
    1SEPPC  H3R   46   2.522   3.650   5.909
    1SEPPC  H3S   47   2.357   3.749   5.922
    1SEPPC  C24   48   2.408   3.610   5.759
    1SEPPC  H4R   49   2.309   3.604   5.718
    1SEPPC  H4S   50   2.436   3.507   5.766
    1SEPPC  C25   51   2.484   3.683   5.655
    1SEPPC  H5R   52   2.482   3.790   5.672
    1SEPPC  C26   53   2.601   3.653   5.617
    1SEPPC  H6R   54   2.651   3.719   5.539
    1SEPPC  C27   55   2.656   3.538   5.692
    1SEPPC  H7R   56   2.621   3.440   5.666
    1SEPPC  H7S   57   2.687   3.551   5.799
    1SEPPC  C28   58   2.768   3.553   5.617
    1SEPPC  H8R   59   2.836   3.617   5.674
    1SEPPC  C29   60   2.808   3.477   5.518
    1SEPPC  H9R   61   2.909   3.480   5.540
    1SEPPC C210   62   2.776   3.358   5.439
    1SEPPC H10R   63   2.736   3.280   5.505
    1SEPPC H10S   64   2.863   3.316   5.385
    1SEPPC C211   65   2.692   3.425   5.344
    1SEPPC H11R   66   2.608   3.482   5.384
    1SEPPC C212   67   2.731   3.445   5.220
    1SEPPC H12R   68   2.658   3.507   5.169
    1SEPPC C213   69   2.861   3.408   5.143
    1SEPPC H13R   70   2.891   3.474   5.060
    1SEPPC H13S   71   2.961   3.409   5.190
    1SEPPC C214   72   2.837   3.269   5.109
    1SEPPC H14R   73   2.930   3.211   5.113
    1SEPPC C215   74   2.729   3.225   5.044
    1SEPPC H15R   75   2.759   3.147   4.986
    1SEPPC C216   76   2.606   3.296   4.989
    1SEPPC H16R   77   2.612   3.406   5.011
    1SEPPC H16S   78   2.512   3.253   5.024
    1SEPPC C217   79   2.588   3.300   4.840
    1SEPPC H17R   80   2.617   3.396   4.794
    1SEPPC C218   81   2.542   3.220   4.753
    1SEPPC H18R   82   2.556   3.245   4.651
    1SEPPC C219   83   2.485   3.094   4.753
    1SEPPC H19R   84   2.446   3.085   4.855
    1SEPPC H19S   85   2.563   3.023   4.719
    1SEPPC C220   86   2.385   3.132   4.645
    1SEPPC H20R   87   2.359   3.235   4.613
    1SEPPC H20S   88   2.400   3.069   4.555
    1SEPPC H20T   89   2.295   3.119   4.703
    1SEPPC  C33   90   2.659   3.151   5.951
    1SEPPC  H3X   91   2.606   3.055   5.948
    1SEPPC  H3Y   92   2.769   3.134   5.960
    1SEPPC  C34   93   2.626   3.225   5.820
    1SEPPC  H4X   94   2.691   3.183   5.739
    1SEPPC  H4Y   95   2.655   3.331   5.831
    1SEPPC  C35   96   2.480   3.214   5.772
    1SEPPC  H5X   97   2.415   3.259   5.850
    1SEPPC  H5Y   98   2.452   3.107   5.768
    1SEPPC  C36   99   2.454   3.273   5.632
    1SEPPC  H6X  100   2.535   3.243   5.563
    1SEPPC  H6Y  101   2.452   3.382   5.632
    1SEPPC  C37  102   2.317   3.241   5.572
    1SEPPC  H7X  103   2.242   3.309   5.618
    1SEPPC  H7Y  104   2.291   3.137   5.599
    1SEPPC  C38  105   2.309   3.256   5.420
    1SEPPC  H8X  106   2.207   3.226   5.389
    1SEPPC  H8Y  107   2.381   3.185   5.372
    1SEPPC  C39  108   2.339   3.395   5.365
    1SEPPC  H9X  109   2.433   3.432   5.408
    1SEPPC  H9Y  110   2.261   3.470   5.393
    1SEPPC C310  111   2.356   3.387   5.214
    1SEPPC H10X  112   2.422   3.302   5.188
    1SEPPC H10Y  113   2.404   3.481   5.177
    1SEPPC C311  114   2.224   3.361   5.144
    1SEPPC H11X  115   2.164   3.444   5.178
    1SEPPC H11Y  116   2.160   3.283   5.188
    1SEPPC C312  117   2.237   3.338   4.992
    1SEPPC H12X  118   2.138   3.333   4.945
    1SEPPC H12Y  119   2.274   3.233   4.984
    1SEPPC C313  120   2.344   3.419   4.912
    1SEPPC H13X  121   2.357   3.362   4.818
    1SEPPC H13Y  122   2.428   3.440   4.978
    1SEPPC C314  123   2.336   3.547   4.831
    1SEPPC H14X  124   2.324   3.595   4.931
    1SEPPC H14Y  125   2.252   3.544   4.760
    1SEPPC C315  126   2.407   3.678   4.819
    1SEPPC H15X  127   2.346   3.768   4.843
    1SEPPC H15Y  128   2.424   3.686   4.712
    1SEPPC C316  129   2.526   3.684   4.903
    1SEPPC H16X  130   2.587   3.594   4.888
    1SEPPC H16Y  131   2.497   3.693   5.012
    1SEPPC C317  132   2.588   3.813   4.858
    1SEPPC H17X  133   2.517   3.881   4.900
    1SEPPC H17Y  134   2.667   3.859   4.917
    1SEPPC C318  135   2.618   3.835   4.709
    1SEPPC H18X  136   2.681   3.924   4.699
    1SEPPC H18Y  137   2.521   3.855   4.661
    1SEPPC C319  138   2.693   3.729   4.630
    1SEPPC H19X  139   2.703   3.639   4.694
    1SEPPC H19Y  140   2.638   3.705   4.537
    1SEPPC H19Z  141   2.795   3.761   4.604
  10.00000  10.00000  10.00000
