Split from step5_input.gro (molecule=SLEPC)
136
    1SLEPC    N    1   0.568   2.151   6.943
    1SLEPC  C12    2   0.469   2.092   6.843
    1SLEPC H12A    3   0.428   1.998   6.882
    1SLEPC H12B    4   0.526   2.062   6.755
    1SLEPC  C13    5   0.506   2.217   7.065
    1SLEPC H13A    6   0.577   2.227   7.147
    1SLEPC H13B    7   0.474   2.317   7.037
    1SLEPC H13C    8   0.419   2.166   7.106
    1SLEPC  C14    9   0.672   2.056   6.976
    1SLEPC H14A   10   0.707   2.060   7.080
    1SLEPC H14B   11   0.637   1.953   6.972
    1SLEPC H14C   12   0.754   2.037   6.908
    1SLEPC  C15   13   0.665   2.240   6.882
    1SLEPC H15A   14   0.718   2.181   6.807
    1SLEPC H15B   15   0.620   2.328   6.844
    1SLEPC H15C   16   0.741   2.258   6.959
    1SLEPC  C11   17   0.350   2.178   6.797
    1SLEPC H11A   18   0.268   2.194   6.868
    1SLEPC H11B   19   0.300   2.126   6.713
    1SLEPC    P   20   0.324   2.402   6.670
    1SLEPC  O13   21   0.179   2.372   6.658
    1SLEPC  O14   22   0.372   2.537   6.704
    1SLEPC  O12   23   0.395   2.306   6.769
    1SLEPC  O11   24   0.387   2.357   6.538
    1SLEPC   C1   25   0.470   2.448   6.469
    1SLEPC   HA   26   0.564   2.476   6.527
    1SLEPC   HB   27   0.415   2.534   6.431
    1SLEPC   C2   28   0.523   2.377   6.352
    1SLEPC   HS   29   0.598   2.442   6.297
    1SLEPC  O21   30   0.426   2.318   6.261
    1SLEPC  C21   31   0.413   2.377   6.146
    1SLEPC  O22   32   0.465   2.480   6.110
    1SLEPC  C22   33   0.317   2.309   6.058
    1SLEPC  H2R   34   0.220   2.309   6.111
    1SLEPC  H2S   35   0.349   2.207   6.033
    1SLEPC   C3   36   0.595   2.272   6.439
    1SLEPC   HX   37   0.628   2.269   6.341
    1SLEPC   HY   38   0.681   2.294   6.504
    1SLEPC  O31   39   0.535   2.152   6.481
    1SLEPC  C31   40   0.467   2.074   6.410
    1SLEPC  O32   41   0.470   2.046   6.291
    1SLEPC  C32   42   0.386   2.013   6.518
    1SLEPC  H2X   43   0.443   1.979   6.607
    1SLEPC  H2Y   44   0.373   1.919   6.495
    1SLEPC  C23   45   0.315   2.402   5.935
    1SLEPC  H3R   46   0.412   2.432   5.891
    1SLEPC  H3S   47   0.248   2.485   5.969
    1SLEPC  C24   48   0.254   2.334   5.821
    1SLEPC  H4R   49   0.184   2.286   5.887
    1SLEPC  H4S   50   0.302   2.241   5.789
    1SLEPC  C25   51   0.196   2.408   5.698
    1SLEPC  H5R   52   0.105   2.467   5.695
    1SLEPC  H5S   53   0.121   2.362   5.636
    1SLEPC  C26   54   0.296   2.425   5.597
    1SLEPC  H6R   55   0.360   2.510   5.612
    1SLEPC  H6S   56   0.245   2.452   5.502
    1SLEPC  C27   57   0.388   2.319   5.572
    1SLEPC  H7R   58   0.336   2.221   5.558
    1SLEPC  H7S   59   0.455   2.314   5.663
    1SLEPC  C28   60   0.439   2.391   5.448
    1SLEPC  H8R   61   0.479   2.492   5.466
    1SLEPC  H8S   62   0.371   2.389   5.361
    1SLEPC  C29   63   0.546   2.305   5.443
    1SLEPC  H9R   64   0.623   2.338   5.512
    1SLEPC C210   65   0.563   2.213   5.354
    1SLEPC H10R   66   0.648   2.146   5.358
    1SLEPC C211   67   0.479   2.184   5.247
    1SLEPC H11R   68   0.533   2.105   5.225
    1SLEPC H11S   69   0.392   2.117   5.262
    1SLEPC C212   70   0.502   2.259   5.124
    1SLEPC H12R   71   0.592   2.282   5.061
    1SLEPC C213   72   0.383   2.269   5.080
    1SLEPC H13R   73   0.299   2.254   5.150
    1SLEPC C214   74   0.361   2.334   4.960
    1SLEPC H14R   75   0.267   2.297   4.919
    1SLEPC H14S   76   0.327   2.403   5.027
    1SLEPC C215   77   0.456   2.421   4.887
    1SLEPC H15R   78   0.493   2.509   4.943
    1SLEPC C216   79   0.441   2.434   4.756
    1SLEPC H16R   80   0.502   2.502   4.696
    1SLEPC C217   81   0.336   2.364   4.683
    1SLEPC H17R   82   0.298   2.402   4.586
    1SLEPC H17S   83   0.254   2.313   4.739
    1SLEPC C218   84   0.443   2.274   4.645
    1SLEPC H18R   85   0.368   2.192   4.647
    1SLEPC H18S   86   0.488   2.288   4.545
    1SLEPC H18T   87   0.533   2.242   4.704
    1SLEPC  C33   88   0.236   2.013   6.490
    1SLEPC  H3X   89   0.185   1.940   6.556
    1SLEPC  H3Y   90   0.216   2.117   6.520
    1SLEPC  C34   91   0.191   1.992   6.342
    1SLEPC  H4X   92   0.081   2.007   6.344
    1SLEPC  H4Y   93   0.237   2.071   6.279
    1SLEPC  C35   94   0.206   1.859   6.266
    1SLEPC  H5X   95   0.312   1.844   6.238
    1SLEPC  H5Y   96   0.165   1.773   6.323
    1SLEPC  C36   97   0.129   1.853   6.135
    1SLEPC  H6X   98   0.126   1.748   6.096
    1SLEPC  H6Y   99   0.025   1.885   6.155
    1SLEPC  C37  100   0.198   1.941   6.034
    1SLEPC  H7X  101   0.201   2.045   6.073
    1SLEPC  H7Y  102   0.303   1.907   6.019
    1SLEPC  C38  103   0.125   1.942   5.901
    1SLEPC  H8X  104   0.022   1.980   5.918
    1SLEPC  H8Y  105   0.188   2.012   5.840
    1SLEPC  C39  106   0.122   1.810   5.826
    1SLEPC  H9X  107   0.231   1.804   5.815
    1SLEPC  H9Y  108   0.091   1.727   5.892
    1SLEPC C310  109   0.036   1.793   5.696
    1SLEPC H10X  110   0.051   1.696   5.646
    1SLEPC H10Y  111  -0.071   1.809   5.725
    1SLEPC C311  112   0.067   1.886   5.582
    1SLEPC H11X  113   0.091   1.967   5.652
    1SLEPC H11Y  114   0.166   1.903   5.537
    1SLEPC C312  115  -0.041   1.900   5.469
    1SLEPC H12X  116  -0.094   1.807   5.445
    1SLEPC H12Y  117  -0.128   1.964   5.501
    1SLEPC C313  118   0.032   1.957   5.343
    1SLEPC H13X  119   0.030   2.058   5.347
    1SLEPC H13Y  120   0.140   1.947   5.337
    1SLEPC C314  121  -0.043   2.022   5.230
    1SLEPC H14X  122  -0.049   1.918   5.212
    1SLEPC H14Y  123  -0.141   2.068   5.263
    1SLEPC C315  124   0.017   2.087   5.104
    1SLEPC H15X  125   0.066   2.183   5.126
    1SLEPC H15Y  126   0.095   2.022   5.062
    1SLEPC C316  127  -0.092   2.111   4.998
    1SLEPC H16X  128  -0.171   2.040   4.975
    1SLEPC H16Y  129  -0.168   2.164   5.045
    1SLEPC C317  130  -0.048   2.162   4.866
    1SLEPC H17X  131  -0.133   2.209   4.814
    1SLEPC H17Y  132   0.037   2.233   4.863
    1SLEPC C318  133  -0.024   2.041   4.786
    1SLEPC H18X  134   0.061   1.978   4.816
    1SLEPC H18Y  135   0.002   2.085   4.690
    1SLEPC H18Z  136  -0.118   1.982   4.783
  10.00000  10.00000  10.00000
