GROningen MAchine for Chemical Simulation
   27
    1OCT     C1    1  -0.475  -0.023   0.000
    1OCT    H11    2  -0.561   0.047   0.000
    1OCT    H12    3  -0.482  -0.088  -0.090
    1OCT    H13    4  -0.482  -0.088   0.090
    1OCT     C2    5  -0.343   0.054   0.000
    1OCT    H21    6  -0.340   0.120  -0.090
    1OCT    H22    7  -0.340   0.120   0.090
    1OCT     C3    8  -0.218  -0.035  -0.000
    1OCT    H31    9  -0.221  -0.100   0.090
    1OCT    H32   10  -0.221  -0.100  -0.090
    1OCT     C4   11  -0.087   0.045  -0.000
    1OCT    H41   12  -0.084   0.110  -0.090
    1OCT    H42   13  -0.084   0.110   0.090
    1OCT     C5   14   0.038  -0.044  -0.000
    1OCT    H51   15   0.036  -0.110   0.090
    1OCT    H52   16   0.036  -0.110  -0.090
    1OCT     C6   17   0.169   0.036  -0.000
    1OCT    H61   18   0.172   0.101  -0.090
    1OCT    H62   19   0.172   0.101   0.090
    1OCT     C7   20   0.294  -0.054   0.000
    1OCT    H71   21   0.292  -0.119   0.090
    1OCT    H72   22   0.292  -0.119  -0.090
    1OCT     C8   23   0.425   0.027   0.000
    1OCT    H81   24   0.430   0.091   0.090
    1OCT    H82   25   0.430   0.091  -0.090
    1OCT     O1   26   0.538  -0.060   0.000
    1OCT    HO1   27   0.615  -0.003   0.000
   0.00000   0.00000   0.00000
