Propane box
 2197
    1POP      C    1   3.484   6.520   1.575 -0.0764 -0.3578  0.3051
    2POP      C    2   5.308   5.158   5.826 -0.1512 -0.2237 -0.2170
    3POP      C    3   1.908   2.524   2.163 -0.0367 -0.0090  0.0965
    4POP      C    4   1.669   1.239   5.865 -0.1046  0.3097  0.0094
    5POP      C    5   0.460   3.638   1.091 -0.0091  0.1869 -0.0697
    6POP      C    6   2.861   2.479   5.889  0.1003 -0.5544  0.1746
    7POP      C    7   3.409   1.515   5.490  0.0880  0.2044  0.2559
    8POP      C    8   4.823   4.411   5.297  0.0617 -0.3311 -0.0699
    9POP      C    9   1.595   3.218   2.584  0.0446  0.0186 -0.2269
   10POP      C   10   2.582   3.185   1.564  0.0701 -0.2843  0.0697
   11POP      C   11   2.005   2.900   0.617  0.0992 -0.2365 -0.0299
   12POP      C   12   1.926   1.202   5.368  0.1238  0.1982 -0.1773
   13POP      C   13   1.507   1.982   1.178  0.0565 -0.0214 -0.0381
   14POP      C   14   3.817   4.053   5.457  0.2894  0.1936 -0.1774
   15POP      C   15   2.936   5.085   3.952 -0.1480 -0.4784  0.2027
   16POP      C   16   2.188   4.787   3.661 -0.0837 -0.1480  0.0943
   17POP      C   17   5.874   6.590   0.712 -0.1284 -0.4411 -0.1709
   18POP      C   18   5.906   4.374   1.872 -0.0735 -0.0440  0.0906
   19POP      C   19   3.521   0.217   3.222 -0.1404  0.1085 -0.1960
   20POP      C   20   4.473   4.709   5.473 -0.1062  0.0015 -0.1431
   21POP      C   21   1.927   5.607   1.637 -0.0288  0.1433  0.1720
   22POP      C   22   4.182   2.564   1.774  0.0726  0.0684 -0.1847
   23POP      C   23   3.080   5.219   1.835  0.2751 -0.0436 -0.2518
   24POP      C   24   2.886   5.963   5.759  0.0725 -0.1120 -0.0255
   25POP      C   25   0.980   5.112   0.210 -0.2992  0.0719  0.0746
   26POP      C   26   0.600   4.954   1.406 -0.1314 -0.0201  0.2237
   27POP      C   27   2.931   0.987   5.840 -0.2124  0.0793  0.0052
   28POP      C   28   2.395   2.498   2.084  0.1837 -0.0183 -0.2041
   29POP      C   29   1.446   5.703   1.221 -0.0874 -0.1973  0.3426
   30POP      C   30   0.055   1.380   4.208  0.2049 -0.0006  0.0766
   31POP      C   31   1.766   4.266   2.346  0.2183  0.0402  0.0153
   32POP      C   32   0.747   3.990   1.263 -0.1807  0.0512  0.1576
   33POP      C   33   4.934   3.243   3.539  0.0825  0.3544 -0.1310
   34POP      C   34   2.245   1.721   4.790  0.1164 -0.1851  0.1974
   35POP      C   35   5.842   1.756   1.254 -0.1602  0.1254 -0.0221
   36POP      C   36   0.317   6.375   5.209 -0.2138  0.1047 -0.3554
   37POP      C   37   0.343   4.368   3.185 -0.0776 -0.1762  0.1160
   38POP      C   38   2.219   4.396   4.175  0.0847 -0.0573 -0.5059
   39POP      C   39   0.338   4.548   0.163  0.2503 -0.0792 -0.1935
   40POP      C   40   4.358   0.002   1.573  0.0387  0.1365 -0.0859
   41POP      C   41   5.171   1.844   2.071  0.1368 -0.1518  0.1593
   42POP      C   42   0.014   6.648   5.545 -0.1043  0.3039  0.0771
   43POP      C   43   0.940   0.819   1.934 -0.2015  0.0313 -0.2444
   44POP      C   44   5.039   4.665   4.276 -0.0156  0.2180  0.2923
   45POP      C   45   1.955   0.822   4.263  0.1345 -0.2455  0.1577
   46POP      C   46   2.498   1.306   0.354 -0.0305  0.0072 -0.4185
   47POP      C   47   3.591   4.761   4.527 -0.1199  0.1537  0.0499
   48POP      C   48   5.150   5.759   1.141  0.2683 -0.0135  0.1514
   49POP      C   49   2.800   1.649   3.176  0.1375  0.1285  0.1644
   50POP      C   50   4.488   0.436   5.287  0.0747  0.0547 -0.2743
   51POP      C   51   1.985   4.362   3.281 -0.1047 -0.2320  0.1056
   52POP      C   52   0.182   5.902   3.898  0.0747 -0.1069  0.0574
   53POP      C   53   1.130   1.953   3.488 -0.0728 -0.3075 -0.0052
   54POP      C   54   0.214   1.785   1.157  0.0333 -0.3042  0.1922
   55POP      C   55   2.644   4.060   4.400  0.1081  0.0155  0.0683
   56POP      C   56   2.713   3.974   3.816  0.2432  0.1607 -0.2251
   57POP      C   57   4.747   2.933   1.165  0.2760 -0.1712 -0.1642
   58POP      C   58   3.049   4.338   5.666 -0.2206  0.0142  0.3282
   59POP      C   59   3.649   1.742   1.275  0.0847 -0.0216  0.4527
   60POP      C   60   0.396   3.140   1.270 -0.2324 -0.0819  0.2769
   61POP      C   61   6.615   0.067   3.512  0.3186  0.1104  0.1284
   62POP      C   62   3.491   2.554   1.165  0.1181  0.2181  0.3233
   63POP      C   63   6.491   3.779   5.049 -0.2727  0.0108 -0.0856
   64POP      C   64   5.127   1.536   3.479  0.0840  0.3820 -0.3087
   65POP      C   65   1.211   3.396   3.135  0.2485  0.2978  0.1037
   66POP      C   66   5.053   0.921   2.887  0.3330  0.0634  0.2659
   67POP      C   67   2.620   5.569   5.821  0.5151 -0.0568 -0.1042
   68POP      C   68   1.700   6.152   1.258  0.3277  0.1927  0.2439
   69POP      C   69   0.965   3.632   0.239  0.4220 -0.0479 -0.0167
   70POP      C   70   6.534   5.681   0.992  0.1076 -0.1960 -0.0243
   71POP      C   71   1.505   6.278   2.087  0.0332 -0.1554 -0.0482
   72POP      C   72   6.163   0.863   5.677  0.0133  0.4645 -0.2105
   73POP      C   73   5.241   0.498   3.666  0.1345  0.0386 -0.0974
   74POP      C   74   1.026   3.710   2.738  0.2499 -0.0796  0.2918
   75POP      C   75   0.372   6.275   4.647 -0.0759 -0.1623 -0.0747
   76POP      C   76   1.855   6.616   1.997 -0.1626 -0.0680  0.2622
   77POP      C   77   1.703   3.592   0.008  0.2891  0.1491  0.1933
   78POP      C   78   4.633   5.260   5.163 -0.1560  0.4665  0.1015
   79POP      C   79   0.820   1.976   2.030  0.1832 -0.2243 -0.2526
   80POP      C   80   6.638   2.252   2.593 -0.2657  0.3035  0.1029
   81POP      C   81   2.931   2.879   0.005  0.0712 -0.2717 -0.0762
   82POP      C   82   2.627   5.152   6.066  0.1467  0.1573  0.0106
   83POP      C   83   0.052   1.612   4.667  0.1534 -0.2761 -0.0811
   84POP      C   84   2.256   2.046   4.382  0.1555 -0.2914  0.1255
   85POP      C   85   4.271   2.119   5.625  0.1552  0.1317 -0.0779
   86POP      C   86   4.331   1.594   4.952 -0.0667  0.1915  0.3099
   87POP      C   87   1.453   1.265   4.495 -0.1007  0.2470 -0.0638
   88POP      C   88   2.610   0.972   1.969 -0.0067  0.0719 -0.0999
   89POP      C   89   3.790   1.457   2.648 -0.0305  0.0770  0.1049
   90POP      C   90   1.669   5.056   1.965 -0.2084 -0.1275  0.0378
   91POP      C   91   3.980   1.542   3.711 -0.0649  0.1327  0.1742
   92POP      C   92   1.232   3.387   1.763  0.2119  0.1453  0.1380
   93POP      C   93   1.922   2.714   5.440  0.0128  0.0602  0.1628
   94POP      C   94   3.456   4.940   5.692  0.0356 -0.0649  0.0047
   95POP      C   95   2.776   6.198   3.660 -0.4126 -0.4067 -0.1706
   96POP      C   96   4.589   5.030   3.473 -0.0816  0.0028  0.0515
   97POP      C   97   4.709   5.935   5.344 -0.1752 -0.0441  0.1681
   98POP      C   98   4.922   5.888   3.443  0.2326 -0.0643  0.1177
   99POP      C   99   0.240   3.175   5.791  0.2064  0.1604  0.1179
  100POP      C  100   4.621   2.394   3.373 -0.1257  0.3892 -0.0401
  101POP      C  101   1.102   0.286   3.704  0.1661 -0.2801 -0.2868
  102POP      C  102   2.884   4.874   6.429  0.1336 -0.0517  0.1699
  103POP      C  103   3.065   0.260   2.363  0.4441  0.1550  0.0032
  104POP      C  104   1.065   4.592   1.649  0.0564 -0.0134 -0.0564
  105POP      C  105   1.526   0.030   1.038 -0.2909 -0.2097 -0.0722
  106POP      C  106   2.706   5.886   4.566  0.1153  0.1883 -0.3421
  107POP      C  107   6.554   6.361   1.707  0.1648  0.0934  0.0257
  108POP      C  108   0.163   5.073   3.778 -0.2749  0.1552 -0.3566
  109POP      C  109   0.209   4.056   2.442  0.2752 -0.3921  0.2397
  110POP      C  110   0.182   5.512   3.095  0.2454  0.0382  0.0865
  111POP      C  111   1.693   1.914   6.034 -0.3381 -0.2713 -0.1126
  112POP      C  112   5.768   4.526   3.162 -0.1224 -0.2657  0.1746
  113POP      C  113   1.568   0.890   0.660 -0.1700  0.0938 -0.3701
  114POP      C  114   3.755   3.222   0.515  0.0438  0.1714  0.0469
  115POP      C  115   0.595   6.061   2.627  0.2879  0.0490  0.0468
  116POP      C  116   2.307   1.644   2.999 -0.1587 -0.1904  0.1237
  117POP      C  117   0.854   6.007   2.019  0.3818 -0.0684 -0.0076
  118POP      C  118   5.397   1.182   3.817 -0.1899  0.0801 -0.0336
  119POP      C  119   5.924   3.428   3.093  0.1520  0.1748 -0.3997
  120POP      C  120   1.614   5.052   0.054 -0.2316  0.1927  0.2313
  121POP      C  121   3.945   0.203   2.353 -0.0605 -0.0239  0.2264
  122POP      C  122   3.203   4.210   1.803 -0.1628 -0.2118 -0.1534
  123POP      C  123   2.671   2.417   6.314 -0.3299 -0.1177  0.0182
  124POP      C  124   2.331   3.976   2.548  0.4315  0.2194 -0.1005
  125POP      C  125   3.893   6.469   5.744  0.0161  0.1769  0.0561
  126POP      C  126   4.972   2.023   4.224 -0.0675  0.0586  0.0666
  127POP      C  127   0.346   0.581   2.053  0.1675  0.3231 -0.2312
  128POP      C  128   2.871   3.585   5.186 -0.3337  0.4867  0.1064
  129POP      C  129   1.594   3.533   2.188  0.2329 -0.2808  0.0409
  130POP      C  130   2.108   3.403   2.464 -0.0912  0.0196  0.0012
  131POP      C  131   6.082   2.077   0.351  0.1118  0.0371 -0.1266
  132POP      C  132   0.886   0.689   6.139 -0.2808  0.0410  0.0757
  133POP      C  133   4.580   6.435   3.065 -0.0728  0.0090 -0.0722
  134POP      C  134   2.350   0.467   0.597  0.1532 -0.0896  0.2729
  135POP      C  135   4.549   4.168   5.647 -0.1118  0.1611 -0.0791
  136POP      C  136   0.997   2.738   0.184 -0.0267 -0.1014 -0.0149
  137POP      C  137   0.219   2.407   3.277 -0.0292 -0.1876 -0.2437
  138POP      C  138   5.197   5.987   1.886  0.1207 -0.4130 -0.1038
  139POP      C  139   5.453   2.363   4.663 -0.4779 -0.0208  0.1204
  140POP      C  140   1.961   6.094   2.945  0.0243 -0.2064  0.0584
  141POP      C  141   0.637   5.209   3.486 -0.2236  0.3196 -0.1072
  142POP      C  142   6.426   3.065   6.427 -0.3275  0.0292 -0.1037
  143POP      C  143   1.114   4.791   3.228 -0.2975 -0.1447  0.0689
  144POP      C  144   6.548   2.001   5.673  0.0133  0.1026  0.1843
  145POP      C  145   5.304   2.609   5.751  0.0359 -0.1355 -0.0889
  146POP      C  146   4.232   5.075   0.136 -0.2192 -0.2099 -0.1254
  147POP      C  147   6.429   3.226   1.983 -0.3250  0.0525 -0.1236
  148POP      C  148   2.604   4.374   0.693  0.0311  0.0583 -0.0276
  149POP      C  149   3.652   3.745   3.234  0.1345  0.0699  0.3132
  150POP      C  150   0.816   0.772   1.070 -0.1565  0.0169 -0.1943
  151POP      C  151   1.944   6.566   3.157 -0.2794 -0.1551 -0.1999
  152POP      C  152   3.979   2.790   0.735  0.1660  0.2112 -0.0820
  153POP      C  153   3.412   4.068   2.822  0.2498 -0.1236  0.1370
  154POP      C  154   5.562   3.583   3.831 -0.2308  0.0762 -0.2718
  155POP      C  155   2.261   4.792   6.144  0.3375  0.2468  0.1649
  156POP      C  156   2.114   6.311   5.188  0.1043  0.1148  0.2234
  157POP      C  157   5.741   2.965   0.015  0.0634  0.0004 -0.0910
  158POP      C  158   4.201   3.449   1.382 -0.0802 -0.0896 -0.1131
  159POP      C  159   0.345   2.215   1.467 -0.2466  0.1496  0.1010
  160POP      C  160   6.397   5.356   5.689 -0.0272 -0.1052  0.2818
  161POP      C  161   1.088   6.549   1.891  0.0239  0.1799 -0.0055
  162POP      C  162   5.981   2.043   5.935 -0.2094 -0.1012  0.0025
  163POP      C  163   5.820   1.701   5.050 -0.0768  0.4978 -0.3596
  164POP      C  164   3.386   3.516   5.019 -0.3518  0.1520 -0.0066
  165POP      C  165   1.411   6.341   0.664  0.1492  0.0029 -0.0700
  166POP      C  166   2.179   5.152   5.847  0.3895 -0.2494  0.1700
  167POP      C  167   1.903   6.135   2.369 -0.1243  0.0195 -0.1329
  168POP      C  168   6.393   0.791   4.362  0.2924 -0.0328 -0.3431
  169POP      C  169   0.392   3.749   5.372  0.2158  0.0903  0.1147
  170POP      C  170   4.114   4.055   0.024  0.3253  0.2783 -0.0088
  171POP      C  171   1.971   3.882   2.007  0.1998  0.0835 -0.0162
  172POP      C  172   0.057   2.745   1.297 -0.1173 -0.2071  0.3510
  173POP      C  173   5.151   1.697   0.347  0.0674 -0.1079  0.0147
  174POP      C  174   4.688   1.692   2.798 -0.1053  0.3906 -0.1234
  175POP      C  175   3.921   2.414   2.629  0.1124 -0.0123  0.1630
  176POP      C  176   5.699   2.585   0.788 -0.1838 -0.0751 -0.2275
  177POP      C  177   2.997   0.997   2.371 -0.0697 -0.1540  0.1434
  178POP      C  178   3.010   2.998   4.757 -0.2448  0.1211  0.0116
  179POP      C  179   4.121   2.303   3.246  0.2139  0.1068  0.2863
  180POP      C  180   4.558   3.346   3.921 -0.1504 -0.1345  0.4273
  181POP      C  181   5.485   1.525   0.872 -0.2275  0.0061 -0.2027
  182POP      C  182   1.401   2.470   5.739  0.0477  0.0474 -0.1044
  183POP      C  183   0.174   4.867   0.549  0.0936 -0.1940 -0.1963
  184POP      C  184   4.459   3.581   1.829 -0.0772 -0.1214  0.0807
  185POP      C  185   0.294   6.307   4.136 -0.0918  0.0210  0.2550
  186POP      C  186   5.512   6.543   1.988 -0.1091 -0.0536 -0.4169
  187POP      C  187   5.719   6.018   5.119 -0.0574  0.1251 -0.3141
  188POP      C  188   4.242   5.144   1.270  0.1488  0.0366 -0.3836
  189POP      C  189   5.274   4.432   6.444 -0.2698 -0.0112  0.0230
  190POP      C  190   6.437   4.283   4.167 -0.0573 -0.0898 -0.2544
  191POP      C  191   4.553   0.048   5.610 -0.1351 -0.1422 -0.3045
  192POP      C  192   5.558   2.229   1.401  0.0217 -0.0028 -0.0386
  193POP      C  193   1.029   0.016   0.952 -0.0105  0.0800 -0.0571
  194POP      C  194   3.092   2.664   0.766 -0.0787  0.0792 -0.0915
  195POP      C  195   5.215   3.244   5.160  0.0420 -0.2136  0.1122
  196POP      C  196   5.530   4.535   3.945  0.1347 -0.4804 -0.0344
  197POP      C  197   0.448   6.247   3.645  0.0024 -0.2299 -0.1518
  198POP      C  198   0.200   5.804   5.367 -0.0063  0.1851  0.4492
  199POP      C  199   2.380   3.543   6.326  0.0723  0.0594  0.2834
  200POP      C  200   2.815   0.130   1.185 -0.0442 -0.2408 -0.0240
  201POP      C  201   3.933   5.366   0.992  0.2955 -0.2403  0.0595
  202POP      C  202   1.360   3.720   0.561 -0.3253  0.3878  0.2753
  203POP      C  203   2.958   1.881   4.984  0.1710 -0.0747 -0.1171
  204POP      C  204   2.608   3.503   3.656  0.0265  0.4865 -0.0197
  205POP      C  205   1.184   4.705   0.095 -0.0735  0.0498  0.2444
  206POP      C  206   4.542   5.737   2.375 -0.1694  0.0498 -0.0075
  207POP      C  207   5.299   1.878   3.720 -0.2116 -0.1001  0.2955
  208POP      C  208   4.791   4.706   2.943  0.0991  0.2084  0.2163
  209POP      C  209   0.783   2.008   4.394 -0.4151  0.0003 -0.0566
  210POP      C  210   1.614   6.034   5.978 -0.2587 -0.2195 -0.0259
  211POP      C  211   6.089   1.658   0.110 -0.0566  0.0532  0.0206
  212POP      C  212   6.426   0.987   6.310  0.2245  0.1476 -0.0799
  213POP      C  213   5.978   2.479   4.597  0.0557 -0.1119  0.2515
  214POP      C  214   3.410   1.676   4.709  0.0721 -0.1070 -0.0152
  215POP      C  215   5.130   0.502   0.519  0.0759 -0.0436 -0.0617
  216POP      C  216   5.648   5.532   1.313 -0.1659  0.0745 -0.0776
  217POP      C  217   6.271   0.098   5.251  0.1864 -0.0169 -0.2478
  218POP      C  218   0.921   0.996   4.549  0.0046 -0.0020 -0.3111
  219POP      C  219   1.879   2.432   0.789 -0.1380  0.0658 -0.1588
  220POP      C  220   0.412   4.376   5.845 -0.3672  0.0235 -0.0255
  221POP      C  221   3.622   0.737   6.051 -0.0029  0.0569  0.0909
  222POP      C  222   6.534   4.956   5.367 -0.1683  0.3204  0.0869
  223POP      C  223   0.529   3.437   3.412  0.2269  0.1259  0.0866
  224POP      C  224   2.473   3.163   4.167 -0.0827 -0.0357 -0.2516
  225POP      C  225   3.258   0.568   2.783  0.2735  0.0043  0.2465
  226POP      C  226   0.629   4.093   4.289  0.1384 -0.0994 -0.0771
  227POP      C  227   4.173   2.716   0.289 -0.1606 -0.0450 -0.2009
  228POP      C  228   3.098   3.470   5.651  0.0600 -0.2548  0.1999
  229POP      C  229   4.951   6.257   5.567 -0.0647 -0.1892  0.1579
  230POP      C  230   0.271   3.481   1.566  0.0208 -0.1296 -0.2817
  231POP      C  231   5.995   4.338   0.932 -0.0095 -0.3202 -0.0221
  232POP      C  232   0.929   2.246   1.073  0.0630 -0.1238  0.2622
  233POP      C  233   6.401   3.534   3.192  0.0489  0.2602 -0.1380
  234POP      C  234   6.269   4.709   1.976 -0.0934 -0.0479 -0.1154
  235POP      C  235   3.548   5.537   2.447  0.1713  0.0121  0.4207
  236POP      C  236   4.216   0.793   0.573 -0.3438 -0.0643 -0.2468
  237POP      C  237   0.558   2.492   1.865 -0.0800 -0.0143  0.2245
  238POP      C  238   3.450   4.173   3.344 -0.1902  0.2703  0.1162
  239POP      C  239   5.052   5.231   0.644  0.4604  0.1688  0.0061
  240POP      C  240   1.005   5.513   6.496  0.4624  0.1374 -0.1505
  241POP      C  241   1.898   3.955   2.871  0.0511  0.3021 -0.0489
  242POP      C  242   2.316   5.549   3.086 -0.3357  0.2874  0.2376
  243POP      C  243   5.483   5.338   2.970  0.0963 -0.1128  0.1610
  244POP      C  244   4.516   4.348   1.358 -0.3436  0.1012  0.0326
  245POP      C  245   4.552   4.134   2.435  0.1849  0.1744  0.3860
  246POP      C  246   1.027   4.057   6.425  0.0101 -0.3092 -0.0125
  247POP      C  247   4.678   0.312   3.058  0.0881 -0.2202 -0.2124
  248POP      C  248   3.548   6.230   3.439 -0.0176  0.1247  0.0820
  249POP      C  249   1.666   0.374   2.350  0.2147  0.0381  0.2930
  250POP      C  250   6.152   3.011   5.812  0.1468 -0.0447 -0.1852
  251POP      C  251   3.312   6.126   1.783  0.2914  0.2190  0.0356
  252POP      C  252   0.026   3.128   4.981 -0.2443 -0.1374  0.2697
  253POP      C  253   0.808   6.531   3.898 -0.1720 -0.1141 -0.2696
  254POP      C  254   0.543   3.061   3.717 -0.0023 -0.3002  0.0883
  255POP      C  255   1.293   1.102   1.685 -0.1160  0.4045  0.0964
  256POP      C  256   4.299   0.876   5.454 -0.1612  0.1052  0.1114
  257POP      C  257   2.042   2.061   1.229 -0.0043  0.0435 -0.1322
  258POP      C  258   1.817   2.685   0.060  0.2222  0.4189 -0.0943
  259POP      C  259   3.741   2.807   6.110 -0.0182 -0.1723  0.1022
  260POP      C  260   5.586   1.801   2.348  0.3738  0.1024 -0.1775
  261POP      C  261   3.163   4.757   5.278 -0.2742 -0.5025 -0.0985
  262POP      C  262   2.374   1.112   4.697  0.2604 -0.0264 -0.0709
  263POP      C  263   4.379   3.185   5.129 -0.0935  0.2029  0.2652
  264POP      C  264   0.741   4.221   0.864 -0.0591  0.2551 -0.5604
  265POP      C  265   4.772   0.542   4.875  0.0449 -0.0796 -0.0927
  266POP      C  266   2.094   4.532   5.655  0.3456 -0.1716 -0.2982
  267POP      C  267   1.513   2.175   2.539  0.1124 -0.1540 -0.1047
  268POP      C  268   0.180   4.372   4.557  0.2367 -0.3206 -0.0158
  269POP      C  269   2.615   0.606   1.025  0.0914  0.2279 -0.0484
  270POP      C  270   1.806   4.897   1.256 -0.0940 -0.0543 -0.0551
  271POP      C  271   0.964   2.553   5.491  0.1526  0.0709 -0.1314
  272POP      C  272   3.054   2.534   1.350  0.0263  0.2891  0.0611
  273POP      C  273   5.640   4.043   0.508 -0.2282 -0.2117 -0.4190
  274POP      C  274   0.571   1.070   4.131 -0.1232 -0.0449 -0.0278
  275POP      C  275   3.795   5.415   5.613  0.1910 -0.0308  0.1244
  276POP      C  276   1.544   6.531   5.510  0.2194 -0.2468 -0.1069
  277POP      C  277   0.317   4.785   5.454 -0.1998 -0.1292  0.0384
  278POP      C  278   2.324   2.858   3.730 -0.1914 -0.0366 -0.0040
  279POP      C  279   0.399   1.408   1.551  0.0279 -0.0116  0.2709
  280POP      C  280   6.419   0.496   0.316 -0.0435  0.1356  0.1171
  281POP      C  281   3.593   2.021   6.311  0.1265 -0.2413 -0.2346
  282POP      C  282   5.977   2.559   0.355  0.0246 -0.2310 -0.1060
  283POP      C  283   6.207   5.807   5.867  0.0785 -0.0024 -0.0340
  284POP      C  284   3.122   5.941   2.547 -0.1812 -0.0860  0.0652
  285POP      C  285   2.063   1.705   5.635  0.0135  0.2130 -0.0944
  286POP      C  286   4.324   6.038   5.007 -0.2983 -0.1609 -0.0014
  287POP      C  287   2.236   3.622   5.793  0.1800 -0.0600 -0.0301
  288POP      C  288   1.898   3.318   1.018  0.1852 -0.5633  0.1048
  289POP      C  289   2.616   3.348   5.489 -0.0064  0.0776 -0.2547
  290POP      C  290   5.001   3.683   2.497 -0.1197 -0.0915 -0.1637
  291POP      C  291   5.920   3.048   1.445  0.0579  0.1916  0.2550
  292POP      C  292   3.957   3.027   4.878 -0.0749  0.1007 -0.0218
  293POP      C  293   6.202   1.391   5.887  0.0856 -0.3184 -0.3190
  294POP      C  294   1.346   5.830   5.524 -0.2196 -0.0504  0.0885
  295POP      C  295   0.759   5.707   6.096 -0.0607  0.1051  0.2060
  296POP      C  296   6.036   0.056   4.518  0.5711 -0.0794 -0.0346
  297POP      C  297   1.683   4.939   6.043  0.0895 -0.2847  0.0919
  298POP      C  298   0.190   4.004   3.911 -0.3285  0.0851  0.1326
  299POP      C  299   0.283   5.112   1.929  0.2296  0.0902  0.0068
  300POP      C  300   4.151   5.660   0.073  0.0522  0.0690 -0.3041
  301POP      C  301   5.761   0.551   4.618 -0.1237 -0.1116 -0.3676
  302POP      C  302   6.241   0.945   3.342  0.1610 -0.0926 -0.3594
  303POP      C  303   4.616   1.023   4.113  0.1482  0.1052 -0.0464
  304POP      C  304   2.764   5.842   1.744 -0.0280  0.0828  0.0710
  305POP      C  305   4.357   3.682   5.299  0.0844  0.0952  0.0047
  306POP      C  306   1.186   2.198   4.930  0.0187 -0.2376  0.0116
  307POP      C  307   6.049   3.147   2.390  0.2037  0.1207 -0.2512
  308POP      C  308   5.022   1.276   5.067  0.1043 -0.0625 -0.3479
  309POP      C  309   0.272   0.790   5.063 -0.4018  0.0866 -0.0281
  310POP      C  310   2.294   4.262   2.051 -0.2829  0.0079  0.3185
  311POP      C  311   4.918   1.192   0.261 -0.0138 -0.0459  0.1106
  312POP      C  312   1.057   2.836   3.940  0.1042  0.0949 -0.0886
  313POP      C  313   3.758   5.474   3.110 -0.2275 -0.1884  0.0057
  314POP      C  314   5.378   4.663   2.272 -0.2041 -0.1654 -0.0537
  315POP      C  315   2.363   6.009   4.936 -0.2489 -0.1783  0.1118
  316POP      C  316   1.231   0.248   4.567  0.0370 -0.2030 -0.1641
  317POP      C  317   0.880   2.046   5.578  0.0740 -0.2353  0.2370
  318POP      C  318   0.992   3.716   4.119  0.0613  0.0624 -0.3356
  319POP      C  319   6.072   1.186   5.192 -0.0162  0.3032 -0.0336
  320POP      C  320   2.695   1.515   1.911  0.1290  0.2230  0.2782
  321POP      C  321   2.541   2.663   1.594 -0.0005  0.0744  0.2116
  322POP      C  322   2.815   3.628   0.402 -0.0437 -0.1165  0.0765
  323POP      C  323   0.816   5.888   4.604  0.1852 -0.0129  0.1074
  324POP      C  324   3.338   3.794   5.950  0.2203 -0.1262 -0.0731
  325POP      C  325   2.803   6.605   4.361  0.0591 -0.0776 -0.0616
  326POP      C  326   2.454   1.086   0.816 -0.0718 -0.3538  0.2639
  327POP      C  327   4.162   0.195   5.874 -0.0216  0.1898 -0.2305
  328POP      C  328   0.369   4.545   1.627  0.2061  0.0987 -0.0461
  329POP      C  329   5.962   5.013   3.095  0.1854  0.2243  0.2378
  330POP      C  330   6.155   6.269   5.353 -0.0942 -0.1346  0.0042
  331POP      C  331   1.590   5.272   4.471 -0.2950  0.2005 -0.0847
  332POP      C  332   0.873   5.989   1.136 -0.2452 -0.3129  0.0863
  333POP      C  333   5.424   4.175   2.762  0.2256  0.3021 -0.0441
  334POP      C  334   3.662   6.269   4.625 -0.1156  0.1045 -0.0037
  335POP      C  335   2.008   0.075   5.520 -0.1174  0.0003 -0.1147
  336POP      C  336   0.125   2.229   1.962 -0.2570 -0.0065  0.1299
  337POP      C  337   2.200   0.766   1.899  0.4453 -0.0261  0.0549
  338POP      C  338   0.133   2.878   4.083  0.0065 -0.4678  0.0755
  339POP      C  339   3.038   4.673   1.635 -0.0495  0.2960 -0.2050
  340POP      C  340   3.234   4.668   3.566 -0.4038 -0.2207  0.1949
  341POP      C  341   1.264   3.569   5.163 -0.2714 -0.2190 -0.2984
  342POP      C  342   4.480   1.683   4.273 -0.2411 -0.1742  0.1699
  343POP      C  343   3.016   3.008   4.220  0.0102 -0.1202  0.0484
  344POP      C  344   4.304   0.201   4.233 -0.2114 -0.0033 -0.1434
  345POP      C  345   3.673   1.386   3.226  0.1759 -0.4401  0.1638
  346POP      C  346   3.156   4.080   1.326  0.2262 -0.1135 -0.2051
  347POP      C  347   2.231   3.145   6.068 -0.3275  0.1363  0.0106
  348POP      C  348   4.855   4.208   6.358  0.3598  0.1929 -0.0702
  349POP      C  349   0.350   1.231   5.960 -0.4912  0.1356 -0.3741
  350POP      C  350   3.350   2.649   4.992 -0.0406 -0.0357 -0.1667
  351POP      C  351   2.956   4.353   4.028  0.0119 -0.0313 -0.2353
  352POP      C  352   0.566   1.739   3.395  0.0202 -0.3545  0.2338
  353POP      C  353   0.619   3.728   6.464  0.0838 -0.1049 -0.0149
  354POP      C  354   0.313   2.909   6.350 -0.0672 -0.1161  0.0299
  355POP      C  355   2.441   1.174   1.309 -0.0662  0.2632  0.0310
  356POP      C  356   4.975   0.739   0.067  0.0660  0.0710 -0.1126
  357POP      C  357   5.951   5.512   4.384  0.0140  0.2013 -0.0206
  358POP      C  358   5.951   5.084   2.172  0.1005 -0.0557  0.0793
  359POP      C  359   3.178   2.745   6.229 -0.1119  0.0449 -0.3708
  360POP      C  360   4.276   2.421   4.817  0.1151 -0.0160  0.0892
  361POP      C  361   3.742   5.387   3.618  0.1208  0.0212  0.2195
  362POP      C  362   3.618   4.334   1.455  0.0243  0.1767  0.0434
  363POP      C  363   0.388   0.115   3.756 -0.0513  0.1500 -0.1008
  364POP      C  364   6.318   5.304   5.086 -0.2456  0.1066 -0.0141
  365POP      C  365   4.704   3.536   1.053 -0.2012  0.1802  0.3310
  366POP      C  366   5.980   1.014   4.661 -0.1031 -0.1401 -0.0089
  367POP      C  367   2.566   4.461   6.341  0.2231 -0.3143 -0.0193
  368POP      C  368   1.287   0.360   1.913  0.3111 -0.2227 -0.2815
  369POP      C  369   4.278   0.601   3.864 -0.2491 -0.0072  0.0205
  370POP      C  370   1.565   5.243   0.900  0.0187  0.0094 -0.2481
  371POP      C  371   0.424   4.876   3.054 -0.1280 -0.0803 -0.0108
  372POP      C  372   6.482   4.256   0.986  0.0202 -0.1072 -0.0146
  373POP      C  373   4.602   1.131   3.142 -0.0259  0.0180 -0.2443
  374POP      C  374   3.744   5.119   6.551 -0.1644  0.1883 -0.0469
  375POP      C  375   3.177   5.260   5.235 -0.2963  0.0861  0.1175
  376POP      C  376   5.356   4.464   0.475 -0.2223  0.3762 -0.2152
  377POP      C  377   0.645   6.597   0.566 -0.0302 -0.0747  0.2511
  378POP      C  378   6.407   6.327   3.199 -0.0890  0.1095 -0.0109
  379POP      C  379   4.828   3.504   2.930 -0.3608 -0.0204 -0.1308
  380POP      C  380   4.659   0.045   1.197 -0.0611  0.1166 -0.2280
  381POP      C  381   2.880   0.438   5.802  0.0231  0.0775 -0.0546
  382POP      C  382   5.613   1.422   6.457  0.1314 -0.1920 -0.0537
  383POP      C  383   1.486   1.305   0.041  0.4347  0.0257 -0.1080
  384POP      C  384   5.817   4.109   2.331  0.0275 -0.0364  0.0851
  385POP      C  385   4.147   0.399   1.857 -0.2731 -0.2100  0.0461
  386POP      C  386   2.458   2.552   0.855 -0.2594  0.5328  0.5019
  387POP      C  387   6.483   5.825   1.456 -0.1550 -0.1852 -0.0306
  388POP      C  388   0.407   1.800   5.364 -0.4230  0.0655  0.0129
  389POP      C  389   2.571   3.585   2.834 -0.3189  0.1298 -0.1062
  390POP      C  390   3.949   2.348   6.063 -0.0107 -0.0510  0.2258
  391POP      C  391   5.411   0.416   0.961 -0.2726 -0.2909  0.1684
  392POP      C  392   2.447   0.492   3.731  0.0582 -0.1759 -0.0876
  393POP      C  393   5.629   6.313   6.244  0.1720  0.0679  0.2223
  394POP      C  394   0.432   2.043   2.896 -0.0252 -0.1962  0.0534
  395POP      C  395   5.551   3.243   4.385 -0.1293 -0.0947  0.0872
  396POP      C  396   5.166   3.281   4.111 -0.4563 -0.0734  0.2845
  397POP      C  397   3.961   4.101   2.546  0.0624  0.2352  0.1950
  398POP      C  398   5.453   4.323   0.952 -0.1052 -0.4184  0.2330
  399POP      C  399   3.783   2.671   4.615 -0.1214  0.0428 -0.1842
  400POP      C  400   3.924   5.787   0.502 -0.1377  0.1082  0.1853
  401POP      C  401   5.105   6.274   2.903  0.1044  0.1330 -0.1142
  402POP      C  402   5.900   6.098   0.393 -0.3851 -0.0684  0.0541
  403POP      C  403   2.568   3.565   1.160 -0.1425  0.1919  0.1280
  404POP      C  404   5.916   5.395   2.685  0.2083 -0.1653  0.0188
  405POP      C  405   0.850   6.428   4.939  0.0752  0.1694 -0.0895
  406POP      C  406   4.143   6.092   4.051 -0.2924 -0.1390  0.2167
  407POP      C  407   1.614   0.169   1.545 -0.2416  0.3316 -0.0385
  408POP      C  408   4.004   3.551   4.976 -0.2436 -0.0671 -0.0152
  409POP      C  409   5.267   5.810   3.731 -0.0554  0.1132  0.2782
  410POP      C  410   4.140   3.698   0.982 -0.0125  0.0521 -0.1982
  411POP      C  411   0.285   3.640   4.866 -0.2491  0.0490  0.0135
  412POP      C  412   3.135   6.505   3.904 -0.1756 -0.0218 -0.2925
  413POP      C  413   4.851   1.550   4.669 -0.2110  0.1975  0.0261
  414POP      C  414   5.441   4.401   1.842 -0.2542 -0.1711  0.1047
  415POP      C  415   0.395   3.476   0.244 -0.1139  0.2051 -0.2571
  416POP      C  416   4.325   4.546   3.197 -0.2033  0.0701 -0.3138
  417POP      C  417   4.409   6.024   0.608  0.0381  0.2592  0.2250
  418POP      C  418   5.775   4.896   5.902  0.0509 -0.0431 -0.2330
  419POP      C  419   0.731   4.480   1.316  0.0788  0.2474  0.2500
  420POP      C  420   6.073   6.371   5.843  0.0776 -0.1822  0.1475
  421POP      C  421   5.479   0.074   0.378  0.0016  0.3468 -0.0363
  422POP      C  422   5.414   0.273   4.443  0.2974  0.1216  0.1405
  423POP      C  423   2.967   1.055   1.124 -0.2378 -0.0390  0.1255
  424POP      C  424   0.523   4.002   0.407 -0.1339 -0.1019 -0.1194
  425POP      C  425   1.880   4.389   1.151 -0.1340 -0.3420 -0.0061
  426POP      C  426   3.432   6.601   2.178 -0.2534  0.0572  0.1721
  427POP      C  427   4.157   2.102   1.156  0.0722 -0.0134  0.5100
  428POP      C  428   0.501   2.538   3.758  0.0917 -0.2390 -0.2845
  429POP      C  429   5.504   3.223   2.427 -0.2054 -0.3206  0.2479
  430POP      C  430   6.332   4.078   2.527 -0.2912  0.1959  0.4027
  431POP      C  431   3.199   4.461   0.659 -0.2042  0.2285 -0.1681
  432POP      C  432   4.040   4.071   0.575  0.1299  0.1851  0.0683
  433POP      C  433   5.034   2.378   5.245  0.1600  0.1216 -0.1314
  434POP      C  434   3.878   1.281   1.889 -0.1762 -0.1349 -0.0246
  435POP      C  435   6.603   0.858   5.879  0.1718 -0.2297  0.1052
  436POP      C  436   0.615   5.501   3.917  0.2558 -0.1678  0.1901
  437POP      C  437   1.960   1.493   6.185 -0.0354  0.2449 -0.1783
  438POP      C  438   5.642   0.612   6.240 -0.1047 -0.1638  0.0955
  439POP      C  439   2.098   3.524   3.760 -0.0570 -0.0034  0.0972
  440POP      C  440   2.023   0.422   3.169 -0.0335 -0.0143 -0.0486
  441POP      C  441   2.449   5.319   0.174  0.3686 -0.2756 -0.1001
  442POP      C  442   1.673   3.476   3.459 -0.1359  0.1236  0.0632
  443POP      C  443   6.108   0.591   6.186 -0.1587 -0.1612  0.1420
  444POP      C  444   1.764   3.103   3.877  0.0851 -0.0695  0.4196
  445POP      C  445   4.549   2.321   4.317 -0.3344 -0.3245  0.0003
  446POP      C  446   0.908   5.622   0.336 -0.0306 -0.0935 -0.1075
  447POP      C  447   2.812   6.170   0.167 -0.1219  0.0753  0.0362
  448POP      C  448   5.050   5.999   0.627 -0.1504 -0.5731 -0.1722
  449POP      C  449   0.302   4.130   4.951 -0.1016  0.1466  0.1676
  450POP      C  450   2.663   4.625   3.692  0.1236 -0.3185  0.0676
  451POP      C  451   5.997   2.384   3.941 -0.0765  0.1328 -0.0210
  452POP      C  452   3.488   4.795   1.836  0.3363  0.1450 -0.0656
  453POP      C  453   3.273   0.799   1.478  0.1842  0.2623 -0.3207
  454POP      C  454   3.077   6.493   3.367 -0.1304 -0.1939  0.0424
  455POP      C  455   4.003   3.744   6.215  0.2550 -0.0603  0.0090
  456POP      C  456   1.893   5.875   4.011  0.0153  0.0059 -0.2183
  457POP      C  457   2.409   5.508   4.919  0.1437 -0.0395  0.1080
  458POP      C  458   0.182   3.897   4.439  0.2591  0.2496 -0.0459
  459POP      C  459   3.693   3.781   0.328  0.1695 -0.1588  0.0781
  460POP      C  460   0.087   5.069   2.743  0.1100  0.1852  0.1633
  461POP      C  461   0.819   5.467   5.137  0.1307  0.0907 -0.1059
  462POP      C  462   1.209   3.230   6.114 -0.1794 -0.0123  0.2106
  463POP      C  463   4.557   4.925   4.004 -0.1172 -0.0918  0.1721
  464POP      C  464   4.708   6.205   3.732  0.2310  0.0949 -0.0968
  465POP      C  465   1.299   0.105   5.863 -0.0182 -0.0919  0.0515
  466POP      C  466   1.324   2.773   6.148 -0.1806 -0.1069  0.1232
  467POP      C  467   5.343   4.627   1.380  0.1514  0.1887 -0.4593
  468POP      C  468   3.718   2.610   3.730 -0.1751  0.0640  0.1197
  469POP      C  469   5.407   2.061   6.572  0.0790 -0.3187  0.1840
  470POP      C  470   3.340   0.317   0.497  0.0853 -0.1230 -0.0451
  471POP      C  471   1.665   2.327   3.215 -0.0030 -0.1711  0.0626
  472POP      C  472   6.309   4.077   6.613  0.1832 -0.1504 -0.0544
  473POP      C  473   3.716   6.296   1.172 -0.1559 -0.2933 -0.1837
  474POP      C  474   5.496   5.467   5.188 -0.0434  0.1404 -0.1836
  475POP      C  475   3.196   6.555   0.961  0.1217 -0.1238  0.1367
  476POP      C  476   4.995   4.303   1.200  0.2617 -0.0972 -0.0520
  477POP      C  477   4.574   0.235   2.177 -0.1118 -0.1993 -0.1271
  478POP      C  478   3.188   1.170   6.289  0.1875  0.3689  0.3223
  479POP      C  479   4.815   1.407   6.050 -0.0934 -0.0572 -0.2089
  480POP      C  480   0.794   1.664   3.976  0.2921  0.0438  0.2028
  481POP      C  481   2.470   5.804   3.524  0.3203  0.1762  0.0721
  482POP      C  482   0.869   3.733   4.972 -0.0430 -0.3576  0.1024
  483POP      C  483   4.458   5.777   6.323 -0.0366 -0.2718  0.2088
  484POP      C  484   3.447   5.851   4.365 -0.2817 -0.1992  0.1014
  485POP      C  485   4.408   3.046   1.703 -0.2389 -0.0128 -0.0433
  486POP      C  486   0.050   1.648   0.527 -0.1033  0.1414  0.1045
  487POP      C  487   3.510   1.030   2.582 -0.0497 -0.0178  0.2881
  488POP      C  488   1.291   1.878   4.005  0.1526 -0.1257 -0.1373
  489POP      C  489   2.041   0.807   0.877 -0.1947 -0.2686  0.3247
  490POP      C  490   4.845   0.114   4.599 -0.0760 -0.2717 -0.0731
  491POP      C  491   1.928   5.787   3.353 -0.3273 -0.1509  0.0707
  492POP      C  492   3.609   1.896   5.741  0.0478  0.0138 -0.2897
  493POP      C  493   5.219   2.825   0.884 -0.1343 -0.0519  0.0621
  494POP      C  494   1.396   2.733   2.524  0.1386  0.0085 -0.2702
  495POP      C  495   1.111   4.611   5.635  0.1440  0.3904  0.0739
  496POP      C  496   3.472   1.876   2.376 -0.0321 -0.2562 -0.0130
  497POP      C  497   4.241   5.716   1.013 -0.0686  0.1057 -0.1021
  498POP      C  498   2.578   3.221   3.236 -0.1531  0.0814  0.2778
  499POP      C  499   2.826   6.308   4.837  0.4223  0.2586  0.0478
  500POP      C  500   2.358   6.277   2.088  0.3624  0.1841  0.0415
  501POP      C  501   6.009   0.185   0.271  0.2016 -0.0415  0.0222
  502POP      C  502   0.392   5.201   5.213 -0.2971 -0.1088  0.1073
  503POP      C  503   5.468   2.247   0.422 -0.4691 -0.0010  0.1732
  504POP      C  504   2.945   0.988   4.960 -0.0542 -0.0087 -0.0132
  505POP      C  505   4.916   3.668   4.008  0.2443  0.0497  0.2538
  506POP      C  506   3.371   2.168   1.563 -0.0830 -0.3854 -0.1084
  507POP      C  507   1.671   6.320   0.026  0.0076 -0.0133 -0.2054
  508POP      C  508   1.454   4.260   3.375 -0.1345  0.1333  0.1425
  509POP      C  509   3.132   4.681   0.217  0.1365  0.0856 -0.2360
  510POP      C  510   0.408   3.187   5.281 -0.2623  0.1438  0.0323
  511POP      C  511   0.102   0.028   1.246  0.0199 -0.0449 -0.0607
  512POP      C  512   1.799   1.355   0.456 -0.2521 -0.1387  0.3054
  513POP      C  513   3.036   3.823   4.598  0.1455  0.1246 -0.4886
  514POP      C  514   6.419   3.745   3.680 -0.3161 -0.2817  0.1026
  515POP      C  515   5.258   5.236   6.318 -0.1567 -0.0277 -0.0865
  516POP      C  516   5.768   6.439   1.182 -0.2877  0.2624 -0.0610
  517POP      C  517   5.519   2.248   4.120  0.1470 -0.1177  0.1331
  518POP      C  518   3.254   0.305   1.391 -0.0890  0.0003 -0.0615
  519POP      C  519   6.239   5.668   0.467  0.0049  0.0296 -0.0319
  520POP      C  520   2.784   5.007   3.365  0.0371 -0.0251  0.0904
  521POP      C  521   4.115   4.357   1.691 -0.1230  0.1250 -0.1760
  522POP      C  522   5.230   4.011   0.032 -0.0807 -0.0130  0.2365
  523POP      C  523   0.778   0.413   0.637  0.1052  0.2413 -0.4960
  524POP      C  524   4.944   0.386   5.833  0.1769  0.3429 -0.0755
  525POP      C  525   5.431   3.566   2.965 -0.1014 -0.0545  0.1919
  526POP      C  526   2.330   0.626   5.752  0.2895 -0.1676  0.1353
  527POP      C  527   3.594   0.822   3.261 -0.0312  0.0013  0.4222
  528POP      C  528   3.639   3.526   5.632 -0.1431 -0.1929 -0.1390
  529POP      C  529   5.164   5.554   2.495 -0.0768 -0.0716 -0.0370
  530POP      C  530   6.597   4.645   2.864 -0.0298 -0.0825  0.2503
  531POP      C  531   2.977   3.783   1.888  0.2926  0.0308 -0.2645
  532POP      C  532   2.850   0.846   2.783 -0.0240  0.1020 -0.1421
  533POP      C  533   4.118   4.015   2.048  0.1131  0.0532 -0.0011
  534POP      C  534   3.399   1.561   0.673 -0.0735  0.0248  0.6020
  535POP      C  535   3.436   2.960   0.103  0.0908  0.0011  0.0058
  536POP      C  536   1.180   1.181   6.295 -0.2905  0.0008  0.1702
  537POP      C  537   4.702   0.029   3.999 -0.3457 -0.4179 -0.1795
  538POP      C  538   1.711   2.597   4.788  0.0687  0.1894  0.0491
  539POP      C  539   4.304   3.912   1.407 -0.2740  0.1070  0.0568
  540POP      C  540   1.032   3.812   1.661 -0.1507  0.4698  0.2725
  541POP      C  541   6.596   0.496   4.821 -0.2549 -0.1226 -0.2021
  542POP      C  542   2.862   0.525   1.578 -0.2930 -0.0404 -0.2493
  543POP      C  543   6.519   2.910   4.527 -0.0364 -0.1997  0.0880
  544POP      C  544   2.671   1.197   6.254  0.2534  0.3319  0.1543
  545POP      C  545   4.659   1.597   0.432 -0.1961  0.2099  0.1764
  546POP      C  546   1.155   2.341   1.571 -0.0110 -0.0141 -0.1068
  547POP      C  547   0.386   1.782   1.868 -0.1046  0.0412 -0.2401
  548POP      C  548   1.038   2.731   1.844  0.2262 -0.3712  0.0127
  549POP      C  549   5.180   6.195   4.146 -0.0544  0.2347  0.4756
  550POP      C  550   3.274   1.111   3.612  0.3621 -0.0984  0.0527
  551POP      C  551   2.492   5.337   4.094  0.1794 -0.2104  0.1759
  552POP      C  552   3.150   1.756   1.984  0.0418 -0.0855 -0.0992
  553POP      C  553   4.786   2.867   0.213  0.0970  0.0625 -0.0123
  554POP      C  554   4.572   1.120   5.057 -0.2240  0.0733  0.2311
  555POP      C  555   0.506   5.488   5.663 -0.2850 -0.1523 -0.0329
  556POP      C  556   5.570   1.201   5.017 -0.0689  0.4250  0.1839
  557POP      C  557   2.296   2.110   0.760  0.1444  0.1233 -0.1697
  558POP      C  558   3.808   0.740   1.663 -0.1752 -0.1590  0.1746
  559POP      C  559   3.079   1.600   4.196 -0.0487 -0.0613  0.0386
  560POP      C  560   0.227   4.816   6.338  0.0307  0.0075 -0.0202
  561POP      C  561   1.579   4.964   2.934  0.0364  0.1201  0.2111
  562POP      C  562   2.914   1.559   3.632  0.0750 -0.1213  0.1867
  563POP      C  563   3.310   3.071   1.945 -0.1712  0.0334 -0.1599
  564POP      C  564   1.170   0.637   1.530  0.0230  0.0518 -0.1564
  565POP      C  565   0.793   2.614   2.710 -0.3474 -0.0203  0.0396
  566POP      C  566   2.669   2.837   5.142  0.1358  0.0162  0.0932
  567POP      C  567   0.557   4.381   6.324  0.2174 -0.0482 -0.2270
  568POP      C  568   5.321   5.885   5.431  0.1144 -0.1127  0.0843
  569POP      C  569   3.190   1.703   6.534 -0.5936  0.3054  0.2352
  570POP      C  570   0.018   4.821   4.278 -0.0642 -0.1038 -0.0422
  571POP      C  571   1.129   0.603   2.393 -0.0318  0.2732 -0.0615
  572POP      C  572   6.297   0.647   5.188 -0.0840 -0.2394 -0.2881
  573POP      C  573   5.193   2.887   2.271  0.0478 -0.0033  0.3836
  574POP      C  574   5.708   2.754   2.361 -0.5895 -0.3919 -0.4017
  575POP      C  575   6.322   4.601   0.646 -0.1665  0.0632 -0.0716
  576POP      C  576   4.050   3.528   2.286 -0.2373 -0.0673 -0.1211
  577POP      C  577   2.791   2.135   2.983 -0.2507 -0.0698 -0.1675
  578POP      C  578   6.196   1.432   3.193  0.0763  0.4633 -0.1088
  579POP      C  579   4.441   0.679   0.021  0.0086 -0.0398  0.1062
  580POP      C  580   4.303   0.992   1.120 -0.0717  0.2388 -0.0988
  581POP      C  581   3.815   5.765   1.265  0.2387 -0.2141  0.1337
  582POP      C  582   5.442   6.204   1.480 -0.1444 -0.1083  0.1939
  583POP      C  583   5.182   3.774   4.432  0.0962  0.2556  0.1008
  584POP      C  584   0.331   2.334   4.187 -0.3100 -0.0240 -0.0072
  585POP      C  585   4.851   1.073   4.611  0.0338  0.1840  0.3279
  586POP      C  586   3.734   4.445   2.037  0.0654  0.0043  0.2728
  587POP      C  587   5.259   0.176   6.313 -0.1052  0.3203 -0.2635
  588POP      C  588   6.202   2.978   3.037 -0.1328 -0.1588  0.1555
  589POP      C  589   3.122   0.621   6.223 -0.0842  0.4147  0.2955
  590POP      C  590   2.878   5.125   0.481 -0.0106  0.4225  0.1151
  591POP      C  591   0.752   4.266   3.381 -0.2248  0.4026 -0.1662
  592POP      C  592   0.037   0.516   5.466  0.1939 -0.0163  0.0331
  593POP      C  593   4.703   1.040   1.828  0.1134  0.3206 -0.2050
  594POP      C  594   5.053   1.971   4.810 -0.2133 -0.0580  0.0734
  595POP      C  595   1.188   6.009   3.969  0.0595 -0.1605  0.2291
  596POP      C  596   0.403   2.019   3.798 -0.2728 -0.0686  0.1165
  597POP      C  597   4.415   4.624   5.015  0.3292  0.0627  0.0036
  598POP      C  598   3.284   2.267   2.056 -0.1073  0.2705  0.0559
  599POP      C  599   1.111   4.477   3.703  0.1464  0.1086  0.1993
  600POP      C  600   1.439   0.814   2.091  0.0939  0.2173  0.1374
  601POP      C  601   1.027   0.106   2.665 -0.2063 -0.3682  0.3410
  602POP      C  602   2.358   5.516   0.613 -0.0865 -0.0660  0.2658
  603POP      C  603   3.051   0.541   1.023 -0.0431 -0.0459  0.0886
  604POP      C  604   3.454   2.133   0.089  0.1451 -0.0464 -0.0018
  605POP      C  605   5.352   3.500   6.197  0.3231 -0.4491  0.3466
  606POP      C  606   2.425   6.267   4.266  0.1897 -0.0596 -0.0548
  607POP      C  607   6.456   2.415   1.644  0.3057  0.2644  0.2006
  608POP      C  608   2.971   3.438   2.520  0.0864 -0.2162 -0.0588
  609POP      C  609   5.063   2.387   6.217  0.0499 -0.0172  0.0067
  610POP      C  610   1.164   4.005   3.688  0.0147  0.0262 -0.0269
  611POP      C  611   1.079   1.533   1.348 -0.1156 -0.0468 -0.0344
  612POP      C  612   5.732   5.748   0.071  0.4610 -0.0478 -0.0705
  613POP      C  613   6.180   2.809   4.938  0.3932  0.1892 -0.2046
  614POP      C  614   4.025   6.158   0.828 -0.0254  0.1039 -0.1828
  615POP      C  615   5.146   3.268   1.986  0.0130 -0.0454 -0.4364
  616POP      C  616   5.145   6.649   3.836  0.3080  0.3620  0.0169
  617POP      C  617   6.595   4.078   5.710  0.0143 -0.3270  0.0678
  618POP      C  618   4.638   4.824   6.562  0.1139  0.5800  0.3856
  619POP      C  619   2.223   1.230   1.839 -0.0664 -0.0916 -0.0152
  620POP      C  620   2.792   5.525   3.237 -0.0081  0.2837  0.2536
  621POP      C  621   3.990   1.750   6.417 -0.2226 -0.1091 -0.4783
  622POP      C  622   3.562   3.663   4.546  0.2380  0.0763 -0.3918
  623POP      C  623   0.273   1.605   6.270 -0.1005  0.0528  0.0695
  624POP      C  624   4.694   1.296   2.325  0.1133  0.4276 -0.3107
  625POP      C  625   6.300   4.278   5.103 -0.1872 -0.1935 -0.2153
  626POP      C  626   5.925   4.091   5.408  0.1135  0.0193 -0.5225
  627POP      C  627   4.965   3.829   5.355 -0.1970 -0.2109  0.3440
  628POP      C  628   5.255   0.133   2.681  0.2181  0.5452 -0.4712
  629POP      C  629   4.987   5.634   4.992 -0.2862  0.2268  0.2603
  630POP      C  630   4.353   1.285   4.520  0.1951  0.2334 -0.0081
  631POP      C  631   5.316   6.290   2.398 -0.1949 -0.0109 -0.1673
  632POP      C  632   4.788   3.433   5.024  0.1157 -0.1905 -0.1582
  633POP      C  633   6.457   5.112   3.256 -0.0768  0.1134 -0.0267
  634POP      C  634   3.897   2.227   1.551 -0.1439 -0.0960 -0.1214
  635POP      C  635   3.586   4.182   4.406  0.1638 -0.0590  0.0095
  636POP      C  636   4.408   0.692   2.258 -0.1080  0.0985  0.0977
  637POP      C  637   1.751   0.679   1.681  0.1524  0.1069  0.1054
  638POP      C  638   5.648   3.989   4.737 -0.1268  0.2935  0.0007
  639POP      C  639   3.233   3.912   5.423 -0.1151 -0.1355 -0.0059
  640POP      C  640   1.358   0.446   0.693 -0.0712  0.1696 -0.0203
  641POP      C  641   6.103   0.676   1.858  0.3142  0.0379 -0.0647
  642POP      C  642   1.962   2.143   4.859 -0.2193  0.3337 -0.0334
  643POP      C  643   4.555   2.743   2.267 -0.3499  0.2388 -0.0107
  644POP      C  644   3.714   3.539   4.067  0.3205  0.1262 -0.0387
  645POP      C  645   5.458   6.334   0.744  0.1938  0.1791  0.0923
  646POP      C  646   0.569   2.225   0.191  0.1077  0.5285 -0.1680
  647POP      C  647   6.288   5.003   0.296 -0.2542 -0.0157 -0.2658
  648POP      C  648   4.236   1.023   3.607  0.0441 -0.2236 -0.0818
  649POP      C  649   5.806   2.530   5.909  0.0406  0.1459  0.0703
  650POP      C  650   4.132   0.959   3.030 -0.2733 -0.1603 -0.0059
  651POP      C  651   3.589   0.095   2.749  0.3016 -0.0897  0.0324
  652POP      C  652   4.227   3.305   6.038 -0.0665 -0.0658 -0.1444
  653POP      C  653   4.207   1.837   0.279 -0.0348  0.1186  0.1793
  654POP      C  654   4.288   5.548   1.517 -0.0639  0.1249 -0.0581
  655POP      C  655   5.712   5.422   3.904  0.0127 -0.1619 -0.1603
  656POP      C  656   4.360   6.468   2.353  0.1253  0.0772  0.1622
  657POP      C  657   5.988   4.331   2.740 -0.0949  0.0626  0.0781
  658POP      C  658   1.321   5.615   5.986  0.0215  0.1341 -0.0512
  659POP      C  659   3.401   1.281   1.667 -0.3040  0.3849 -0.0984
  660POP      C  660   5.093   3.025   4.556  0.2126 -0.0763 -0.0148
  661POP      C  661   3.470   4.618   3.068  0.0492  0.2992  0.1005
  662POP      C  662   1.355   3.210   4.166 -0.1229 -0.1688 -0.0553
  663POP      C  663   3.399   2.709   5.500  0.1949  0.3829  0.3264
  664POP      C  664   0.813   0.766   3.365 -0.3390  0.1277  0.0191
  665POP      C  665   4.303   5.637   3.040  0.1717  0.0393  0.3567
  666POP      C  666   0.392   1.940   4.776 -0.1681 -0.3928 -0.1947
  667POP      C  667   3.475   4.492   3.977  0.1439  0.2803  0.1182
  668POP      C  668   3.088   0.684   4.536 -0.1232  0.1590  0.1798
  669POP      C  669   4.627   2.510   3.832  0.0086 -0.1216 -0.1714
  670POP      C  670   0.036   3.341   4.384 -0.1048  0.1755 -0.1798
  671POP      C  671   6.280   2.816   3.883 -0.3760 -0.3606 -0.3469
  672POP      C  672   3.076   0.670   3.250  0.2297  0.0178  0.2043
  673POP      C  673   3.129   2.987   2.753 -0.1917  0.0980 -0.1068
  674POP      C  674   0.884   2.831   3.432  0.0888 -0.1509  0.3896
  675POP      C  675   1.285   6.331   1.420  0.4019 -0.1396 -0.0178
  676POP      C  676   4.838   0.880   5.809  0.1966  0.0680  0.0988
  677POP      C  677   1.094   2.132   0.191 -0.1873  0.3218  0.4083
  678POP      C  678   6.006   0.087   2.035  0.0701 -0.0824 -0.2398
  679POP      C  679   2.328   2.624   6.010  0.0624 -0.1912 -0.2641
  680POP      C  680   0.622   4.861   0.380 -0.2610 -0.2187 -0.0917
  681POP      C  681   2.123   0.235   5.042 -0.2637  0.0509 -0.3103
  682POP      C  682   4.770   6.313   2.007 -0.2209  0.1523  0.1981
  683POP      C  683   3.910   5.689   4.195  0.2119  0.1111  0.0890
  684POP      C  684   2.692   5.822   2.247  0.2286  0.0977  0.0222
  685POP      C  685   5.752   1.803   4.014  0.1966 -0.0065  0.0561
  686POP      C  686   1.500   0.778   3.610  0.0106  0.1305  0.2190
  687POP      C  687   0.610   6.548   2.793 -0.1220  0.3370 -0.1795
  688POP      C  688   2.429   2.972   1.111  0.1922 -0.1372  0.4764
  689POP      C  689   1.473   3.279   1.336  0.0906 -0.1711  0.1313
  690POP      C  690   4.926   4.025   3.154  0.3574 -0.0891 -0.2008
  691POP      C  691   3.919   0.597   5.687 -0.1262 -0.4088 -0.2028
  692POP      C  692   6.441   2.286   6.082  0.3253 -0.2085 -0.0532
  693POP      C  693   1.061   0.199   1.473 -0.0847 -0.0374 -0.0275
  694POP      C  694   0.049   3.651   2.020 -0.0825 -0.0716 -0.0125
  695POP      C  695   2.397   6.611   4.658  0.0372 -0.0390 -0.4740
  696POP      C  696   6.048   5.056   5.503  0.4408  0.3269 -0.2886
  697POP      C  697   0.815   3.169   5.065  0.0051 -0.1515 -0.2865
  698POP      C  698   4.427   5.485   5.807  0.0273 -0.0381  0.0750
  699POP      C  699   6.282   2.648   2.341  0.0471 -0.1002  0.0058
  700POP      C  700   0.053   1.545   3.281  0.3280  0.1724 -0.1948
  701POP      C  701   5.411   1.567   5.329 -0.1368  0.1032  0.0197
  702POP      C  702   0.169   3.990   0.004 -0.1301 -0.0422  0.1388
  703POP      C  703   1.857   3.800   0.772 -0.1974 -0.0315  0.1898
  704POP      C  704   2.583   3.984   1.530 -0.3907  0.0477 -0.4913
  705POP      C  705   2.510   2.408   2.627  0.0843  0.3618  0.0673
  706POP      C  706   0.221   0.067   0.337  0.0407 -0.2597 -0.2561
  707POP      C  707   5.838   2.560   3.270 -0.0807 -0.1580  0.2860
  708POP      C  708   3.199   2.508   0.277  0.0881  0.0994  0.0661
  709POP      C  709   6.081   5.735   3.116 -0.1284  0.2254  0.0900
  710POP      C  710   2.437   5.841   4.148 -0.0782  0.0082  0.0947
  711POP      C  711   3.989   1.723   2.325 -0.4110  0.1916  0.4289
  712POP      C  712   0.900   5.135   0.762  0.2461 -0.2673  0.0316
  713POP      C  713   6.307   1.959   4.804 -0.0249  0.3941  0.2122
  714POP      C  714   4.887   5.362   3.195  0.0587  0.2351 -0.0852
  715POP      C  715   1.279   4.818   1.123 -0.0147  0.3585 -0.4297
  716POP      C  716   0.908   4.169   4.686  0.1230 -0.1962  0.2524
  717POP      C  717   5.849   4.653   5.285  0.0060  0.4476  0.0127
  718POP      C  718   4.918   3.305   6.018  0.3441  0.1654  0.0263
  719POP      C  719   0.141   4.372   5.320  0.2050  0.1137 -0.1666
  720POP      C  720   1.906   6.146   1.823  0.0180  0.0128 -0.1344
  721POP      C  721   0.662   2.553   6.421 -0.0131  0.0600  0.4388
  722POP      C  722   6.004   5.538   5.423  0.2141  0.2526  0.0750
  723POP      C  723   4.277   1.008   1.626 -0.0003 -0.3747  0.0596
  724POP      C  724   0.370   2.160   0.896  0.0906 -0.2764 -0.0401
  725POP      C  725   5.631   4.952   3.689 -0.1873  0.1805 -0.0487
  726POP      C  726   0.953   3.387   3.682 -0.2238 -0.0484 -0.3372
  727POP      C  727   0.881   6.400   0.027 -0.0608  0.0511  0.2313
  728POP      C  728   1.511   3.678   3.942 -0.0262 -0.3908 -0.1370
  729POP      C  729   5.444   6.266   5.765  0.0508 -0.1618 -0.2717
  730POP      C  730   2.016   6.551   1.434  0.1467  0.1104 -0.1568
  731POP      C  731   4.379   4.959   4.477 -0.0388  0.0052 -0.1746
  732POP      C  732   3.461   1.133   5.763  0.2084  0.5204 -0.0605
  733POP      C  733   5.872   5.146   4.998 -0.1891  0.0080 -0.1176
  734POP      C  734   4.213   0.304   0.241 -0.2394 -0.0573  0.0336
  735POP      C  735   0.182   5.018   5.893 -0.0701 -0.1888  0.2012
  736POP      C  736   1.378   0.678   6.033  0.1847  0.1879 -0.0877
  737POP      C  737   5.312   6.615   5.371 -0.3101 -0.1976  0.0431
  738POP      C  738   6.330   5.861   5.139  0.0281  0.2136  0.1839
  739POP      C  739   3.204   4.339   6.521 -0.1043 -0.1505  0.1739
  740POP      C  740   2.195   0.216   1.749  0.1070  0.3647 -0.1536
  741POP      C  741   0.193   5.804   2.478  0.1029 -0.0243  0.1753
  742POP      C  742   1.345   2.488   6.593  0.0144  0.0277  0.2241
  743POP      C  743   4.158   6.006   2.397 -0.0489  0.0014  0.2313
  744POP      C  744   0.465   5.395   2.688 -0.0457  0.0912 -0.1396
  745POP      C  745   1.719   0.528   1.197 -0.0566  0.3557  0.3260
  746POP      C  746   1.906   6.101   4.720  0.0256 -0.0354  0.1671
  747POP      C  747   4.660   5.244   1.610  0.2223  0.1117 -0.3099
  748POP      C  748   1.845   1.669   5.151 -0.1346 -0.0585  0.1660
  749POP      C  749   5.701   5.895   4.105 -0.2345 -0.2808  0.1377
  750POP      C  750   6.438   4.372   1.585  0.3325  0.0424  0.1688
  751POP      C  751   3.855   6.474   3.098  0.1703  0.0299  0.1383
  752POP      C  752   6.532   1.965   3.764  0.0956 -0.2395  0.5831
  753POP      C  753   2.033   6.180   0.307 -0.3495  0.3477  0.1640
  754POP      C  754   2.360   1.616   2.456  0.0801 -0.0961  0.0124
  755POP      C  755   6.557   5.958   2.839 -0.3215  0.3970  0.1716
  756POP      C  756   4.342   0.465   2.662 -0.0928  0.1674 -0.0763
  757POP      C  757   4.031   1.563   5.456  0.0334  0.0593 -0.0130
  758POP      C  758   0.050   5.670   4.947  0.2075  0.3161  0.3166
  759POP      C  759   2.315   0.268   1.229 -0.1458  0.0144  0.0663
  760POP      C  760   4.175   0.787   4.325  0.0146 -0.0327  0.0538
  761POP      C  761   4.241   5.659   1.983  0.4479 -0.0037  0.0551
  762POP      C  762   0.285   0.816   6.267  0.0213  0.1659  0.0636
  763POP      C  763   1.377   4.277   1.434  0.2483 -0.2332  0.0327
  764POP      C  764   6.372   6.602   2.313  0.0440  0.1889 -0.1607
  765POP      C  765   3.391   0.590   5.626 -0.2427  0.0204 -0.2585
  766POP      C  766   0.141   4.624   1.156 -0.0742  0.1288 -0.0616
  767POP      C  767   6.076   0.315   1.526 -0.1685 -0.1236 -0.1110
  768POP      C  768   1.308   4.797   5.257  0.2612  0.1341  0.3322
  769POP      C  769   5.901   3.623   4.366 -0.1533 -0.1492 -0.1984
  770POP      C  770   4.172   0.396   0.846  0.0222  0.1488  0.0362
  771POP      C  771   3.024   6.118   0.667 -0.3476  0.0672  0.0301
  772POP      C  772   5.784   1.767   5.611 -0.0623 -0.2548 -0.1818
  773POP      C  773   1.916   3.080   6.498 -0.1109 -0.0890  0.0098
  774POP      C  774   0.673   5.980   4.029 -0.1469  0.1671 -0.0189
  775POP      C  775   2.223   3.233   0.138 -0.3016  0.0553  0.2561
  776POP      C  776   0.287   5.846   4.427  0.0530 -0.0353 -0.2015
  777POP      C  777   4.199   0.191   3.239 -0.3835 -0.2751 -0.3320
  778POP      C  778   6.269   5.467   6.204 -0.2645  0.2057 -0.2018
  779POP      C  779   5.328   5.847   6.308 -0.0834 -0.0273  0.1243
  780POP      C  780   2.850   4.566   1.130 -0.0606 -0.0552 -0.0532
  781POP      C  781   5.115   6.197   5.060 -0.1435  0.0935  0.2240
  782POP      C  782   0.859   3.730   5.539 -0.1427  0.1932 -0.1510
  783POP      C  783   2.267   0.692   1.408  0.0633 -0.0743  0.1579
  784POP      C  784   6.000   1.811   2.106 -0.1837 -0.1012  0.2822
  785POP      C  785   5.140   2.634   0.046  0.0584 -0.1054  0.3693
  786POP      C  786   0.710   6.516   2.217  0.1521  0.1522  0.0907
  787POP      C  787   5.897   2.556   1.546 -0.0630  0.2393  0.1834
  788POP      C  788   5.248   1.814   1.296 -0.0241  0.3390 -0.1045
  789POP      C  789   4.401   6.552   5.132  0.1476  0.0091  0.0817
  790POP      C  790   3.834   1.833   0.682  0.2567  0.0798 -0.2357
  791POP      C  791   1.373   3.315   0.859 -0.2131  0.1302 -0.0753
  792POP      C  792   0.707   3.138   0.105  0.1245 -0.2809 -0.1992
  793POP      C  793   4.638   6.262   4.266  0.3157  0.0836  0.1904
  794POP      C  794   2.166   4.012   4.563  0.0621  0.0097  0.0180
  795POP      C  795   5.428   2.759   0.417  0.2139 -0.1244  0.0302
  796POP      C  796   6.295   4.900   2.567 -0.3029  0.0475 -0.2482
  797POP      C  797   3.504   0.356   1.905 -0.0382  0.0186 -0.0725
  798POP      C  798   1.525   3.664   2.764  0.1781  0.0950 -0.1030
  799POP      C  799   2.583   6.590   0.300 -0.0817 -0.0056 -0.2244
  800POP      C  800   1.951   0.849   4.976 -0.1600 -0.2100  0.0582
  801POP      C  801   0.180   1.835   4.192  0.0421  0.0517  0.0542
  802POP      C  802   6.111   3.147   4.402 -0.1434  0.2270 -0.1651
  803POP      C  803   6.217   5.981   1.879 -0.1185 -0.1100  0.0071
  804POP      C  804   5.303   4.138   2.261  0.2650 -0.0127 -0.0255
  805POP      C  805   4.788   1.785   5.148  0.0846 -0.2078 -0.1165
  806POP      C  806   4.141   3.589   0.483  0.0842 -0.1100  0.3146
  807POP      C  807   5.138   0.400   1.390  0.0980  0.1300 -0.1836
  808POP      C  808   6.142   3.583   2.213 -0.0685 -0.1114  0.1941
  809POP      C  809   1.202   3.729   1.142  0.1289  0.0901 -0.1707
  810POP      C  810   4.484   3.936   0.431 -0.1468  0.0900  0.0817
  811POP      C  811   6.315   3.427   0.724 -0.0671 -0.0118  0.1048
  812POP      C  812   4.373   5.424   4.245  0.0388 -0.1525 -0.1708
  813POP      C  813   5.280   0.474   5.322  0.1919  0.3835 -0.1076
  814POP      C  814   4.357   1.474   3.302  0.2774  0.0301  0.0009
  815POP      C  815   0.812   1.744   5.065  0.2138 -0.1088  0.2125
  816POP      C  816   2.539   5.023   1.750  0.2457  0.1782 -0.3268
  817POP      C  817   5.536   3.332   3.405 -0.1134 -0.1016 -0.0974
  818POP      C  818   5.345   1.563   4.812 -0.0733 -0.0889 -0.0333
  819POP      C  819   3.897   5.126   4.311  0.0934 -0.3028 -0.2709
  820POP      C  820   4.388   4.693   0.867  0.0555  0.0409 -0.1305
  821POP      C  821   6.529   3.694   6.350 -0.2800 -0.0984  0.0331
  822POP      C  822   4.423   2.962   5.641 -0.2187  0.2381 -0.0254
  823POP      C  823   0.172   1.576   2.760 -0.0387 -0.2043 -0.3678
  824POP      C  824   2.464   0.307   4.238  0.0993 -0.0530  0.0003
  825POP      C  825   1.650   2.014   5.554 -0.0348 -0.1102  0.1457
  826POP      C  826   6.577   6.096   4.785  0.0656  0.1711 -0.1725
  827POP      C  827   5.459   4.700   4.941 -0.2198 -0.2694  0.0836
  828POP      C  828   4.186   2.314   3.738 -0.1918  0.1990 -0.0275
  829POP      C  829   1.752   1.157   1.846  0.2282 -0.0057  0.2526
  830POP      C  830   0.872   4.182   2.409  0.1406 -0.1223  0.2572
  831POP      C  831   0.130   4.700   4.959 -0.0086  0.1338  0.3028
  832POP      C  832   0.858   5.070   1.876  0.0077  0.1492  0.0085
  833POP      C  833   3.965   1.123   5.702 -0.0256 -0.0893 -0.0623
  834POP      C  834   4.832   2.215   2.277  0.0824 -0.0341  0.1850
  835POP      C  835   4.764   2.548   4.704  0.2457 -0.1681 -0.0823
  836POP      C  836   0.565   5.436   2.166  0.1870 -0.0395 -0.1039
  837POP      C  837   0.023   4.579   2.326 -0.0968  0.1710  0.1033
  838POP      C  838   0.093   2.969   3.372 -0.0358 -0.0834  0.3135
  839POP      C  839   1.710   5.564   2.969 -0.1531 -0.6848 -0.1964
  840POP      C  840   5.794   1.213   0.322 -0.0768 -0.0485 -0.2417
  841POP      C  841   0.925   3.721   6.078 -0.1089 -0.0385 -0.1248
  842POP      C  842   4.692   5.050   5.831  0.0865 -0.0495  0.3457
  843POP      C  843   1.679   2.682   4.245  0.1288 -0.0700  0.2742
  844POP      C  844   2.299   1.577   0.830 -0.0366 -0.1200  0.0461
  845POP      C  845   2.413   0.015   0.799  0.1272 -0.0835  0.0955
  846POP      C  846   3.528   3.269   2.952  0.1873 -0.1936  0.2953
  847POP      C  847   5.802   1.587   4.569  0.1288  0.0387  0.0978
  848POP      C  848   6.168   6.275   6.367 -0.3871  0.0998 -0.0477
  849POP      C  849   1.457   5.418   1.712 -0.0691 -0.1128 -0.0221
  850POP      C  850   2.411   4.979   0.554  0.1558  0.0773  0.0280
  851POP      C  851   2.883   6.088   4.129  0.0510 -0.2975  0.2478
  852POP      C  852   6.003   1.205   3.745  0.3107 -0.1273  0.2010
  853POP      C  853   1.278   4.463   4.864 -0.0321 -0.0979  0.0187
  854POP      C  854   2.488   1.343   3.532  0.1350 -0.0795  0.0851
  855POP      C  855   0.633   3.678   2.381 -0.0545  0.0117 -0.0377
  856POP      C  856   6.354   2.625   3.396  0.0071  0.0718 -0.1023
  857POP      C  857   3.649   5.133   2.689  0.2698  0.0318  0.0434
  858POP      C  858   0.918   2.702   4.962  0.0181  0.2658  0.0822
  859POP      C  859   1.848   5.694   2.114 -0.0945 -0.0399 -0.0374
  860POP      C  860   2.641   2.402   3.573  0.3055  0.0853  0.2085
  861POP      C  861   5.305   1.507   5.862  0.1915 -0.0142 -0.2688
  862POP      C  862   5.866   6.288   2.278 -0.0907 -0.2558  0.0679
  863POP      C  863   1.353   4.267   6.121 -0.0070 -0.0004  0.1286
  864POP      C  864   2.719   5.332   4.553 -0.0385  0.2094 -0.0446
  865POP      C  865   0.659   3.863   3.746  0.0270  0.0657 -0.0788
  866POP      C  866   0.802   1.418   5.442 -0.2592 -0.0539 -0.1701
  867POP      C  867   4.331   5.815   3.608  0.0477  0.1927 -0.1306
  868POP      C  868   6.480   4.459   6.232  0.2274 -0.0377 -0.2939
  869POP      C  869   1.085   1.567   2.666 -0.1101 -0.2171 -0.0544
  870POP      C  870   3.783   0.325   4.732  0.2612 -0.1242  0.0430
  871POP      C  871   5.315   1.257   1.303 -0.1759 -0.0388 -0.1114
  872POP      C  872   1.519   0.265   6.393 -0.0045  0.2330  0.2893
  873POP      C  873   6.334   5.028   0.846  0.1134 -0.0182 -0.0227
  874POP      C  874   2.527   0.710   3.294 -0.0915 -0.1754  0.3194
  875POP      C  875   1.662   1.629   2.579 -0.3722  0.0258  0.3617
  876POP      C  876   5.516   4.013   4.041 -0.0911  0.0915 -0.1862
  877POP      C  877   2.484   0.969   6.649 -0.0119 -0.2559  0.0285
  878POP      C  878   0.403   6.053   5.944  0.1426  0.0815 -0.2890
  879POP      C  879   2.016   1.579   3.573 -0.1468  0.0273  0.0817
  880POP      C  880   6.405   3.658   4.134  0.3325  0.2408  0.1616
  881POP      C  881   3.159   5.628   6.379  0.4272  0.1025  0.0630
  882POP      C  882   2.110   2.314   5.714  0.1649 -0.2506 -0.0144
  883POP      C  883   6.546   2.008   3.007 -0.0927  0.1483 -0.2777
  884POP      C  884   5.552   2.762   1.277 -0.2876 -0.0445  0.0987
  885POP      C  885   3.576   3.894   6.421  0.0100  0.1997  0.2983
  886POP      C  886   0.130   2.748   1.818 -0.0162  0.2815 -0.1703
  887POP      C  887   5.228   5.804   2.951  0.0904 -0.2561 -0.3433
  888POP      C  888   2.679   2.319   4.961  0.0659 -0.2507 -0.1761
  889POP      C  889   0.437   6.199   0.252 -0.3728 -0.0305 -0.2699
  890POP      C  890   3.794   3.867   1.301 -0.0735  0.0461  0.1575
  891POP      C  891   4.961   4.801   6.205 -0.1000  0.2571  0.2871
  892POP      C  892   2.575   4.016   6.418  0.1059  0.1472  0.0055
  893POP      C  893   1.711   4.405   4.312 -0.0895  0.0491  0.2085
  894POP      C  894   5.082   0.907   4.158  0.0538  0.0200  0.2085
  895POP      C  895   1.276   2.639   4.568  0.1394  0.2153 -0.0011
  896POP      C  896   4.456   2.419   0.877 -0.0659 -0.2706  0.0626
  897POP      C  897   6.118   5.869   2.644 -0.0618  0.2158 -0.0356
  898POP      C  898   2.950   6.222   5.279 -0.3060  0.0496 -0.2314
  899POP      C  899   0.010   3.182   2.909 -0.3330  0.2039  0.0512
  900POP      C  900   3.604   2.910   3.355  0.1678  0.0764 -0.2383
  901POP      C  901   2.651   2.353   4.452  0.0432 -0.2151 -0.2152
  902POP      C  902   4.502   3.167   6.465 -0.0780 -0.1748  0.2449
  903POP      C  903   1.666   1.620   1.585  0.1348  0.1056 -0.1775
  904POP      C  904   2.953   0.603   0.075  0.2020 -0.3860 -0.2166
  905POP      C  905   6.209   3.226   5.304 -0.0076 -0.3991 -0.0877
  906POP      C  906   4.446   3.970   4.427  0.2111 -0.0070  0.2597
  907POP      C  907   3.134   3.142   5.228  0.1855 -0.0972  0.1661
  908POP      C  908   3.564   3.929   2.142  0.1506 -0.6110  0.1572
  909POP      C  909   1.302   5.924   0.212 -0.0811  0.0548 -0.0891
  910POP      C  910   4.864   4.766   4.805  0.0363 -0.2543  0.1452
  911POP      C  911   4.570   6.026   5.868 -0.2588 -0.0029 -0.1139
  912POP      C  912   6.283   4.596   1.216  0.3705 -0.0192 -0.1847
  913POP      C  913   5.955   0.133   6.203 -0.1636  0.1975  0.0250
  914POP      C  914   6.203   3.987   0.648  0.4078  0.0027  0.0288
  915POP      C  915   3.136   5.853   3.351  0.1486  0.1664 -0.1253
  916POP      C  916   3.403   3.745   1.688  0.0463 -0.0794  0.0985
  917POP      C  917   1.304   5.151   6.255  0.1330  0.0972  0.1068
  918POP      C  918   3.898   3.398   0.042 -0.1758 -0.0521 -0.0755
  919POP      C  919   4.943   0.785   5.263 -0.0160  0.1166 -0.2100
  920POP      C  920   2.273   3.921   4.006  0.1010 -0.3575 -0.0379
  921POP      C  921   0.683   3.388   1.991  0.2662 -0.0599 -0.2158
  922POP      C  922   6.164   5.186   1.299 -0.0718  0.1601 -0.0559
  923POP      C  923   5.577   6.288   3.739 -0.1204  0.2501  0.2386
  924POP      C  924   3.445   5.503   1.051  0.1082 -0.3180 -0.1940
  925POP      C  925   1.691   1.866   2.098  0.0697  0.2044 -0.2585
  926POP      C  926   5.768   2.535   5.022 -0.1415  0.0859  0.1983
  927POP      C  927   3.618   2.389   3.251  0.0485 -0.0405  0.0195
  928POP      C  928   1.893   3.632   6.206 -0.2320 -0.1333  0.4347
  929POP      C  929   1.948   5.651   5.889  0.0559 -0.1436  0.1645
  930POP      C  930   0.737   5.454   1.518 -0.1263 -0.3074  0.3106
  931POP      C  931   2.076   3.093   3.421 -0.0383 -0.1284  0.3517
  932POP      C  932   2.646   0.558   2.410  0.2922  0.3593  0.2879
  933POP      C  933   2.628   0.816   4.268 -0.0585  0.1000  0.1334
  934POP      C  934   3.863   0.287   1.461 -0.3943 -0.2631  0.0557
  935POP      C  935   0.828   3.137   1.059  0.3194  0.1628  0.1852
  936POP      C  936   0.316   1.173   5.397 -0.0081  0.2224 -0.1994
  937POP      C  937   1.887   1.944   3.893  0.0688 -0.0106  0.0652
  938POP      C  938   1.121   5.078   4.270  0.1955  0.4737  0.2124
  939POP      C  939   1.766   3.172   6.036 -0.1703  0.0176 -0.1808
  940POP      C  940   1.599   0.860   6.461  0.2688  0.0012  0.0146
  941POP      C  941   6.623   4.287   0.409 -0.0040 -0.0756  0.0968
  942POP      C  942   0.438   0.378   5.910  0.0154 -0.2335 -0.3511
  943POP      C  943   2.616   5.711   6.304 -0.3404  0.1423  0.0243
  944POP      C  944   1.321   4.089   4.304 -0.3070  0.1545  0.3665
  945POP      C  945   3.840   2.759   2.320 -0.0168 -0.2940 -0.0565
  946POP      C  946   3.293   1.395   2.227 -0.0824  0.0564  0.0341
  947POP      C  947   5.278   1.092   5.576  0.1493 -0.0335 -0.0311
  948POP      C  948   4.736   6.328   4.808  0.1906  0.1140 -0.1316
  949POP      C  949   3.571   4.954   5.057  0.0894 -0.2603  0.3298
  950POP      C  950   4.004   3.907   4.598  0.0685  0.0935 -0.0533
  951POP      C  951   6.638   0.750   3.472 -0.1753  0.2160  0.2231
  952POP      C  952   2.037   3.684   1.327 -0.0130 -0.1206 -0.0992
  953POP      C  953   1.345   1.951   2.943  0.1220  0.2668  0.1092
  954POP      C  954   3.733   2.057   3.724 -0.0607 -0.1900 -0.0482
  955POP      C  955   5.590   2.565   3.743  0.0865  0.1022 -0.1353
  956POP      C  956   3.286   1.078   2.975 -0.1992 -0.0976 -0.1899
  957POP      C  957   2.669   2.210   1.256  0.4507 -0.2921  0.0328
  958POP      C  958   3.012   0.671   2.036 -0.1161 -0.1653  0.1525
  959POP      C  959   3.745   1.176   5.171 -0.0027 -0.0386  0.0912
  960POP      C  960   6.574   3.124   0.934 -0.2464  0.1624 -0.0764
  961POP      C  961   1.524   3.975   1.909  0.3467 -0.0532 -0.0744
  962POP      C  962   1.363   0.538   5.533 -0.6616 -0.1606 -0.0511
  963POP      C  963   1.762   3.325   0.482  0.1221 -0.1340 -0.1990
  964POP      C  964   0.603   6.370   1.042  0.0932 -0.2727 -0.0309
  965POP      C  965   0.117   2.266   0.376  0.1674 -0.1082  0.1955
  966POP      C  966   5.844   2.818   5.445  0.0320  0.1147  0.2439
  967POP      C  967   0.188   3.484   2.489 -0.0087 -0.2000  0.0850
  968POP      C  968   6.538   6.150   2.302  0.1790 -0.3859 -0.0073
  969POP      C  969   4.122   2.706   4.132  0.0717  0.1030  0.2544
  970POP      C  970   0.061   5.190   4.675 -0.0057  0.2180  0.1447
  971POP      C  971   2.394   4.217   3.481  0.1279 -0.3017 -0.0487
  972POP      C  972   6.450   2.157   6.565 -0.2250 -0.0485 -0.0079
  973POP      C  973   1.681   2.964   3.069 -0.2688  0.0274 -0.0838
  974POP      C  974   0.654   2.687   0.715  0.3744 -0.0316  0.3085
  975POP      C  975   5.175   3.791   3.485  0.1371 -0.1017 -0.1114
  976POP      C  976   2.387   3.631   1.794  0.4859 -0.0030 -0.3449
  977POP      C  977   5.165   3.037   5.644 -0.0559 -0.0268 -0.5685
  978POP      C  978   1.361   1.702   5.157 -0.1366  0.3325  0.3354
  979POP      C  979   3.063   0.066   5.443 -0.1536  0.0493 -0.1415
  980POP      C  980   0.022   2.530   3.812 -0.2742 -0.1110  0.2220
  981POP      C  981   1.023   0.860   3.810 -0.1466  0.2584 -0.1170
  982POP      C  982   5.976   0.468   0.968  0.2256 -0.1083 -0.1604
  983POP      C  983   3.655   3.104   5.304  0.1486 -0.1805  0.0916
  984POP      C  984   4.838   0.510   1.869 -0.0671 -0.0699 -0.0608
  985POP      C  985   4.932   1.946   3.170 -0.1191  0.1111  0.0924
  986POP      C  986   0.450   0.999   1.863 -0.0472  0.0649 -0.0438
  987POP      C  987   0.925   4.211   5.943  0.0653  0.2635 -0.1316
  988POP      C  988   2.796   2.994   6.066 -0.1930  0.3385 -0.0924
  989POP      C  989   4.582   1.753   5.770 -0.0915 -0.0258  0.1200
  990POP      C  990   0.899   6.182   0.499 -0.2756  0.1025  0.0953
  991POP      C  991   6.592   1.172   1.761 -0.0636 -0.1350  0.0655
  992POP      C  992   3.818   6.394   5.109 -0.1442 -0.1693 -0.2579
  993POP      C  993   3.794   1.931   2.847 -0.1266 -0.1488  0.0285
  994POP      C  994   0.829   0.170   3.212  0.1096  0.2709  0.0094
  995POP      C  995   0.582   3.380   6.045  0.0834  0.0507  0.0056
  996POP      C  996   0.238   3.515   3.882 -0.0005 -0.0213 -0.6112
  997POP      C  997   6.517   6.216   4.349 -0.0856  0.0834 -0.0717
  998POP      C  998   4.227   3.813   5.750 -0.1502 -0.0739  0.2134
  999POP      C  999   5.145   0.819   1.071 -0.0870  0.1268 -0.0089
 1000POP      C 1000   6.639   3.546   5.559 -0.1130  0.0090 -0.1282
 1001POP      C 1001   4.479   2.917   3.605 -0.1381 -0.1508  0.3275
 1002POP      C 1002   2.432   1.874   3.640 -0.1925  0.1849  0.1578
 1003POP      C 1003   1.647   5.584   6.621  0.1778  0.0504 -0.5209
 1004POP      C 1004   3.814   1.401   4.599 -0.1593  0.1327 -0.1196
 1005POP      C 1005   3.565   0.312   0.998 -0.0365  0.0168 -0.0036
 1006POP      C 1006   5.652   6.423   2.772 -0.1570  0.2287  0.1862
 1007POP      C 1007   2.252   4.335   5.084  0.2491 -0.1147 -0.1234
 1008POP      C 1008   2.485   1.681   1.544  0.0341  0.2975 -0.1187
 1009POP      C 1009   4.412   2.260   0.397 -0.0112 -0.1173  0.0310
 1010POP      C 1010   5.605   1.014   0.950 -0.0631 -0.3787  0.1646
 1011POP      C 1011   0.287   1.397   3.740 -0.0953 -0.1968  0.1014
 1012POP      C 1012   1.982   5.640   0.296  0.1714 -0.2746 -0.0038
 1013POP      C 1013   4.923   1.009   3.721  0.0443  0.1390  0.2071
 1014POP      C 1014   3.128   3.148   3.291  0.0150 -0.1908 -0.1500
 1015POP      C 1015   0.978   2.444   2.239 -0.1446 -0.0153 -0.0755
 1016POP      C 1016   5.786   4.886   0.679 -0.2191  0.3383  0.0127
 1017POP      C 1017   4.735   6.162   2.515  0.0325  0.2406 -0.1419
 1018POP      C 1018   5.517   5.866   0.572  0.0302 -0.3312  0.0237
 1019POP      C 1019   2.699   2.054   4.092  0.2163  0.1751  0.0469
 1020POP      C 1020   2.985   5.439   2.481 -0.0412  0.1750 -0.0188
 1021POP      C 1021   0.553   5.762   3.466  0.5105 -0.2788 -0.2623
 1022POP      C 1022   1.637   6.577   4.583  0.1135 -0.1387 -0.0732
 1023POP      C 1023   0.380   0.566   3.913  0.0117  0.3142  0.1288
 1024POP      C 1024   5.933   0.972   4.175 -0.3928 -0.0771  0.0126
 1025POP      C 1025   0.973   1.357   0.099 -0.2497  0.0104 -0.3404
 1026POP      C 1026   5.562   5.027   5.409  0.1030 -0.1380 -0.1267
 1027POP      C 1027   4.880   6.134   6.402 -0.0077  0.3098 -0.0304
 1028POP      C 1028   4.912   5.650   6.479  0.0651 -0.0098  0.0486
 1029POP      C 1029   0.627   1.696   2.399  0.1227 -0.0464 -0.4374
 1030POP      C 1030   3.684   6.267   3.975  0.0791 -0.1070  0.0469
 1031POP      C 1031   1.940   5.162   0.529  0.1264 -0.1414  0.4372
 1032POP      C 1032   3.994   0.778   0.040 -0.1111  0.1010 -0.0884
 1033POP      C 1033   3.578   5.645   0.089 -0.0690 -0.1140  0.4329
 1034POP      C 1034   6.070   2.150   5.256  0.1137  0.3183  0.3957
 1035POP      C 1035   5.552   2.005   0.863  0.0488 -0.0563  0.2284
 1036POP      C 1036   3.515   2.222   4.607  0.0299  0.0831 -0.3615
 1037POP      C 1037   5.955   5.502   0.909 -0.1691 -0.0714 -0.1913
 1038POP      C 1038   2.085   3.969   6.473 -0.0256  0.1102  0.3811
 1039POP      C 1039   5.669   4.048   3.590  0.2428  0.2409  0.0370
 1040POP      C 1040   6.021   5.574   2.130  0.0349  0.3080  0.0327
 1041POP      C 1041   6.587   6.134   5.628 -0.1868  0.0771  0.2706
 1042POP      C 1042   6.349   3.515   2.725  0.0359 -0.2084  0.1193
 1043POP      C 1043   2.017   0.005   2.628 -0.1384  0.0757  0.3989
 1044POP      C 1044   6.168   2.675   1.172 -0.1116  0.0787 -0.3369
 1045POP      C 1045   3.223   3.376   6.265 -0.0307  0.0640 -0.3691
 1046POP      C 1046   3.821   3.125   1.509 -0.1255 -0.2831  0.0983
 1047POP      C 1047   3.177   3.634   2.971  0.1152 -0.0412 -0.0230
 1048POP      C 1048   4.500   1.789   2.296 -0.3682  0.2109 -0.1510
 1049POP      C 1049   0.701   1.740   0.261  0.1353 -0.1105  0.2306
 1050POP      C 1050   4.335   5.471   0.550  0.1534 -0.1499  0.3363
 1051POP      C 1051   3.925   2.259   4.219  0.0932  0.1142 -0.1969
 1052POP      C 1052   0.640   1.393   1.076  0.2415  0.2576  0.0082
 1053POP      C 1053   1.985   5.693   2.595 -0.0394 -0.2134  0.0946
 1054POP      C 1054   5.446   1.143   4.546  0.0233 -0.1393  0.1969
 1055POP      C 1055   4.636   2.286   1.856 -0.0798  0.2739  0.0995
 1056POP      C 1056   3.195   1.974   0.936 -0.1076  0.3672 -0.1696
 1057POP      C 1057   6.558   0.995   0.308 -0.1191 -0.2018  0.0052
 1058POP      C 1058   1.037   2.324   6.165  0.2390  0.0314 -0.0716
 1059POP      C 1059   2.396   4.891   4.862  0.4984 -0.0291 -0.2935
 1060POP      C 1060   1.317   2.618   3.470  0.0267  0.2112  0.0283
 1061POP      C 1061   1.478   5.597   4.101  0.1676  0.5385 -0.1797
 1062POP      C 1062   0.149   3.744   2.939 -0.0022  0.0357 -0.3466
 1063POP      C 1063   3.994   1.881   4.653  0.2858 -0.3074  0.1544
 1064POP      C 1064   3.855   2.238   2.088 -0.0703  0.2581 -0.0000
 1065POP      C 1065   6.617   0.786   0.781 -0.1407 -0.2080 -0.1969
 1066POP      C 1066   0.576   0.807   5.702 -0.0319  0.0160 -0.2659
 1067POP      C 1067   5.381   2.129   3.249 -0.2649 -0.0660  0.0994
 1068POP      C 1068   1.336   3.114   3.553  0.3941 -0.1520  0.1214
 1069POP      C 1069   4.902   6.532   5.971 -0.2770 -0.1376  0.2591
 1070POP      C 1070   2.117   0.964   0.353 -0.1354  0.0460 -0.1483
 1071POP      C 1071   2.042   0.725   3.576 -0.0664 -0.0093 -0.1936
 1072POP      C 1072   4.920   2.026   5.967 -0.0456 -0.0567 -0.0559
 1073POP      C 1073   1.304   1.785   6.506  0.0425  0.0379  0.1869
 1074POP      C 1074   1.760   3.430   1.705 -0.0440 -0.0464 -0.0711
 1075POP      C 1075   2.853   5.630   0.828 -0.2544 -0.0483 -0.0788
 1076POP      C 1076   1.803   0.922   3.075 -0.0803  0.2354 -0.4332
 1077POP      C 1077   2.623   6.646   2.331  0.2315  0.1415  0.2024
 1078POP      C 1078   2.969   5.206   1.001  0.1419 -0.2959 -0.2809
 1079POP      C 1079   4.190   4.638   6.560  0.2059 -0.1561  0.1162
 1080POP      C 1080   2.204   1.607   4.055 -0.1058 -0.2052 -0.1132
 1081POP      C 1081   0.973   5.575   4.250  0.0000 -0.2347 -0.0329
 1082POP      C 1082   2.649   0.908   5.369 -0.0725 -0.1888 -0.3457
 1083POP      C 1083   1.835   0.724   5.908  0.0793 -0.2336  0.1215
 1084POP      C 1084   3.107   4.347   4.537  0.1496 -0.3388  0.1039
 1085POP      C 1085   0.761   4.378   0.134 -0.4363  0.0253 -0.1170
 1086POP      C 1086   2.530   3.781   3.292 -0.0816 -0.1316  0.2097
 1087POP      C 1087   3.039   3.908   6.548  0.3275 -0.0258  0.0661
 1088POP      C 1088   1.796   3.063   2.178 -0.0866  0.0252 -0.0301
 1089POP      C 1089   2.175   2.584   4.432 -0.1787 -0.1229  0.1566
 1090POP      C 1090   3.232   3.626   1.105 -0.2452 -0.0746  0.0973
 1091POP      C 1091   6.347   1.711   1.126  0.1098 -0.1491  0.0958
 1092POP      C 1092   6.266   1.429   4.729 -0.0730 -0.0759  0.1824
 1093POP      C 1093   2.685   5.667   5.344  0.1786 -0.0184 -0.1461
 1094POP      C 1094   4.830   4.515   2.163 -0.3778  0.1582 -0.1049
 1095POP      C 1095   3.088   2.575   3.463 -0.0464 -0.0653 -0.2943
 1096POP      C 1096   0.663   1.536   2.913  0.0213 -0.1314 -0.0273
 1097POP      C 1097   2.738   1.460   4.860  0.0888  0.0694  0.1917
 1098POP      C 1098   0.365   3.964   1.619  0.1309 -0.0869 -0.2643
 1099POP      C 1099   2.730   1.630   0.097  0.0488  0.2396  0.1651
 1100POP      C 1100   4.887   3.744   2.045  0.0784  0.0816 -0.2915
 1101POP      C 1101   6.182   1.143   2.033  0.4732  0.0022 -0.0429
 1102POP      C 1102   0.475   2.200   2.412  0.2991  0.2271  0.1573
 1103POP      C 1103   6.050   3.407   1.740 -0.0518  0.1071 -0.0447
 1104POP      C 1104   6.035   0.811   0.604 -0.1652 -0.2649 -0.2398
 1105POP      C 1105   3.645   1.577   0.046 -0.0476  0.1409  0.0265
 1106POP      C 1106   3.610   4.045   0.899  0.0631  0.0034 -0.0913
 1107POP      C 1107   2.939   2.287   2.455  0.2454  0.0390  0.0131
 1108POP      C 1108   4.585   0.011   3.515  0.1144  0.2285  0.0105
 1109POP      C 1109   1.538   4.645   6.414  0.2872  0.1329  0.0374
 1110POP      C 1110   2.176   3.306   4.624 -0.1103  0.1747 -0.2019
 1111POP      C 1111   0.247   1.045   4.551  0.0835  0.1847  0.1900
 1112POP      C 1112   1.381   1.322   5.445 -0.1904 -0.1613  0.1748
 1113POP      C 1113   1.115   4.199   1.964  0.2056 -0.1912 -0.0290
 1114POP      C 1114   2.134   1.845   0.345 -0.1622 -0.0440 -0.0420
 1115POP      C 1115   6.456   1.271   3.617 -0.0195  0.2065 -0.1352
 1116POP      C 1116   5.820   0.409   3.302 -0.0238  0.1420 -0.0159
 1117POP      C 1117   3.345   5.591   0.536 -0.0251  0.1533  0.1014
 1118POP      C 1118   5.148   6.496   1.205  0.2928 -0.0711 -0.0396
 1119POP      C 1119   6.145   4.863   3.539  0.1181 -0.1517  0.1089
 1120POP      C 1120   5.434   6.057   3.303 -0.1174  0.2801 -0.0970
 1121POP      C 1121   4.532   2.441   6.570 -0.2497 -0.1487 -0.0987
 1122POP      C 1122   4.298   6.138   2.863  0.4132  0.0335 -0.1194
 1123POP      C 1123   5.595   2.532   6.452 -0.1010  0.0267  0.0546
 1124POP      C 1124   1.365   4.953   4.778 -0.0486 -0.1697 -0.1238
 1125POP      C 1125   4.105   6.576   1.125 -0.1957 -0.5571 -0.2098
 1126POP      C 1126   0.893   0.403   5.659 -0.2685 -0.0740  0.0327
 1127POP      C 1127   3.630   4.544   5.422 -0.1310  0.1968 -0.1644
 1128POP      C 1128   4.257   2.725   6.019 -0.1493  0.1562 -0.1933
 1129POP      C 1129   3.175   1.160   4.552  0.1382  0.3328  0.1984
 1130POP      C 1130   1.063   0.522   3.014 -0.1405  0.0930  0.0091
 1131POP      C 1131   3.671   5.946   2.745  0.3668 -0.0820  0.0515
 1132POP      C 1132   1.348   2.125   4.416  0.3505 -0.1963 -0.3784
 1133POP      C 1133   4.651   0.069   2.644 -0.0721 -0.0219 -0.0780
 1134POP      C 1134   5.909   2.108   2.549 -0.0162 -0.0472 -0.0282
 1135POP      C 1135   4.812   5.259   0.136  0.2201 -0.0869  0.4634
 1136POP      C 1136   2.725   0.912   3.721  0.5243 -0.1815 -0.0464
 1137POP      C 1137   4.265   1.983   2.787 -0.3274 -0.2386 -0.0095
 1138POP      C 1138   6.572   0.216   1.821  0.0898 -0.0624 -0.0359
 1139POP      C 1139   6.054   4.376   0.330 -0.2849  0.1651 -0.1207
 1140POP      C 1140   1.326   1.731   0.433  0.0726  0.1836  0.0138
 1141POP      C 1141   2.248   6.468   5.983 -0.1231 -0.4076  0.1461
 1142POP      C 1142   0.285   2.113   6.108  0.2231 -0.4030  0.0258
 1143POP      C 1143   5.077   4.170   3.919 -0.0326 -0.3299 -0.0141
 1144POP      C 1144   5.796   5.963   5.644 -0.0640 -0.2671  0.0298
 1145POP      C 1145   0.844   4.985   2.868 -0.0295 -0.1057 -0.1714
 1146POP      C 1146   5.008   4.889   1.812  0.1534  0.2666  0.2617
 1147POP      C 1147   2.899   5.605   0.268 -0.0540  0.1039  0.1269
 1148POP      C 1148   0.354   5.219   0.193 -0.1019 -0.1172  0.0655
 1149POP      C 1149   3.431   5.002   0.710 -0.0348  0.2765 -0.1751
 1150POP      C 1150   5.513   0.107   1.525 -0.1416  0.3390  0.1925
 1151POP      C 1151   1.355   5.310   3.290 -0.1239  0.2047  0.0689
 1152POP      C 1152   2.222   2.379   3.989 -0.3039  0.1699  0.2577
 1153POP      C 1153   0.017   0.732   2.607  0.3006 -0.1240  0.2194
 1154POP      C 1154   5.783   1.367   2.183  0.2358  0.0372 -0.1688
 1155POP      C 1155   5.654   6.483   4.307 -0.1431  0.0084  0.3306
 1156POP      C 1156   4.183   1.037   6.118  0.1097 -0.1972 -0.2856
 1157POP      C 1157   4.787   2.015   0.133  0.4843 -0.1237 -0.0259
 1158POP      C 1158   2.133   1.124   3.299 -0.3126 -0.1480  0.0732
 1159POP      C 1159   3.476   3.044   0.982 -0.1815  0.0824 -0.3733
 1160POP      C 1160   6.343   5.335   4.122 -0.0088  0.2120  0.1529
 1161POP      C 1161   3.377   4.599   1.080 -0.0618  0.0682  0.2298
 1162POP      C 1162   5.502   2.047   5.070  0.0448  0.3295 -0.1337
 1163POP      C 1163   5.766   5.806   3.634 -0.0462  0.1208  0.0180
 1164POP      C 1164   6.555   5.926   6.203  0.0148 -0.1529  0.0087
 1165POP      C 1165   0.901   3.279   5.561 -0.3379 -0.0567  0.0362
 1166POP      C 1166   3.316   6.302   2.878  0.0179 -0.0562 -0.1257
 1167POP      C 1167   2.264   6.201   3.833  0.1219  0.3655 -0.2677
 1168POP      C 1168   0.026   6.031   3.451  0.0106 -0.0678  0.0157
 1169POP      C 1169   3.473   4.280   5.893  0.1713 -0.1738  0.0385
 1170POP      C 1170   2.807   6.300   2.720 -0.3632  0.4343  0.2125
 1171POP      C 1171   1.493   5.899   1.667 -0.0358  0.2060  0.0928
 1172POP      C 1172   1.350   4.637   4.116 -0.1431  0.4141  0.0974
 1173POP      C 1173   3.411   6.394   5.476  0.2791  0.0504 -0.1633
 1174POP      C 1174   1.007   5.885   1.589 -0.3297  0.1897  0.1295
 1175POP      C 1175   4.178   3.659   4.141 -0.2278  0.1074 -0.3119
 1176POP      C 1176   1.603   0.065   0.341  0.2251 -0.1596 -0.2224
 1177POP      C 1177   4.063   2.870   2.836 -0.1995  0.0188  0.0561
 1178POP      C 1178   0.504   4.707   4.487  0.2563 -0.4509 -0.0572
 1179POP      C 1179   1.986   2.069   2.729 -0.1288 -0.0592  0.0034
 1180POP      C 1180   3.149   3.946   2.420 -0.0546  0.0929  0.1472
 1181POP      C 1181   1.735   3.557   5.491  0.0489  0.0239 -0.0795
 1182POP      C 1182   3.721   3.251   6.304  0.0164  0.0719 -0.0409
 1183POP      C 1183   3.825   2.603   5.074 -0.1728 -0.2089  0.4086
 1184POP      C 1184   6.108   6.155   0.907 -0.2206  0.4368  0.4081
 1185POP      C 1185   3.850   4.887   3.324  0.2326  0.0916  0.2386
 1186POP      C 1186   5.347   2.663   3.235 -0.2626  0.0223  0.2375
 1187POP      C 1187   6.634   5.643   0.105  0.0778 -0.0854 -0.0172
 1188POP      C 1188   1.293   4.132   5.657 -0.1265 -0.1677 -0.2220
 1189POP      C 1189   5.001   6.397   3.365 -0.0610 -0.0515  0.1823
 1190POP      C 1190   1.764   1.931   0.761  0.1891 -0.1158 -0.1400
 1191POP      C 1191   4.881   0.573   2.558  0.0638 -0.1550  0.2470
 1192POP      C 1192   4.296   1.447   2.654 -0.1171 -0.0380 -0.1136
 1193POP      C 1193   4.875   5.676   5.871  0.2668 -0.2378  0.0874
 1194POP      C 1194   3.584   0.059   3.704  0.2939  0.3033  0.2258
 1195POP      C 1195   5.562   1.412   3.092 -0.3056  0.0817  0.0780
 1196POP      C 1196   4.755   3.406   5.514 -0.1206 -0.0812  0.0700
 1197POP      C 1197   1.237   4.741   2.139 -0.1167  0.1857  0.0338
 1198POP      C 1198   3.186   4.811   4.300 -0.0533 -0.0998  0.0106
 1199POP      C 1199   5.683   1.248   1.670 -0.0104  0.2503 -0.4276
 1200POP      C 1200   1.691   3.087   4.645 -0.0074 -0.0068  0.0522
 1201POP      C 1201   5.782   1.092   2.586  0.2524 -0.4899  0.1242
 1202POP      C 1202   1.917   5.338   5.350  0.1615 -0.0906  0.0054
 1203POP      C 1203   6.491   0.995   4.907 -0.2598  0.1205 -0.0625
 1204POP      C 1204   2.222   4.711   1.022  0.1540  0.1704 -0.1505
 1205POP      C 1205   1.758   6.527   6.172 -0.2663 -0.1557 -0.2134
 1206POP      C 1206   6.602   6.283   6.647  0.3932  0.3673 -0.2869
 1207POP      C 1207   0.380   2.999   2.593  0.0294 -0.0051  0.0775
 1208POP      C 1208   1.818   2.631   5.962  0.0298 -0.0590  0.0600
 1209POP      C 1209   0.572   1.539   4.430 -0.0067 -0.2372 -0.2098
 1210POP      C 1210   5.891   0.188   4.956  0.0483 -0.1953  0.0117
 1211POP      C 1211   2.978   0.262   4.795  0.3393  0.0598 -0.2698
 1212POP      C 1212   1.250   2.604   0.971 -0.1801 -0.2523 -0.1881
 1213POP      C 1213   4.909   3.464   0.277  0.1287  0.3630 -0.0283
 1214POP      C 1214   0.858   5.407   3.090  0.2161 -0.1168  0.0310
 1215POP      C 1215   3.395   4.498   4.924  0.0829 -0.3539  0.1463
 1216POP      C 1216   1.436   5.437   0.374  0.1911  0.0143 -0.1691
 1217POP      C 1217   3.873   1.288   1.410  0.1699  0.0897 -0.0913
 1218POP      C 1218   5.048   5.399   5.461  0.0998  0.2044  0.0733
 1219POP      C 1219   4.968   4.676   0.672 -0.2463 -0.0565 -0.0344
 1220POP      C 1220   4.088   3.171   3.772  0.0443  0.0692  0.1078
 1221POP      C 1221   2.615   0.006   5.111 -0.2404  0.0807  0.2430
 1222POP      C 1222   0.374   5.779   6.429 -0.1012 -0.0426 -0.3195
 1223POP      C 1223   3.667   0.915   4.377  0.0637  0.3288 -0.0065
 1224POP      C 1224   1.104   0.015   0.475 -0.3003  0.0654 -0.1728
 1225POP      C 1225   6.391   1.238   1.337 -0.2814 -0.1489  0.4283
 1226POP      C 1226   5.351   4.575   3.486 -0.2973 -0.1631  0.1973
 1227POP      C 1227   3.577   0.487   4.147 -0.0289 -0.2284  0.3140
 1228POP      C 1228   6.104   1.216   6.554 -0.0923  0.3995 -0.0410
 1229POP      C 1229   2.769   2.227   1.716 -0.1117  0.0895  0.2785
 1230POP      C 1230   4.724   2.052   1.143  0.0903  0.0255  0.3413
 1231POP      C 1231   4.459   3.234   0.336  0.0472 -0.0266  0.3377
 1232POP      C 1232   6.232   5.892   0.029 -0.0281 -0.0259  0.3047
 1233POP      C 1233   6.126   3.509   1.207  0.0146  0.0376  0.0341
 1234POP      C 1234   3.547   5.796   5.865  0.0085 -0.0911  0.0784
 1235POP      C 1235   4.735   5.914   3.006  0.0918  0.0636  0.0611
 1236POP      C 1236   0.858   6.202   6.222 -0.2358 -0.1101  0.1357
 1237POP      C 1237   3.353   2.264   2.779  0.1408 -0.0938 -0.1095
 1238POP      C 1238   0.675   4.196   5.416 -0.0117  0.3213 -0.3081
 1239POP      C 1239   2.952   3.000   1.132  0.3451 -0.0442 -0.4430
 1240POP      C 1240   6.247   2.900   0.597 -0.1655  0.0545 -0.0049
 1241POP      C 1241   0.267   4.121   1.200 -0.0636 -0.0727 -0.1862
 1242POP      C 1242   1.465   3.945   4.805 -0.4096  0.0588 -0.0338
 1243POP      C 1243   1.379   3.995   2.464  0.2304 -0.0622 -0.0299
 1244POP      C 1244   2.684   0.481   5.174 -0.1872 -0.0150 -0.1066
 1245POP      C 1245   1.653   0.363   4.171  0.1192  0.1511 -0.1105
 1246POP      C 1246   4.727   5.846   0.252 -0.0669 -0.1799 -0.0046
 1247POP      C 1247   1.814   4.898   4.096  0.0321  0.0342 -0.2165
 1248POP      C 1248   4.401   1.304   5.723  0.0099 -0.0289  0.1244
 1249POP      C 1249   4.714   1.575   6.576  0.1096  0.0798  0.0941
 1250POP      C 1250   3.531   0.440   2.403 -0.1781 -0.0737  0.0082
 1251POP      C 1251   6.513   0.145   6.644 -0.2627 -0.2231  0.0963
 1252POP      C 1252   2.384   6.063   2.555  0.0660 -0.0238 -0.1125
 1253POP      C 1253   5.899   0.711   2.352 -0.0412  0.0922 -0.1941
 1254POP      C 1254   2.445   6.182   0.659  0.1700 -0.1259  0.0675
 1255POP      C 1255   2.221   1.894   6.427 -0.0425  0.1385  0.1353
 1256POP      C 1256   3.446   1.844   3.306 -0.1996 -0.0627  0.0079
 1257POP      C 1257   6.080   1.565   1.660 -0.2479 -0.0774  0.3773
 1258POP      C 1258   5.470   5.790   4.709  0.1837 -0.1092 -0.0396
 1259POP      C 1259   4.330   1.190   0.138  0.2133 -0.0166 -0.0837
 1260POP      C 1260   6.272   5.840   3.931 -0.0143  0.2755  0.1284
 1261POP      C 1261   2.179   2.255   1.688  0.0058 -0.2107  0.1625
 1262POP      C 1262   0.140   4.227   1.974 -0.0943 -0.2858  0.1450
 1263POP      C 1263   0.541   3.469   2.848  0.1507 -0.1720  0.0151
 1264POP      C 1264   4.047   5.839   5.701  0.2367  0.3420 -0.2494
 1265POP      C 1265   1.980   4.122   1.605  0.1488 -0.0208  0.0711
 1266POP      C 1266   2.588   4.685   0.158 -0.1796 -0.3385 -0.0120
 1267POP      C 1267   5.336   5.002   4.142  0.0156 -0.1710 -0.1959
 1268POP      C 1268   2.945   4.053   0.851 -0.0228  0.0759 -0.2013
 1269POP      C 1269   0.639   0.568   2.784  0.3214 -0.2999 -0.0647
 1270POP      C 1270   5.217   5.054   3.315 -0.1895  0.1806  0.1043
 1271POP      C 1271   2.798   2.171   0.775  0.2682  0.1523  0.1004
 1272POP      C 1272   2.735   0.790   0.510 -0.2718 -0.1613 -0.1131
 1273POP      C 1273   3.471   2.348   4.103  0.0144 -0.2709  0.2658
 1274POP      C 1274   4.211   6.345   4.662  0.0759 -0.1458  0.1025
 1275POP      C 1275   5.728   4.831   2.672 -0.0406  0.0008  0.0617
 1276POP      C 1276   3.844   5.965   1.700 -0.2000  0.0559  0.0146
 1277POP      C 1277   5.288   0.128   4.910  0.5692  0.1339 -0.0364
 1278POP      C 1278   1.597   4.430   0.395 -0.0156  0.0238 -0.1507
 1279POP      C 1279   3.934   5.953   3.207  0.0240 -0.1899  0.2736
 1280POP      C 1280   2.250   2.092   3.207 -0.0301  0.0140 -0.0474
 1281POP      C 1281   0.611   5.447   4.661  0.0169  0.1179 -0.2168
 1282POP      C 1282   2.019   3.537   5.052  0.0948 -0.2387  0.1001
 1283POP      C 1283   5.527   2.909   4.755  0.1852 -0.1572  0.2714
 1284POP      C 1284   3.901   4.305   5.062  0.1170 -0.2043 -0.0698
 1285POP      C 1285   5.732   5.449   6.373  0.0909 -0.0743  0.1904
 1286POP      C 1286   5.143   5.286   1.185 -0.4265  0.2161  0.2263
 1287POP      C 1287   4.860   3.858   1.422  0.3408  0.2223 -0.2013
 1288POP      C 1288   2.813   1.157   3.199 -0.1096 -0.3529 -0.1041
 1289POP      C 1289   5.672   5.958   1.891  0.1238 -0.4385  0.2967
 1290POP      C 1290   3.557   0.705   4.944  0.1204 -0.2447  0.1150
 1291POP      C 1291   4.471   2.486   2.866  0.1168  0.2122  0.2010
 1292POP      C 1292   4.584   4.466   4.108  0.0077  0.0519  0.1849
 1293POP      C 1293   4.969   2.421   2.914  0.0606  0.0702 -0.2040
 1294POP      C 1294   0.763   6.384   4.361  0.3213 -0.3180 -0.0902
 1295POP      C 1295   2.115   3.111   2.915 -0.1620 -0.1644 -0.4651
 1296POP      C 1296   5.044   4.135   0.704  0.0388 -0.2731  0.1506
 1297POP      C 1297   0.694   2.847   2.187  0.1214 -0.0859 -0.1797
 1298POP      C 1298   2.018   2.315   6.316  0.4529 -0.1191 -0.1464
 1299POP      C 1299   1.933   1.338   2.247  0.0899 -0.2490  0.0114
 1300POP      C 1300   3.813   1.313   0.924  0.0071  0.0284  0.0805
 1301POP      C 1301   4.093   4.433   5.578  0.0605 -0.0592 -0.1420
 1302POP      C 1302   1.723   2.195   0.295  0.1869  0.2867  0.2402
 1303POP      C 1303   3.055   2.018   4.539 -0.1791  0.0566  0.0237
 1304POP      C 1304   1.063   3.702   2.149 -0.0602 -0.1396 -0.3525
 1305POP      C 1305   2.807   2.960   3.656  0.0180  0.0566  0.2990
 1306POP      C 1306   4.694   5.229   6.260 -0.2047 -0.2416  0.3163
 1307POP      C 1307   4.356   4.102   6.232  0.0593  0.1631  0.1418
 1308POP      C 1308   2.437   5.198   1.092  0.0516  0.1900  0.0392
 1309POP      C 1309   3.602   1.516   6.105 -0.2372 -0.0491  0.0480
 1310POP      C 1310   1.357   4.955   0.532 -0.0074  0.1664 -0.2509
 1311POP      C 1311   2.052   1.161   3.862 -0.1490  0.0626  0.0034
 1312POP      C 1312   1.541   0.907   5.111  0.0943 -0.0495 -0.2723
 1313POP      C 1313   2.171   5.054   4.382  0.0441 -0.2551  0.2281
 1314POP      C 1314   3.616   1.752   1.856  0.2037  0.1653  0.0837
 1315POP      C 1315   1.606   5.343   2.434  0.3357 -0.0913 -0.2704
 1316POP      C 1316   4.105   4.601   4.181  0.0858  0.2669 -0.1423
 1317POP      C 1317   6.626   0.106   4.394  0.1006 -0.1612  0.2676
 1318POP      C 1318   2.339   1.941   5.239  0.2872 -0.2623 -0.0331
 1319POP      C 1319   0.412   4.987   2.364  0.0844 -0.1387 -0.2203
 1320POP      C 1320   6.376   1.324   2.538 -0.1117  0.1208 -0.0740
 1321POP      C 1321   0.365   2.567   5.816  0.3937 -0.2681 -0.3639
 1322POP      C 1322   3.276   3.457   0.079  0.0269 -0.0209 -0.0160
 1323POP      C 1323   5.221   3.066   1.536  0.1366  0.0189  0.0469
 1324POP      C 1324   6.463   2.009   0.773  0.1060  0.2244  0.0817
 1325POP      C 1325   3.046   5.591   4.826  0.0338  0.0117  0.0781
 1326POP      C 1326   5.296   1.080   3.352 -0.2344 -0.1585  0.1286
 1327POP      C 1327   1.659   4.743   3.447  0.2216  0.0003  0.0223
 1328POP      C 1328   3.371   5.154   3.222  0.0493 -0.0576 -0.3643
 1329POP      C 1329   4.966   3.189   6.478  0.0832  0.0681  0.0875
 1330POP      C 1330   1.573   0.221   2.986  0.2059  0.0550  0.1198
 1331POP      C 1331   3.528   3.157   4.647  0.2275  0.3063 -0.1776
 1332POP      C 1332   6.248   6.536   1.266  0.0002  0.5031 -0.3877
 1333POP      C 1333   2.809   3.366   0.794 -0.1367  0.1254 -0.2055
 1334POP      C 1334   1.543   0.416   5.079 -0.1909  0.0223 -0.0572
 1335POP      C 1335   2.059   5.248   2.259 -0.0152  0.1834  0.0222
 1336POP      C 1336   5.846   3.019   1.945 -0.1138  0.0823 -0.4262
 1337POP      C 1337   1.893   4.375   6.170  0.0355 -0.1100 -0.1579
 1338POP      C 1338   1.830   0.858   2.354  0.0332 -0.1430  0.1688
 1339POP      C 1339   1.671   2.189   1.648 -0.3203 -0.0572 -0.0708
 1340POP      C 1340   5.988   3.659   5.043 -0.1451 -0.0023 -0.0739
 1341POP      C 1341   1.632   6.395   2.734 -0.2299  0.0288  0.1381
 1342POP      C 1342   5.030   4.862   3.748 -0.1929 -0.1992  0.0685
 1343POP      C 1343   2.409   0.519   4.735  0.0805 -0.2396 -0.0714
 1344POP      C 1344   6.475   3.185   1.402 -0.0475 -0.1671 -0.0270
 1345POP      C 1345   6.564   6.450   6.067 -0.1338  0.3316 -0.2478
 1346POP      C 1346   6.028   0.443   4.200 -0.2004  0.1505 -0.0868
 1347POP      C 1347   1.913   6.285   3.535  0.0644  0.1680 -0.0682
 1348POP      C 1348   3.692   4.491   0.683  0.1249 -0.0779 -0.1667
 1349POP      C 1349   3.836   1.083   0.415  0.2885 -0.3488  0.2536
 1350POP      C 1350   3.867   6.556   0.474  0.2551  0.2546  0.0063
 1351POP      C 1351   5.209   3.518   5.698 -0.1651 -0.0434 -0.0109
 1352POP      C 1352   5.343   0.460   1.867 -0.1844  0.0367 -0.3160
 1353POP      C 1353   0.858   3.620   0.754  0.0780 -0.1067 -0.0415
 1354POP      C 1354   0.855   3.125   0.560 -0.1048 -0.0643 -0.1078
 1355POP      C 1355   1.221   4.489   2.569  0.2593 -0.1283 -0.0149
 1356POP      C 1356   3.983   2.274   0.702  0.2812 -0.3212 -0.1164
 1357POP      C 1357   2.998   0.062   6.610 -0.1182  0.0704  0.0379
 1358POP      C 1358   3.779   0.847   3.845  0.1909 -0.1814  0.0510
 1359POP      C 1359   0.487   0.181   4.259  0.3552  0.0859  0.3456
 1360POP      C 1360   4.026   2.350   6.582  0.0824 -0.0814 -0.0665
 1361POP      C 1361   0.836   4.993   4.857 -0.2523 -0.1074 -0.1214
 1362POP      C 1362   4.355   4.979   2.976  0.2596  0.0832  0.0082
 1363POP      C 1363   0.009   1.047   3.084  0.5019  0.2929  0.2101
 1364POP      C 1364   3.511   5.429   4.139  0.1656 -0.1792 -0.1912
 1365POP      C 1365   4.873   6.226   1.540  0.2120  0.0148  0.2787
 1366POP      C 1366   4.915   1.988   0.663 -0.2473  0.1990 -0.3431
 1367POP      C 1367   5.710   2.760   4.315 -0.0826  0.2405 -0.1222
 1368POP      C 1368   5.545   0.734   0.555  0.0142  0.1506  0.0246
 1369POP      C 1369   5.264   0.755   4.797 -0.0176  0.2506 -0.0635
 1370POP      C 1370   0.914   5.656   2.578 -0.0336 -0.1280  0.2367
 1371POP      C 1371   4.560   2.486   1.423 -0.0767 -0.1044 -0.0468
 1372POP      C 1372   4.149   4.113   3.968 -0.0925  0.2008 -0.0760
 1373POP      C 1373   1.415   3.690   6.282  0.0518 -0.0936 -0.2356
 1374POP      C 1374   2.429   1.628   5.995  0.3073  0.3188  0.0766
 1375POP      C 1375   3.847   6.401   2.432  0.1805 -0.1106 -0.1566
 1376POP      C 1376   1.243   5.918   6.377 -0.1102  0.1852  0.0410
 1377POP      C 1377   2.736   5.824   2.845  0.0652  0.0849  0.0375
 1378POP      C 1378   0.223   1.859   0.013  0.3362 -0.0810 -0.1100
 1379POP      C 1379   1.668   2.856   1.025 -0.1939 -0.0152  0.0218
 1380POP      C 1380   5.328   1.368   2.031  0.0843  0.0551 -0.1519
 1381POP      C 1381   0.938   0.829   0.023  0.1053 -0.1942  0.1102
 1382POP      C 1382   0.617   4.595   5.041  0.1878  0.1536 -0.2260
 1383POP      C 1383   2.954   1.148   0.101 -0.0641  0.0373 -0.1682
 1384POP      C 1384   5.277   1.843   2.847  0.0725  0.1530  0.0698
 1385POP      C 1385   0.736   5.941   5.552  0.1030  0.0532 -0.0753
 1386POP      C 1386   1.216   2.849   1.392 -0.0832  0.0364  0.2511
 1387POP      C 1387   3.130   2.246   6.327 -0.2919  0.1329 -0.0815
 1388POP      C 1388   2.836   4.976   5.618 -0.1442  0.1184 -0.1041
 1389POP      C 1389   5.767   0.911   3.078 -0.1204  0.1542 -0.3615
 1390POP      C 1390   2.939   6.325   1.454  0.0083  0.1034  0.0045
 1391POP      C 1391   3.293   5.898   3.804 -0.4342  0.1320  0.1331
 1392POP      C 1392   2.886   1.181   1.585  0.2689  0.1026  0.0557
 1393POP      C 1393   2.670   4.374   2.510 -0.0933  0.1463  0.1094
 1394POP      C 1394   5.650   0.250   2.400 -0.0391  0.3347  0.1889
 1395POP      C 1395   1.908   5.253   3.312  0.0010 -0.0473 -0.0963
 1396POP      C 1396   3.322   5.227   0.187  0.1824 -0.2255 -0.0182
 1397POP      C 1397   4.710   0.433   3.711  0.2147 -0.0763 -0.2113
 1398POP      C 1398   0.905   5.044   5.422 -0.3802  0.3802  0.1139
 1399POP      C 1399   3.170   0.987   5.390  0.0495 -0.3064  0.4753
 1400POP      C 1400   2.955   5.521   1.367 -0.4526 -0.1256 -0.1144
 1401POP      C 1401   3.135   4.987   2.705  0.1071 -0.3034 -0.0870
 1402POP      C 1402   4.777   2.893   2.707  0.0240 -0.0680  0.1216
 1403POP      C 1403   1.246   0.933   3.277 -0.1323 -0.2441 -0.1428
 1404POP      C 1404   0.869   2.276   0.591  0.2360  0.0898 -0.3935
 1405POP      C 1405   4.064   3.648   2.845 -0.1272 -0.1159 -0.0380
 1406POP      C 1406   5.813   6.439   0.047  0.1667 -0.1116 -0.0399
 1407POP      C 1407   0.381   6.185   1.936  0.2149  0.0888  0.0141
 1408POP      C 1408   4.948   0.777   3.319 -0.3143 -0.2410 -0.0754
 1409POP      C 1409   6.396   3.722   0.250  0.1208  0.0642 -0.1244
 1410POP      C 1410   2.071   5.171   2.790  0.2701 -0.1146 -0.1623
 1411POP      C 1411   0.625   0.633   4.708 -0.0135  0.0827  0.1446
 1412POP      C 1412   4.846   5.175   4.271 -0.2753  0.2062 -0.3310
 1413POP      C 1413   3.333   3.525   2.150  0.2884  0.0925  0.0387
 1414POP      C 1414   5.938   4.458   3.598 -0.2198  0.1571 -0.0767
 1415POP      C 1415   3.949   3.569   1.789 -0.2444 -0.0488  0.0788
 1416POP      C 1416   3.525   1.275   4.130 -0.0251 -0.3191 -0.4833
 1417POP      C 1417   4.664   2.869   4.141 -0.0818  0.0981  0.1226
 1418POP      C 1418   2.948   2.584   3.977 -0.1154  0.1587  0.4210
 1419POP      C 1419   2.986   4.097   4.991 -0.2699 -0.4360 -0.3132
 1420POP      C 1420   5.281   3.313   0.595 -0.0887  0.2257 -0.1619
 1421POP      C 1421   4.823   4.294   0.246 -0.0232  0.2552 -0.2313
 1422POP      C 1422   2.440   5.892   0.211 -0.1535  0.1617 -0.2173
 1423POP      C 1423   1.768   4.042   5.392  0.1178 -0.0128 -0.0337
 1424POP      C 1424   4.375   2.917   4.569 -0.0952 -0.1228 -0.0647
 1425POP      C 1425   3.077   4.458   2.842  0.0991  0.1905  0.0035
 1426POP      C 1426   0.600   4.774   0.912 -0.1228 -0.0848 -0.2086
 1427POP      C 1427   0.641   2.401   4.732 -0.0069  0.1059  0.0472
 1428POP      C 1428   6.472   6.305   3.886  0.0697 -0.1275 -0.0575
 1429POP      C 1429   4.108   0.422   6.325  0.0248 -0.1260 -0.0045
 1430POP      C 1430   4.717   3.782   5.938 -0.1738 -0.5541 -0.1572
 1431POP      C 1431   1.078   0.290   6.503  0.2753 -0.2335  0.0956
 1432POP      C 1432   1.896   4.590   1.900 -0.0661 -0.0123 -0.1002
 1433POP      C 1433   6.070   2.065   1.586  0.2191  0.0448 -0.1416
 1434POP      C 1434   5.553   5.430   3.458 -0.1846  0.1558 -0.0403
 1435POP      C 1435   1.039   1.297   4.170 -0.1712 -0.1366 -0.1842
 1436POP      C 1436   0.529   1.817   5.840  0.3271 -0.0181 -0.0793
 1437POP      C 1437   1.209   0.743   4.239  0.1223 -0.0723  0.2065
 1438POP      C 1438   6.422   0.188   0.745  0.1625 -0.1033  0.1017
 1439POP      C 1439   0.122   3.728   0.578  0.0078  0.1086 -0.0036
 1440POP      C 1440   2.132   2.550   1.233 -0.0380  0.2190 -0.3495
 1441POP      C 1441   4.270   4.999   2.470  0.2545 -0.0222 -0.0604
 1442POP      C 1442   4.587   2.375   6.080  0.2300  0.1518 -0.0582
 1443POP      C 1443   2.721   3.627   4.181 -0.1594 -0.0545 -0.2494
 1444POP      C 1444   2.139   6.530   6.592  0.0099 -0.2770  0.0031
 1445POP      C 1445   6.389   5.702   4.538 -0.2466  0.0442 -0.0720
 1446POP      C 1446   4.700   5.826   1.898  0.0803 -0.0336 -0.0773
 1447POP      C 1447   0.729   4.836   6.520 -0.4301 -0.2887  0.1506
 1448POP      C 1448   5.564   5.799   2.604 -0.3782 -0.1070 -0.0414
 1449POP      C 1449   1.776   3.600   4.392  0.0569  0.0787  0.0571
 1450POP      C 1450   0.430   6.336   6.353  0.2032  0.2038 -0.3237
 1451POP      C 1451   3.737   3.193   2.491  0.1443  0.0304 -0.1437
 1452POP      C 1452   3.985   4.814   5.262  0.0645 -0.2837 -0.0840
 1453POP      C 1453   4.847   2.529   0.541  0.1724  0.1059  0.0524
 1454POP      C 1454   0.571   4.089   2.825 -0.0988  0.0880 -0.1845
 1455POP      C 1455   5.808   3.860   1.771 -0.1174  0.3475  0.1296
 1456POP      C 1456   2.850   0.302   0.669 -0.2910 -0.3515 -0.2008
 1457POP      C 1457   4.014   4.723   1.329 -0.2829 -0.0134 -0.4561
 1458POP      C 1458   1.561   5.873   3.667  0.0445  0.1829  0.0276
 1459POP      C 1459   2.520   0.169   5.605 -0.2278  0.1844 -0.0517
 1460POP      C 1460   6.576   5.213   6.526  0.2937  0.3755  0.0352
 1461POP      C 1461   1.885   5.210   4.885  0.1530  0.1589  0.1504
 1462POP      C 1462   4.992   5.855   4.553  0.3648 -0.1244  0.1055
 1463POP      C 1463   4.583   2.226   5.133  0.0368  0.3733 -0.1293
 1464POP      C 1464   3.846   5.726   4.769  0.2696  0.3750 -0.0660
 1465POP      C 1465   2.688   4.541   3.163 -0.0413 -0.0734  0.1282
 1466POP      C 1466   5.561   0.737   1.381 -0.3358  0.2721  0.1829
 1467POP      C 1467   4.872   0.065   5.183  0.0984  0.0854 -0.3615
 1468POP      C 1468   4.596   4.068   0.950  0.0529  0.3021  0.1668
 1469POP      C 1469   5.653   1.511   3.597 -0.0025  0.4306  0.2362
 1470POP      C 1470   1.951   0.360   4.589  0.0995 -0.0677 -0.0165
 1471POP      C 1471   4.279   4.936   6.178 -0.1476 -0.0253  0.0207
 1472POP      C 1472   4.755   4.282   4.643 -0.2921 -0.2750 -0.2700
 1473POP      C 1473   3.290   4.698   6.173 -0.1521 -0.2345  0.1057
 1474POP      C 1474   5.348   4.089   1.469 -0.1629 -0.0541  0.3901
 1475POP      C 1475   4.166   0.039   2.783 -0.1407  0.2588  0.0686
 1476POP      C 1476   1.264   2.448   2.920  0.2052  0.0671 -0.1105
 1477POP      C 1477   1.429   1.188   2.882  0.0985  0.0403  0.1288
 1478POP      C 1478   2.322   3.044   1.983 -0.3586  0.0574 -0.3436
 1479POP      C 1479   1.079   6.206   2.514 -0.3799 -0.0691 -0.1386
 1480POP      C 1480   1.059   5.005   3.693 -0.4368  0.1258 -0.1620
 1481POP      C 1481   2.390   6.113   3.117  0.1142 -0.3800 -0.0583
 1482POP      C 1482   4.203   6.353   3.485 -0.0862  0.1915 -0.0115
 1483POP      C 1483   3.789   5.299   0.386 -0.1471 -0.0723  0.2720
 1484POP      C 1484   5.882   5.319   1.727  0.4375 -0.0512 -0.0766
 1485POP      C 1485   5.427   4.484   5.989 -0.0586  0.0946  0.0398
 1486POP      C 1486   2.038   4.843   5.245  0.1729 -0.0630  0.1941
 1487POP      C 1487   4.278   4.572   2.156  0.3240  0.0557  0.0718
 1488POP      C 1488   6.055   4.009   3.142  0.0064  0.0067 -0.1153
 1489POP      C 1489   3.372   6.115   0.154  0.0512  0.1903  0.1073
 1490POP      C 1490   6.061   0.758   0.023  0.2012  0.1817 -0.0556
 1491POP      C 1491   3.654   5.957   2.211  0.1541 -0.1070 -0.2483
 1492POP      C 1492   1.083   1.372   0.682 -0.0219 -0.2646  0.2101
 1493POP      C 1493   4.406   0.563   5.935 -0.1687  0.1490 -0.0427
 1494POP      C 1494   5.661   3.958   6.223  0.1752  0.0814 -0.1024
 1495POP      C 1495   2.617   3.737   2.211  0.1700  0.3026  0.3693
 1496POP      C 1496   6.519   0.387   3.045  0.1635 -0.1114  0.0199
 1497POP      C 1497   0.162   5.334   4.168  0.1470 -0.0419 -0.2985
 1498POP      C 1498   2.843   5.691   3.823 -0.3548  0.0214  0.1985
 1499POP      C 1499   3.276   0.862   0.415 -0.1706 -0.0018  0.1167
 1500POP      C 1500   5.380   5.665   5.845  0.0413 -0.1452 -0.2471
 1501POP      C 1501   6.131   4.505   5.802 -0.0706  0.2941 -0.3032
 1502POP      C 1502   0.163   5.137   1.059  0.0541 -0.1253 -0.1697
 1503POP      C 1503   4.826   2.791   1.801  0.3150 -0.1274 -0.3293
 1504POP      C 1504   4.839   1.522   1.863 -0.0778 -0.1635 -0.0718
 1505POP      C 1505   5.215   0.919   1.635 -0.3280  0.0945 -0.0025
 1506POP      C 1506   1.445   2.327   2.059 -0.0681 -0.0992 -0.0309
 1507POP      C 1507   5.873   1.841   3.075  0.0847 -0.0704  0.3283
 1508POP      C 1508   5.309   2.883   6.315 -0.1234 -0.1385  0.2077
 1509POP      C 1509   5.118   2.524   1.417 -0.2410  0.0098 -0.2092
 1510POP      C 1510   1.581   1.839   3.567 -0.1183 -0.1020  0.3333
 1511POP      C 1511   3.609   2.755   2.881 -0.0113  0.0817  0.0037
 1512POP      C 1512   1.495   2.658   0.500 -0.4042  0.0489 -0.0127
 1513POP      C 1513   5.074   0.904   2.143 -0.2212 -0.4170  0.2065
 1514POP      C 1514   2.569   0.371   1.984 -0.1022  0.0548 -0.2705
 1515POP      C 1515   5.680   4.253   0.059 -0.0041 -0.0007  0.2857
 1516POP      C 1516   4.001   6.577   1.891 -0.1967 -0.0214 -0.2104
 1517POP      C 1517   5.328   6.258   0.093 -0.0165 -0.0615 -0.2922
 1518POP      C 1518   4.953   1.446   5.514 -0.0998 -0.0363  0.0112
 1519POP      C 1519   4.848   2.858   5.143 -0.0729 -0.1165  0.3018
 1520POP      C 1520   0.454   3.322   0.700 -0.0656 -0.3716 -0.0680
 1521POP      C 1521   5.372   2.751   5.282 -0.0342 -0.3661  0.3897
 1522POP      C 1522   3.310   3.035   1.440 -0.0159  0.0675  0.1100
 1523POP      C 1523   4.974   4.357   2.696 -0.1539 -0.0197  0.0852
 1524POP      C 1524   1.786   4.838   2.473 -0.1359  0.0823  0.1097
 1525POP      C 1525   3.780   5.170   1.507  0.1716 -0.2965 -0.0322
 1526POP      C 1526   5.606   1.726   0.373  0.2866  0.2175 -0.1122
 1527POP      C 1527   4.642   4.012   3.829 -0.1700 -0.4506 -0.0462
 1528POP      C 1528   6.017   6.300   3.946  0.0940  0.1607 -0.1807
 1529POP      C 1529   5.087   0.085   2.181  0.0839 -0.0359  0.2994
 1530POP      C 1530   3.273   5.136   1.395 -0.0132 -0.0017 -0.0692
 1531POP      C 1531   3.653   0.186   5.903 -0.1609 -0.0751 -0.1335
 1532POP      C 1532   3.200   5.579   2.908  0.1031  0.2523  0.0393
 1533POP      C 1533   2.475   3.260   5.059 -0.1205  0.2789 -0.0724
 1534POP      C 1534   1.265   6.516   4.205  0.0330 -0.0614  0.0414
 1535POP      C 1535   3.967   6.547   6.435  0.5276 -0.2019 -0.1996
 1536POP      C 1536   2.786   2.701   2.268  0.1713 -0.0257 -0.1942
 1537POP      C 1537   0.734   6.370   1.592  0.2013  0.0221  0.2156
 1538POP      C 1538   1.972   6.204   5.659  0.2554 -0.0087  0.1144
 1539POP      C 1539   3.607   2.886   4.141 -0.0331  0.0760  0.1444
 1540POP      C 1540   2.879   0.304   3.556  0.3834  0.3115 -0.3356
 1541POP      C 1541   6.500   2.677   0.185  0.0564 -0.0134  0.0303
 1542POP      C 1542   6.221   2.141   3.349  0.2559 -0.1936 -0.1021
 1543POP      C 1543   1.297   5.787   3.190  0.0092  0.1958 -0.1744
 1544POP      C 1544   5.399   0.483   3.007  0.1431 -0.0922  0.1070
 1545POP      C 1545   5.701   0.800   3.591 -0.0333 -0.0224  0.0342
 1546POP      C 1546   4.079   4.079   3.417  0.0598 -0.0880  0.1098
 1547POP      C 1547   4.377   4.617   3.690  0.2022  0.0281 -0.1780
 1548POP      C 1548   3.277   0.130   6.208  0.2005  0.0430 -0.1774
 1549POP      C 1549   2.663   0.175   6.160  0.1566  0.2497 -0.0527
 1550POP      C 1550   1.718   3.966   5.859 -0.3165 -0.0466 -0.1387
 1551POP      C 1551   0.716   0.196   0.129 -0.1685  0.1654 -0.0224
 1552POP      C 1552   1.232   1.463   3.700 -0.0388  0.1268  0.0706
 1553POP      C 1553   3.299   3.537   0.636  0.0783  0.0962 -0.3431
 1554POP      C 1554   5.777   2.083   3.500  0.1650 -0.0129 -0.2055
 1555POP      C 1555   6.580   5.202   2.285 -0.2163  0.3454 -0.2009
 1556POP      C 1556   0.926   1.105   5.814 -0.4345 -0.2126  0.2521
 1557POP      C 1557   1.351   3.093   0.261 -0.0192 -0.0334  0.0871
 1558POP      C 1558   0.505   5.927   4.982 -0.0544  0.0925 -0.0677
 1559POP      C 1559   5.995   1.553   2.666 -0.0682  0.5490  0.1007
 1560POP      C 1560   3.648   3.926   3.765  0.0230  0.0333  0.0015
 1561POP      C 1561   4.989   2.059   1.635  0.0521 -0.4331 -0.0165
 1562POP      C 1562   6.132   5.378   0.025  0.0234 -0.3514  0.2252
 1563POP      C 1563   4.053   5.515   2.405  0.1300  0.0686 -0.0311
 1564POP      C 1564   1.145   5.545   2.060  0.1423 -0.0073 -0.0897
 1565POP      C 1565   2.559   3.102   2.725  0.1551 -0.1509 -0.1105
 1566POP      C 1566   4.971   4.452   5.789 -0.0089 -0.0522 -0.4423
 1567POP      C 1567   5.664   3.267   5.335  0.1085  0.1470  0.1700
 1568POP      C 1568   4.128   2.037   5.128  0.0050  0.3528 -0.1071
 1569POP      C 1569   1.690   3.186   5.107 -0.1249  0.1351 -0.4149
 1570POP      C 1570   6.612   2.722   2.810  0.0961  0.0289 -0.2001
 1571POP      C 1571   4.157   5.065   5.697  0.0210  0.1268  0.1382
 1572POP      C 1572   0.287   0.457   0.602  0.1283 -0.0080  0.1411
 1573POP      C 1573   5.996   6.529   3.500  0.0567 -0.2350  0.1921
 1574POP      C 1574   5.842   5.320   0.432 -0.1017  0.2837 -0.1583
 1575POP      C 1575   0.776   1.044   1.491 -0.0269  0.1596 -0.0787
 1576POP      C 1576   6.519   4.890   1.589  0.1658  0.1644 -0.0777
 1577POP      C 1577   5.806   3.046   0.551 -0.0096  0.0995  0.1953
 1578POP      C 1578   0.896   2.229   3.925 -0.2427  0.0427 -0.0534
 1579POP      C 1579   0.370   1.078   3.411 -0.1481  0.0969 -0.0385
 1580POP      C 1580   1.992   1.209   2.728 -0.1308  0.0757  0.1301
 1581POP      C 1581   4.777   2.799   3.219  0.2371  0.1187 -0.3191
 1582POP      C 1582   6.224   1.614   5.437 -0.0208 -0.0518  0.0662
 1583POP      C 1583   0.420   0.495   3.313 -0.0597 -0.2265  0.0770
 1584POP      C 1584   5.491   6.578   3.300  0.2736  0.2646  0.0834
 1585POP      C 1585   0.187   3.845   3.454  0.2672 -0.1156  0.0745
 1586POP      C 1586   2.800   1.831   2.598 -0.0382 -0.1393 -0.0795
 1587POP      C 1587   5.792   3.875   0.961 -0.1777 -0.1393  0.4779
 1588POP      C 1588   1.283   5.389   5.187 -0.0818  0.0558 -0.0823
 1589POP      C 1589   2.738   3.403   4.639  0.2740 -0.0913  0.0609
 1590POP      C 1590   1.816   0.537   0.354  0.0855  0.2379  0.0438
 1591POP      C 1591   4.824   3.044   0.701 -0.0386  0.0139 -0.2182
 1592POP      C 1592   2.110   0.050   0.409 -0.0314  0.0087  0.0567
 1593POP      C 1593   0.736   0.415   1.835  0.3972  0.3081 -0.2909
 1594POP      C 1594   3.248   2.949   3.787  0.1020 -0.0613 -0.1919
 1595POP      C 1595   0.204   5.681   1.866  0.1385 -0.1349  0.1674
 1596POP      C 1596   1.357   2.197   0.660 -0.1337 -0.1294  0.0730
 1597POP      C 1597   3.126   1.603   1.499  0.0434 -0.0399 -0.1479
 1598POP      C 1598   1.458   6.494   5.027  0.2413 -0.0823  0.0728
 1599POP      C 1599   6.308   1.331   0.595  0.1779 -0.2857 -0.2390
 1600POP      C 1600   1.566   0.235   3.589 -0.1217  0.0801  0.1577
 1601POP      C 1601   6.007   6.369   4.893 -0.1018 -0.1514 -0.1637
 1602POP      C 1602   5.089   4.850   0.060 -0.0470  0.0416 -0.2058
 1603POP      C 1603   4.364   1.437   6.265  0.0636 -0.1216 -0.1281
 1604POP      C 1604   6.615   3.696   1.080  0.3200  0.1482 -0.0072
 1605POP      C 1605   0.498   2.943   3.085 -0.0682  0.0703 -0.0077
 1606POP      C 1606   0.512   6.164   3.127  0.4279 -0.1212 -0.2631
 1607POP      C 1607   2.202   1.062   6.259 -0.3899  0.0804 -0.0501
 1608POP      C 1608   4.795   3.806   4.713 -0.0622  0.1094  0.1293
 1609POP      C 1609   6.284   4.007   1.931 -0.2666 -0.2323 -0.2877
 1610POP      C 1610   1.302   3.626   5.763  0.1138 -0.1054  0.0494
 1611POP      C 1611   6.148   4.883   4.096  0.1085 -0.0954  0.2621
 1612POP      C 1612   4.090   1.764   5.934  0.1880  0.0638 -0.0314
 1613POP      C 1613   5.713   3.517   2.102 -0.0200 -0.2783 -0.2552
 1614POP      C 1614   2.735   3.908   5.660  0.2374  0.1598  0.0417
 1615POP      C 1615   3.171   4.456   2.305  0.2681 -0.4299  0.0535
 1616POP      C 1616   0.771   1.970   6.446 -0.1141  0.3120  0.0561
 1617POP      C 1617   0.853   1.074   2.991  0.1654 -0.1712  0.0538
 1618POP      C 1618   1.378   2.752   5.207  0.1562 -0.1203 -0.0523
 1619POP      C 1619   4.451   3.334   2.529  0.0783 -0.2172  0.0714
 1620POP      C 1620   5.613   1.755   1.778  0.2566 -0.0689 -0.2239
 1621POP      C 1621   1.265   0.995   1.078  0.0154  0.0603  0.1855
 1622POP      C 1622   4.548   4.099   1.880 -0.2177  0.0560 -0.0150
 1623POP      C 1623   6.311   3.480   4.732 -0.3089 -0.1321  0.1012
 1624POP      C 1624   4.958   5.453   2.030 -0.2212 -0.0982  0.1145
 1625POP      C 1625   3.137   0.376   4.154  0.1108 -0.1912 -0.1124
 1626POP      C 1626   2.116   2.887   4.900 -0.0799  0.0931  0.1226
 1627POP      C 1627   3.578   3.376   3.558  0.2311  0.2479 -0.0051
 1628POP      C 1628   4.333   3.234   3.187  0.0984  0.0848  0.2611
 1629POP      C 1629   0.936   5.985   3.464 -0.0187  0.0680  0.2321
 1630POP      C 1630   1.559   6.039   4.329 -0.0437  0.0433 -0.1342
 1631POP      C 1631   5.418   5.212   0.288  0.0591  0.1440  0.1626
 1632POP      C 1632   3.892   6.166   0.164  0.0038  0.4463 -0.1784
 1633POP      C 1633   5.222   2.603   4.273 -0.0755  0.0945 -0.0369
 1634POP      C 1634   5.477   3.722   5.314  0.1799 -0.2580 -0.1099
 1635POP      C 1635   1.330   5.154   5.752 -0.0445 -0.0944  0.1575
 1636POP      C 1636   1.070   5.611   0.820 -0.0375  0.0849  0.1351
 1637POP      C 1637   1.087   4.177   2.951 -0.1812 -0.1048  0.0447
 1638POP      C 1638   4.695   5.618   1.259 -0.3041 -0.0433  0.1085
 1639POP      C 1639   4.346   1.295   0.654 -0.1784  0.1099 -0.1103
 1640POP      C 1640   2.826   3.261   2.013  0.3054  0.0587 -0.2407
 1641POP      C 1641   6.489   4.638   3.865  0.3030 -0.1005  0.3441
 1642POP      C 1642   1.098   4.155   5.216  0.0049  0.0131 -0.1675
 1643POP      C 1643   0.734   2.913   6.041  0.0856 -0.2218 -0.2573
 1644POP      C 1644   2.235   3.422   0.690  0.0903  0.0299 -0.0499
 1645POP      C 1645   6.635   6.151   1.151  0.1961 -0.0843  0.2350
 1646POP      C 1646   4.215   6.218   6.122  0.2759  0.0109  0.0454
 1647POP      C 1647   5.711   0.101   3.836 -0.1862  0.0595  0.3085
 1648POP      C 1648   2.587   3.840   4.830 -0.0884  0.0574  0.2601
 1649POP      C 1649   4.714   1.274   1.401 -0.1585 -0.3802  0.0800
 1650POP      C 1650   1.118   0.648   4.920 -0.0075  0.3899 -0.1500
 1651POP      C 1651   3.445   0.885   0.959  0.2467  0.0571 -0.1184
 1652POP      C 1652   3.013   0.123   1.846  0.1085  0.0591 -0.1921
 1653POP      C 1653   6.593   0.884   2.156 -0.0299 -0.1449  0.2678
 1654POP      C 1654   4.341   3.543   4.622  0.1549  0.1702 -0.5485
 1655POP      C 1655   2.024   5.633   4.470  0.0585  0.1471 -0.0736
 1656POP      C 1656   4.342   3.174   0.999  0.2617 -0.1641 -0.0717
 1657POP      C 1657   6.642   6.587   4.825 -0.0972  0.0604  0.0937
 1658POP      C 1658   6.535   1.467   0.008  0.0196  0.0381 -0.0805
 1659POP      C 1659   3.170   5.688   2.067  0.2092  0.1360  0.0169
 1660POP      C 1660   2.363   5.982   5.956 -0.2754  0.0538  0.2519
 1661POP      C 1661   6.522   3.834   1.543  0.1722  0.3167  0.0049
 1662POP      C 1662   1.219   1.513   3.200 -0.2910 -0.2263 -0.1226
 1663POP      C 1663   0.643   2.219   5.208  0.3507 -0.0628 -0.1020
 1664POP      C 1664   2.754   1.858   6.308  0.0858  0.0112  0.3550
 1665POP      C 1665   2.565   6.531   1.692  0.1533  0.1809  0.0732
 1666POP      C 1666   6.359   0.462   2.251  0.0757 -0.1757  0.1398
 1667POP      C 1667   6.040   0.865   1.261  0.2351 -0.2603 -0.2987
 1668POP      C 1668   6.591   2.937   5.484 -0.0084  0.1478  0.1086
 1669POP      C 1669   3.786   5.800   5.333  0.0869 -0.0009  0.0397
 1670POP      C 1670   5.126   5.151   5.025 -0.0050 -0.2163 -0.0868
 1671POP      C 1671   6.028   6.098   4.409 -0.0300 -0.0782 -0.3675
 1672POP      C 1672   4.829   6.391   0.437  0.0983 -0.0829  0.1244
 1673POP      C 1673   2.972   4.209   6.105 -0.3460  0.2332  0.0436
 1674POP      C 1674   1.124   1.294   4.940  0.0749 -0.2652 -0.2591
 1675POP      C 1675   5.995   3.245   3.926  0.1688 -0.1796 -0.3792
 1676POP      C 1676   5.559   5.263   4.641 -0.1375 -0.0848  0.0667
 1677POP      C 1677   4.502   1.757   1.520 -0.1792 -0.0410  0.0151
 1678POP      C 1678   1.526   4.152   6.638  0.0808  0.1291  0.0467
 1679POP      C 1679   3.468   0.604   6.616 -0.0823 -0.0324  0.1877
 1680POP      C 1680   6.196   6.029   3.502 -0.2339 -0.0360  0.2724
 1681POP      C 1681   5.052   0.437   4.141  0.0408  0.3121 -0.3160
 1682POP      C 1682   0.217   2.583   2.284  0.2047 -0.0122 -0.1619
 1683POP      C 1683   3.196   1.866   6.065  0.1139  0.1627  0.0006
 1684POP      C 1684   5.917   4.297   4.237  0.1712 -0.2452  0.3009
 1685POP      C 1685   5.221   3.725   4.921  0.1111  0.2083  0.1171
 1686POP      C 1686   5.144   2.411   1.943  0.1078 -0.1571 -0.1993
 1687POP      C 1687   0.463   1.716   0.707  0.5204  0.1356 -0.2121
 1688POP      C 1688   2.149   0.426   6.190 -0.3261  0.0109 -0.3057
 1689POP      C 1689   2.036   5.107   1.676 -0.2108  0.1205 -0.0423
 1690POP      C 1690   1.845   1.336   4.840  0.0532  0.0812 -0.1617
 1691POP      C 1691   1.976   0.325   6.607 -0.1043 -0.0355 -0.1965
 1692POP      C 1692   5.405   4.272   5.396 -0.1031  0.1600  0.1365
 1693POP      C 1693   2.034   1.287   4.378  0.1642 -0.0403 -0.0540
 1694POP      C 1694   0.457   3.854   5.912 -0.0141  0.0023  0.0747
 1695POP      C 1695   2.963   2.446   5.343 -0.0110  0.1284  0.2117
 1696POP      C 1696   0.578   0.917   2.331  0.1717  0.2110  0.1461
 1697POP      C 1697   6.593   1.792   1.632  0.1473 -0.2822 -0.0321
 1698POP      C 1698   3.189   6.297   4.399 -0.4058 -0.3910 -0.3275
 1699POP      C 1699   5.824   5.370   5.835  0.0513 -0.0789  0.0013
 1700POP      C 1700   5.724   4.852   4.333 -0.2815 -0.0734 -0.1693
 1701POP      C 1701   3.925   6.540   4.317  0.1032 -0.2319 -0.0607
 1702POP      C 1702   1.752   4.736   0.783  0.0908  0.1357  0.2410
 1703POP      C 1703   5.832   4.803   1.141 -0.0020 -0.2471 -0.2920
 1704POP      C 1704   1.135   5.499   3.749 -0.3262 -0.2227  0.0967
 1705POP      C 1705   5.885   3.572   0.585 -0.1577  0.3356 -0.2091
 1706POP      C 1706   4.012   4.930   0.635  0.2265 -0.1721  0.0370
 1707POP      C 1707   4.592   5.413   3.818  0.1704  0.1081  0.2919
 1708POP      C 1708   4.382   1.920   0.763  0.3232  0.3037  0.1109
 1709POP      C 1709   1.043   1.085   2.523  0.1159 -0.0153 -0.1116
 1710POP      C 1710   0.851   2.480   4.336  0.1538 -0.0973  0.0459
 1711POP      C 1711   2.022   1.496   1.268 -0.0451  0.0784 -0.0339
 1712POP      C 1712   5.418   5.099   1.539  0.0730 -0.0720 -0.1181
 1713POP      C 1713   3.373   0.090   4.488  0.0416 -0.3463  0.1448
 1714POP      C 1714   2.947   1.443   5.922  0.2450 -0.0888 -0.1573
 1715POP      C 1715   4.222   1.569   1.059 -0.1466 -0.0368  0.0212
 1716POP      C 1716   2.422   5.448   2.597 -0.1750 -0.0783  0.0235
 1717POP      C 1717   3.001   3.466   1.539  0.0863 -0.0832  0.2588
 1718POP      C 1718   0.031   2.400   5.419 -0.4154 -0.0215 -0.0674
 1719POP      C 1719   5.887   3.485   6.159 -0.4222  0.1376  0.1305
 1720POP      C 1720   1.280   5.428   2.782 -0.3314 -0.2607  0.2366
 1721POP      C 1721   1.207   4.152   0.359  0.2657 -0.1372  0.2495
 1722POP      C 1722   0.691   0.348   2.351  0.0056 -0.0316  0.1819
 1723POP      C 1723   3.312   0.492   3.680 -0.4471 -0.0351  0.0184
 1724POP      C 1724   5.988   1.337   0.991  0.1424 -0.1016  0.1337
 1725POP      C 1725   1.180   1.826   1.720 -0.2237 -0.2790 -0.1995
 1726POP      C 1726   5.476   0.963   6.616  0.0270  0.1052  0.1931
 1727POP      C 1727   1.496   4.178   0.796 -0.0248  0.1697  0.2148
 1728POP      C 1728   0.517   1.393   4.932  0.0230 -0.2279 -0.3758
 1729POP      C 1729   5.539   6.319   4.735  0.0757  0.1727  0.0364
 1730POP      C 1730   5.327   3.661   1.780  0.2355  0.2318 -0.2516
 1731POP      C 1731   4.682   6.116   1.059  0.2509  0.2058  0.0476
 1732POP      C 1732   2.755   1.606   1.137 -0.0849 -0.1026 -0.1064
 1733POP      C 1733   6.472   1.140   5.475  0.1459  0.0886 -0.0194
 1734POP      C 1734   3.459   4.041   4.901 -0.1712 -0.0137 -0.2289
 1735POP      C 1735   0.225   0.983   1.291 -0.1943  0.0242 -0.0083
 1736POP      C 1736   6.557   0.737   1.588  0.0934 -0.1681 -0.1336
 1737POP      C 1737   6.360   4.903   5.889 -0.0664 -0.2990  0.2017
 1738POP      C 1738   1.219   3.547   4.598  0.2254  0.1346 -0.1231
 1739POP      C 1739   4.531   0.112   6.297 -0.1198 -0.3997 -0.0995
 1740POP      C 1740   6.562   0.391   3.971 -0.2450  0.3069  0.1025
 1741POP      C 1741   4.808   2.615   5.704  0.0030 -0.2382 -0.1052
 1742POP      C 1742   6.612   2.767   6.062 -0.0358  0.4717  0.4245
 1743POP      C 1743   1.766   4.370   5.027 -0.1852  0.0954  0.0247
 1744POP      C 1744   3.460   0.916   1.974  0.2293  0.1049 -0.2049
 1745POP      C 1745   1.205   6.460   3.480 -0.3369 -0.0354 -0.1610
 1746POP      C 1746   3.864   0.657   2.128  0.0568  0.2665 -0.1356
 1747POP      C 1747   3.605   6.268   6.058 -0.2002  0.0844  0.1116
 1748POP      C 1748   3.692   2.609   0.286 -0.0491  0.0718 -0.1471
 1749POP      C 1749   2.712   6.015   1.138 -0.0783 -0.0174 -0.0177
 1750POP      C 1750   4.722   0.700   1.434 -0.0672 -0.0712 -0.1270
 1751POP      C 1751   4.744   5.690   0.784  0.2019  0.1759 -0.1765
 1752POP      C 1752   2.623   0.691   6.194  0.0243 -0.2883 -0.2065
 1753POP      C 1753   1.442   4.911   1.538 -0.0961  0.0394 -0.0543
 1754POP      C 1754   1.969   0.011   3.834 -0.2593 -0.0579  0.3331
 1755POP      C 1755   3.011   2.666   1.804 -0.3640 -0.2770 -0.2539
 1756POP      C 1756   6.444   2.421   4.350  0.0412  0.1168 -0.1317
 1757POP      C 1757   6.118   3.581   5.635 -0.0226 -0.0024  0.3061
 1758POP      C 1758   5.448   0.505   0.093 -0.0899  0.1602  0.0690
 1759POP      C 1759   4.583   5.522   4.670  0.1411 -0.0442 -0.1116
 1760POP      C 1760   4.396   4.094   4.968 -0.0372  0.3123 -0.1299
 1761POP      C 1761   3.923   2.707   1.238 -0.1782 -0.1120  0.0131
 1762POP      C 1762   0.397   0.027   1.759  0.2070  0.3822  0.2105
 1763POP      C 1763   5.946   5.701   4.841 -0.1149 -0.0907  0.3445
 1764POP      C 1764   4.562   0.975   2.680 -0.0193 -0.1892  0.2452
 1765POP      C 1765   2.096   3.051   1.448 -0.0386  0.1617 -0.0013
 1766POP      C 1766   0.610   5.471   1.017 -0.0456 -0.1026  0.0428
 1767POP      C 1767   5.519   5.324   0.835  0.3506  0.0872 -0.0595
 1768POP      C 1768   3.229   3.934   4.004 -0.2467  0.1832  0.5098
 1769POP      C 1769   2.245   3.912   5.331 -0.0054 -0.0593 -0.0200
 1770POP      C 1770   3.526   4.965   3.944  0.1554  0.0042  0.2932
 1771POP      C 1771   4.000   0.684   5.115 -0.0091  0.2034  0.0443
 1772POP      C 1772   5.821   5.866   6.120 -0.1589 -0.2201  0.1909
 1773POP      C 1773   0.433   5.987   1.317  0.2611 -0.1372  0.0402
 1774POP      C 1774   0.713   0.962   5.079  0.1473  0.0496  0.1609
 1775POP      C 1775   4.552   5.125   2.099  0.1453 -0.1834  0.1609
 1776POP      C 1776   1.852   2.538   2.716 -0.2195 -0.0513 -0.0975
 1777POP      C 1777   4.061   4.872   1.795 -0.2292 -0.2340  0.1473
 1778POP      C 1778   2.389   4.173   2.993  0.3109 -0.3845 -0.0412
 1779POP      C 1779   3.215   3.389   4.391 -0.3750 -0.0451 -0.3436
 1780POP      C 1780   2.616   6.604   3.899 -0.0539 -0.0005  0.3603
 1781POP      C 1781   5.609   0.080   5.881  0.5855  0.0552  0.0978
 1782POP      C 1782   5.073   1.608   2.470 -0.0888 -0.0978 -0.5391
 1783POP      C 1783   2.376   4.133   5.959 -0.0360 -0.2345 -0.0763
 1784POP      C 1784   5.404   3.390   0.076  0.0142 -0.3962 -0.0453
 1785POP      C 1785   3.368   1.645   3.790  0.1484 -0.1004  0.4727
 1786POP      C 1786   2.674   2.030   2.126 -0.1498 -0.0838 -0.2308
 1787POP      C 1787   5.924   3.796   0.129  0.2447 -0.0058  0.1707
 1788POP      C 1788   4.284   5.606   5.280  0.0192  0.0497 -0.0486
 1789POP      C 1789   1.122   5.407   4.745  0.1755 -0.0568  0.0433
 1790POP      C 1790   6.308   6.416   0.405 -0.1584  0.0636  0.0013
 1791POP      C 1791   1.789   5.914   5.142  0.0113 -0.1372  0.0239
 1792POP      C 1792   2.588   1.693   4.444  0.1000 -0.0374  0.1996
 1793POP      C 1793   1.414   1.329   2.177  0.0143 -0.0936  0.2183
 1794POP      C 1794   1.069   0.889   5.392  0.0808  0.1922 -0.1996
 1795POP      C 1795   0.763   1.458   6.151  0.1672  0.0610 -0.2681
 1796POP      C 1796   5.085   1.356   4.142  0.1328 -0.0820  0.0202
 1797POP      C 1797   4.648   0.529   0.993 -0.1851 -0.3504  0.0314
 1798POP      C 1798   2.762   1.703   0.625 -0.1735 -0.1567  0.1345
 1799POP      C 1799   2.178   0.436   2.275 -0.0856 -0.0381  0.1346
 1800POP      C 1800   3.791   0.533   0.536  0.0551 -0.0355 -0.1933
 1801POP      C 1801   1.019   6.281   3.056  0.2674  0.1752 -0.1306
 1802POP      C 1802   0.437   5.281   6.348  0.0163  0.2314 -0.1380
 1803POP      C 1803   3.496   6.423   6.505 -0.1044  0.2977  0.5150
 1804POP      C 1804   0.923   3.287   2.540  0.2101 -0.0761  0.3680
 1805POP      C 1805   5.080   0.207   3.374  0.0902 -0.1256  0.2770
 1806POP      C 1806   6.332   5.326   1.795 -0.0494 -0.0245 -0.1371
 1807POP      C 1807   5.178   4.066   6.039  0.0005 -0.1341 -0.1230
 1808POP      C 1808   2.931   1.385   2.797 -0.1050  0.3751 -0.0229
 1809POP      C 1809   4.328   4.459   0.396 -0.1574 -0.2627  0.0007
 1810POP      C 1810   3.504   5.438   4.642 -0.1082  0.2200  0.1486
 1811POP      C 1811   5.768   1.628   6.070 -0.1389 -0.1142 -0.1313
 1812POP      C 1812   1.528   5.113   3.735 -0.0543 -0.1512  0.0509
 1813POP      C 1813   4.737   3.369   4.405 -0.0729 -0.1340  0.2515
 1814POP      C 1814   3.835   5.896   3.664  0.1482 -0.2998 -0.0414
 1815POP      C 1815   2.618   2.554   0.386 -0.0486 -0.0453  0.0770
 1816POP      C 1816   5.653   2.548   2.830 -0.0381 -0.1871 -0.1977
 1817POP      C 1817   0.295   1.368   2.166 -0.1005  0.0646 -0.2267
 1818POP      C 1818   2.108   0.667   2.747 -0.1142 -0.0883 -0.0726
 1819POP      C 1819   0.359   2.747   4.974  0.1203 -0.1903 -0.1493
 1820POP      C 1820   5.102   0.081   0.820  0.3132  0.0356 -0.1509
 1821POP      C 1821   4.046   3.617   3.580 -0.0461 -0.3219 -0.3349
 1822POP      C 1822   0.702   6.483   5.612 -0.3453  0.2609  0.3012
 1823POP      C 1823   0.174   2.451   6.580 -0.1330  0.0652  0.4494
 1824POP      C 1824   6.225   2.793   1.773  0.0562  0.0107 -0.2820
 1825POP      C 1825   4.035   2.886   6.495  0.1870 -0.0293  0.1579
 1826POP      C 1826   1.953   4.590   0.028 -0.1926 -0.0495 -0.0946
 1827POP      C 1827   0.822   5.953   0.005 -0.1487  0.3475  0.2360
 1828POP      C 1828   4.664   0.585   4.364  0.1996 -0.4768  0.2251
 1829POP      C 1829   3.054   3.395   3.913  0.0495  0.0718  0.2420
 1830POP      C 1830   0.360   1.326   0.428  0.0710  0.3480  0.0008
 1831POP      C 1831   2.270   1.132   5.786  0.1399 -0.2487 -0.3609
 1832POP      C 1832   0.371   0.232   6.363 -0.2132 -0.3860 -0.0581
 1833POP      C 1833   5.772   4.754   0.159  0.2353  0.1521  0.0553
 1834POP      C 1834   3.378   6.614   5.046  0.3753  0.0451  0.3292
 1835POP      C 1835   4.345   2.251   2.316  0.0859 -0.2910  0.0636
 1836POP      C 1836   3.066   4.948   4.807 -0.0824 -0.0456  0.0801
 1837POP      C 1837   6.365   2.455   0.672 -0.1486  0.5319 -0.0938
 1838POP      C 1838   5.576   0.899   2.025 -0.0309  0.0317  0.1346
 1839POP      C 1839   5.368   5.536   4.275  0.0062 -0.0760  0.1467
 1840POP      C 1840   0.786   1.243   3.635 -0.0192  0.0742  0.3825
 1841POP      C 1841   5.321   2.892   2.744 -0.2196  0.1720 -0.0121
 1842POP      C 1842   5.661   4.987   6.358  0.0938 -0.0500 -0.1922
 1843POP      C 1843   0.184   3.356   6.478 -0.1766 -0.3748  0.2213
 1844POP      C 1844   0.678   4.008   2.014  0.2447 -0.2374 -0.0405
 1845POP      C 1845   3.791   3.415   1.085 -0.1527 -0.0087 -0.2347
 1846POP      C 1846   0.389   1.247   6.621 -0.1469  0.1573  0.3103
 1847POP      C 1847   2.084   5.865   0.931 -0.3510  0.1351  0.2018
 1848POP      C 1848   4.348   1.426   1.895 -0.0030 -0.1373 -0.0520
 1849POP      C 1849   6.196   1.970   4.194 -0.3097  0.1022  0.2006
 1850POP      C 1850   1.287   6.469   6.350 -0.0846 -0.0669  0.3736
 1851POP      C 1851   6.146   0.510   3.705  0.3704 -0.1933 -0.0049
 1852POP      C 1852   3.355   2.707   2.332  0.0793 -0.3697  0.0423
 1853POP      C 1853   1.544   2.687   1.679 -0.1977 -0.2810  0.0651
 1854POP      C 1854   4.819   4.526   3.414  0.0943 -0.0984 -0.1380
 1855POP      C 1855   4.035   3.190   4.319 -0.0143 -0.1648  0.1276
 1856POP      C 1856   0.098   0.951   3.905 -0.0981  0.0113  0.0468
 1857POP      C 1857   6.619   0.338   6.055 -0.0918  0.1016  0.0268
 1858POP      C 1858   3.843   4.221   3.014 -0.1213 -0.1667 -0.1641
 1859POP      C 1859   1.356   0.597   0.111 -0.0139  0.0771 -0.0084
 1860POP      C 1860   1.170   6.281   5.799 -0.3904 -0.1716  0.3383
 1861POP      C 1861   0.428   2.725   0.231  0.2042 -0.1307  0.2644
 1862POP      C 1862   2.079   3.213   5.464  0.0626  0.0801 -0.1515
 1863POP      C 1863   5.674   3.013   3.043  0.0119  0.0124 -0.0836
 1864POP      C 1864   4.571   5.164   0.872  0.2385 -0.0536  0.1635
 1865POP      C 1865   0.556   0.974   0.700  0.0639  0.1226 -0.1723
 1866POP      C 1866   4.099   4.427   4.677  0.3396 -0.0958  0.5059
 1867POP      C 1867   5.940   2.085   6.438 -0.0802 -0.1098  0.0104
 1868POP      C 1868   2.690   4.839   4.371 -0.0178  0.1216  0.2411
 1869POP      C 1869   3.260   0.868   4.086 -0.0206 -0.0268  0.0384
 1870POP      C 1870   1.497   5.851   2.528 -0.1140  0.0266 -0.0412
 1871POP      C 1871   3.587   4.794   0.291 -0.0393  0.1135  0.1481
 1872POP      C 1872   0.662   1.853   1.232 -0.2389 -0.0268  0.3712
 1873POP      C 1873   4.201   1.979   1.889  0.0403 -0.1075  0.0941
 1874POP      C 1874   6.278   4.517   3.179 -0.1635 -0.1264  0.2181
 1875POP      C 1875   5.764   4.392   1.385 -0.1501  0.0857  0.4117
 1876POP      C 1876   1.240   3.174   2.197  0.1115 -0.1083 -0.2274
 1877POP      C 1877   2.441   2.959   6.458 -0.1314  0.1369 -0.2093
 1878POP      C 1878   4.043   0.042   3.789 -0.2959 -0.4227 -0.0716
 1879POP      C 1879   5.992   2.967   3.511  0.0884 -0.0439  0.0433
 1880POP      C 1880   2.343   4.142   1.016  0.4555 -0.1886 -0.3236
 1881POP      C 1881   1.198   1.777   5.971  0.0521  0.1292  0.2129
 1882POP      C 1882   0.176   1.304   0.914 -0.0868  0.1824  0.3911
 1883POP      C 1883   6.323   2.155   2.093  0.0357 -0.0824 -0.2161
 1884POP      C 1884   5.997   3.906   3.955  0.0093  0.0411  0.0595
 1885POP      C 1885   0.110   6.476   2.838  0.0622  0.1181  0.0712
 1886POP      C 1886   6.446   4.234   3.509  0.2441  0.2251 -0.2091
 1887POP      C 1887   6.249   0.028   4.077  0.1107  0.1257 -0.1828
 1888POP      C 1888   6.177   4.896   6.415  0.2563 -0.0332 -0.1181
 1889POP      C 1889   0.781   3.422   1.449 -0.1152 -0.2149 -0.1656
 1890POP      C 1890   3.059   5.569   4.323  0.3962 -0.0241  0.0050
 1891POP      C 1891   4.649   5.304   2.657  0.1724  0.0582  0.1645
 1892POP      C 1892   0.366   2.741   4.501  0.0440  0.1120  0.3508
 1893POP      C 1893   0.348   0.444   1.488 -0.0317 -0.3148  0.0836
 1894POP      C 1894   1.223   1.834   2.290  0.2986  0.0371  0.1256
 1895POP      C 1895   0.019   1.521   5.704 -0.1313  0.0304  0.0059
 1896POP      C 1896   3.986   4.666   2.768 -0.5379 -0.1380  0.0447
 1897POP      C 1897   5.346   2.393   2.455  0.0579  0.0670 -0.0482
 1898POP      C 1898   1.064   2.934   2.955 -0.1578 -0.2445 -0.1615
 1899POP      C 1899   6.555   6.038   0.633 -0.0207  0.0396 -0.0683
 1900POP      C 1900   3.214   1.811   2.824  0.1821  0.0413  0.1659
 1901POP      C 1901   3.839   2.355   5.496  0.1805  0.1774  0.0439
 1902POP      C 1902   2.007   5.334   1.235  0.2061 -0.0253  0.1375
 1903POP      C 1903   5.920   6.209   3.117 -0.0792 -0.2238 -0.1026
 1904POP      C 1904   4.061   2.799   3.373 -0.0951  0.0700  0.1312
 1905POP      C 1905   1.720   4.491   2.869 -0.0664  0.1684  0.2879
 1906POP      C 1906   3.905   0.524   3.465  0.2077  0.0584  0.1548
 1907POP      C 1907   4.610   0.460   0.525  0.2100  0.0733  0.1304
 1908POP      C 1908   2.796   3.352   6.519 -0.0981 -0.1228 -0.4062
 1909POP      C 1909   4.784   1.082   0.810 -0.2276  0.2048 -0.0773
 1910POP      C 1910   2.083   3.588   3.185 -0.0830 -0.0689 -0.2479
 1911POP      C 1911   1.094   0.883   0.552  0.1367 -0.0877  0.0007
 1912POP      C 1912   0.523   3.200   4.221  0.0529 -0.2727  0.1461
 1913POP      C 1913   1.249   3.098   4.908  0.0901  0.2385  0.4628
 1914POP      C 1914   4.735   0.209   0.099  0.0802  0.2528  0.0789
 1915POP      C 1915   3.338   6.097   5.014 -0.2626  0.0235 -0.1799
 1916POP      C 1916   0.515   4.564   2.544  0.3186 -0.3542 -0.1400
 1917POP      C 1917   1.683   2.329   5.213  0.0655  0.2241  0.2276
 1918POP      C 1918   0.131   0.561   4.378 -0.0113 -0.3260 -0.3950
 1919POP      C 1919   4.200   5.302   3.389  0.2269  0.0782  0.0161
 1920POP      C 1920   2.408   0.181   2.899  0.1111  0.3416 -0.0620
 1921POP      C 1921   1.514   0.666   2.785  0.0505 -0.1677 -0.0689
 1922POP      C 1922   3.414   5.660   1.555  0.3919 -0.1957  0.1641
 1923POP      C 1923   0.079   1.846   2.297 -0.0135 -0.2491 -0.0404
 1924POP      C 1924   3.548   1.107   6.620 -0.1274  0.0937 -0.1719
 1925POP      C 1925   1.919   0.258   0.852 -0.0152 -0.4066 -0.0360
 1926POP      C 1926   0.893   4.956   2.378 -0.1625  0.0757 -0.0621
 1927POP      C 1927   1.806   2.273   4.429  0.0630  0.0571 -0.0905
 1928POP      C 1928   2.039   4.627   4.576 -0.0889  0.2297 -0.0554
 1929POP      C 1929   1.656   1.237   3.502  0.0264  0.1143 -0.2527
 1930POP      C 1930   1.398   3.023   5.662  0.1293  0.1246 -0.0755
 1931POP      C 1931   0.756   2.585   1.403 -0.1860 -0.0816 -0.2590
 1932POP      C 1932   0.764   2.364   3.297 -0.0551  0.1804 -0.2774
 1933POP      C 1933   6.384   1.810   6.184 -0.0840  0.0871 -0.1206
 1934POP      C 1934   5.224   5.299   3.760 -0.1916  0.0055  0.1763
 1935POP      C 1935   4.415   4.490   2.729 -0.2512 -0.0259 -0.3972
 1936POP      C 1936   6.499   3.219   3.762  0.0039 -0.2497 -0.0720
 1937POP      C 1937   2.580   0.359   0.031  0.4173 -0.1631  0.1066
 1938POP      C 1938   3.468   2.444   5.925 -0.1717  0.3443 -0.1357
 1939POP      C 1939   2.109   4.493   0.558 -0.1086 -0.1692  0.1937
 1940POP      C 1940   5.410   4.310   4.396  0.0155  0.2101  0.2623
 1941POP      C 1941   4.921   3.722   6.376  0.0629 -0.1562  0.0230
 1942POP      C 1942   2.474   4.529   1.446  0.0524  0.1923  0.1331
 1943POP      C 1943   4.730   2.810   6.218  0.0621 -0.2191  0.1078
 1944POP      C 1944   4.275   5.896   4.538 -0.0241 -0.1976 -0.0182
 1945POP      C 1945   0.489   3.201   4.713  0.0333  0.0068 -0.1402
 1946POP      C 1946   3.986   3.054   1.984 -0.2849 -0.5682  0.3376
 1947POP      C 1947   2.713   4.655   2.081  0.1948 -0.1656 -0.1660
 1948POP      C 1948   1.704   1.617   3.130  0.1994 -0.0460 -0.0934
 1949POP      C 1949   1.947   6.360   0.776  0.0062  0.0239  0.0175
 1950POP      C 1950   2.113   4.790   3.042 -0.2021 -0.1140 -0.1762
 1951POP      C 1951   2.147   2.866   2.451  0.2075  0.0366 -0.2972
 1952POP      C 1952   5.804   3.822   2.699 -0.1221 -0.3396  0.3606
 1953POP      C 1953   0.564   0.214   1.046 -0.1526  0.0084 -0.4778
 1954POP      C 1954   0.345   4.360   0.717  0.2889 -0.1685 -0.1630
 1955POP      C 1955   0.757   4.588   2.075 -0.2303  0.0885 -0.0244
 1956POP      C 1956   3.850   4.720   5.949  0.0097 -0.2321  0.1051
 1957POP      C 1957   5.575   3.085   5.907 -0.3989  0.4707  0.0887
 1958POP      C 1958   4.963   4.886   5.423  0.2563 -0.0257  0.0982
 1959POP      C 1959   0.388   1.055   2.754 -0.3360 -0.0532  0.2541
 1960POP      C 1960   2.768   6.383   5.953 -0.0920  0.0235  0.2555
 1961POP      C 1961   2.172   2.364   0.244  0.0625 -0.1788 -0.2077
 1962POP      C 1962   5.667   5.944   1.023 -0.0444  0.2376 -0.4361
 1963POP      C 1963   5.667   3.704   5.784  0.1099 -0.0974  0.1571
 1964POP      C 1964   6.165   0.181   5.747  0.1232  0.1501 -0.1164
 1965POP      C 1965   4.185   6.126   1.348 -0.5756  0.1525  0.1333
 1966POP      C 1966   3.592   1.799   4.195  0.1627 -0.2375  0.1348
 1967POP      C 1967   0.746   5.070   5.954  0.2242 -0.1760 -0.2288
 1968POP      C 1968   2.490   2.888   4.592  0.0527 -0.0558 -0.2449
 1969POP      C 1969   3.055   6.122   6.269 -0.0983 -0.3523 -0.1517
 1970POP      C 1970   6.633   5.523   3.606  0.2767  0.0131 -0.1377
 1971POP      C 1971   5.061   5.618   1.594  0.2086 -0.0529  0.0008
 1972POP      C 1972   5.996   5.951   1.451  0.3451  0.1877 -0.2902
 1973POP      C 1973   0.970   5.480   5.662  0.0381 -0.1304  0.0062
 1974POP      C 1974   5.743   1.157   6.059  0.1227 -0.2771  0.3246
 1975POP      C 1975   5.873   3.242   4.792  0.0999 -0.0075  0.2049
 1976POP      C 1976   5.199   5.660   0.236 -0.0548 -0.1706  0.0676
 1977POP      C 1977   2.535   6.327   6.385 -0.1296  0.0537  0.0700
 1978POP      C 1978   6.558   4.685   0.010 -0.0735  0.2679  0.0682
 1979POP      C 1979   4.512   1.972   4.655  0.0932 -0.3059 -0.1943
 1980POP      C 1980   3.482   2.305   0.645  0.2849  0.1156  0.1197
 1981POP      C 1981   6.361   4.641   4.644 -0.1597 -0.1308  0.1138
 1982POP      C 1982   5.762   1.202   5.547 -0.1408  0.1589 -0.3246
 1983POP      C 1983   0.320   4.467   3.817 -0.4905  0.2659 -0.0791
 1984POP      C 1984   2.975   2.878   5.603  0.0073  0.1724 -0.2189
 1985POP      C 1985   2.509   6.329   5.507  0.0107  0.1466 -0.0880
 1986POP      C 1986   0.633   5.093   4.172 -0.4763 -0.2391  0.3084
 1987POP      C 1987   3.652   1.865   5.098 -0.1381  0.2710  0.1305
 1988POP      C 1988   4.318   0.435   1.331 -0.0643 -0.1036  0.1125
 1989POP      C 1989   1.005   4.598   0.532 -0.1369  0.4161 -0.0654
 1990POP      C 1990   2.850   4.052   2.850  0.0237 -0.2184 -0.0173
 1991POP      C 1991   3.031   3.651   3.443  0.2753 -0.0842  0.0747
 1992POP      C 1992   1.534   1.072   4.010 -0.0271  0.2384 -0.0245
 1993POP      C 1993   3.156   5.446   5.859 -0.0009 -0.1534 -0.2024
 1994POP      C 1994   4.563   4.527   6.061  0.0237  0.0801  0.3945
 1995POP      C 1995   0.038   3.139   0.335 -0.0421 -0.0156 -0.1622
 1996POP      C 1996   1.847   3.981   3.576  0.1544  0.1339 -0.0367
 1997POP      C 1997   1.359   6.640   2.355 -0.0246  0.0773  0.0318
 1998POP      C 1998   0.857   0.070   6.038  0.0302  0.0346 -0.2645
 1999POP      C 1999   6.432   5.449   2.799  0.0520  0.0561 -0.2489
 2000POP      C 2000   6.256   6.350   2.727  0.5571 -0.0911 -0.1268
 2001POP      C 2001   1.825   1.739   6.631 -0.0015  0.3283  0.0448
 2002POP      C 2002   4.885   5.674   4.117 -0.0232  0.3560 -0.1352
 2003POP      C 2003   0.361   6.593   3.266  0.0008  0.0262 -0.2890
 2004POP      C 2004   3.257   6.091   1.177 -0.1044  0.0838 -0.0957
 2005POP      C 2005   2.743   4.593   5.237 -0.3236  0.0385 -0.1049
 2006POP      C 2006   1.586   4.521   5.619  0.2919  0.2877 -0.2158
 2007POP      C 2007   0.588   0.481   5.224 -0.3392 -0.2251 -0.0269
 2008POP      C 2008   2.024   6.106   6.377 -0.0861  0.0761  0.0672
 2009POP      C 2009   2.642   2.033   5.714  0.1741  0.0630  0.0576
 2010POP      C 2010   4.022   1.362   4.134 -0.1153  0.3089  0.0099
 2011POP      C 2011   4.963   4.944   2.460  0.0962  0.0911  0.0141
 2012POP      C 2012   2.439   2.899   5.648  0.0997 -0.0508 -0.0665
 2013POP      C 2013   2.941   2.107   0.120 -0.0681  0.2125  0.0422
 2014POP      C 2014   5.247   1.191   0.584 -0.1682 -0.1634 -0.0251
 2015POP      C 2015   2.965   1.234   0.557  0.0332 -0.0941 -0.1242
 2016POP      C 2016   6.564   3.044   2.429  0.1701  0.2204 -0.0898
 2017POP      C 2017   5.232   2.366   0.924 -0.3218  0.2327  0.1016
 2018POP      C 2018   0.008   2.546   4.749 -0.0340  0.1300 -0.0631
 2019POP      C 2019   2.486   6.424   1.212  0.2670 -0.0814 -0.3635
 2020POP      C 2020   3.779   4.868   2.252 -0.4387  0.1962  0.0148
 2021POP      C 2021   0.363   6.541   5.957  0.3659  0.2796  0.1850
 2022POP      C 2022   1.885   3.953   0.292 -0.2511 -0.0304 -0.0840
 2023POP      C 2023   3.978   5.227   4.837 -0.3142  0.2350 -0.0343
 2024POP      C 2024   1.060   0.134   5.226 -0.0286 -0.0305  0.2820
 2025POP      C 2025   5.551   3.081   3.847 -0.1191 -0.0098 -0.2079
 2026POP      C 2026   4.401   4.028   3.001 -0.1270 -0.2109  0.0872
 2027POP      C 2027   5.951   6.376   1.668 -0.1170 -0.1765 -0.0482
 2028POP      C 2028   0.820   1.316   2.021  0.0039 -0.3238 -0.2521
 2029POP      C 2029   6.200   5.074   4.636  0.0193  0.0629 -0.0261
 2030POP      C 2030   2.102   1.712   1.827 -0.1515  0.0679 -0.2938
 2031POP      C 2031   0.296   0.560   0.101  0.0977 -0.0796  0.1135
 2032POP      C 2032   6.579   2.216   1.174 -0.2345 -0.2214 -0.2057
 2033POP      C 2033   3.151   2.539   4.522 -0.0098  0.0570  0.1245
 2034POP      C 2034   4.954   4.361   1.666  0.3153 -0.2878 -0.1906
 2035POP      C 2035   5.980   3.618   3.543 -0.1327 -0.0692 -0.0952
 2036POP      C 2036   5.362   1.807   4.398 -0.1050 -0.1638 -0.1954
 2037POP      C 2037   4.354   0.332   4.714  0.0218  0.2196 -0.2452
 2038POP      C 2038   3.763   5.278   1.989  0.0633  0.1351  0.1662
 2039POP      C 2039   4.338   6.193   1.837  0.2065 -0.0073  0.3187
 2040POP      C 2040   6.123   1.719   3.612 -0.0010 -0.0544  0.1627
 2041POP      C 2041   3.405   1.363   1.144  0.0902  0.2203 -0.1315
 2042POP      C 2042   4.007   0.155   5.272  0.1824 -0.2348 -0.3232
 2043POP      C 2043   4.438   1.948   3.338 -0.3510  0.1672 -0.0347
 2044POP      C 2044   3.774   4.340   6.340 -0.1222  0.0218 -0.1041
 2045POP      C 2045   0.212   6.533   2.260  0.2458 -0.2245 -0.1955
 2046POP      C 2046   3.615   3.683   2.577 -0.0811  0.0502  0.0789
 2047POP      C 2047   0.181   6.468   0.781  0.0441 -0.4218 -0.1862
 2048POP      C 2048   2.862   6.278   1.943 -0.0857 -0.1167  0.0099
 2049POP      C 2049   2.667   1.331   4.058 -0.1699  0.2581  0.0717
 2050POP      C 2050   4.022   0.948   2.506 -0.0005 -0.1226 -0.2007
 2051POP      C 2051   2.446   3.874   0.609  0.1594 -0.1695  0.1061
 2052POP      C 2052   5.587   2.295   5.485 -0.2556 -0.3728 -0.1144
 2053POP      C 2053   3.601   5.402   6.155 -0.0570  0.1424  0.1783
 2054POP      C 2054   3.246   5.735   5.379 -0.0218  0.0858  0.1415
 2055POP      C 2055   0.802   4.527   4.085  0.1289 -0.1630 -0.2324
 2056POP      C 2056   6.012   2.207   1.082 -0.0391  0.0310  0.0260
 2057POP      C 2057   2.216   5.817   5.465  0.0717  0.1686  0.2153
 2058POP      C 2058   5.247   3.744   1.119  0.0367 -0.2597  0.2476
 2059POP      C 2059   4.812   4.831   1.152  0.1696  0.0473  0.0548
 2060POP      C 2060   5.857   0.454   5.409 -0.0805  0.2660  0.3125
 2061POP      C 2061   1.572   1.457   0.913 -0.0487  0.2548 -0.0881
 2062POP      C 2062   1.691   1.527   3.988 -0.2174 -0.0377  0.0611
 2063POP      C 2063   1.098   6.301   5.320 -0.0441  0.1971 -0.3665
 2064POP      C 2064   1.052   4.701   6.146  0.1680  0.2532 -0.2037
 2065POP      C 2065   3.266   2.086   5.389 -0.2457  0.0628  0.1204
 2066POP      C 2066   4.381   6.599   0.683 -0.1654  0.1123  0.3137
 2067POP      C 2067   0.927   3.787   3.271  0.3552 -0.0075  0.0712
 2068POP      C 2068   5.880   4.450   6.251  0.0231  0.2579  0.0197
 2069POP      C 2069   4.501   1.927   6.300 -0.4972  0.2482 -0.1476
 2070POP      C 2070   4.262   6.225   5.557  0.0532 -0.1246  0.0420
 2071POP      C 2071   2.094   2.627   3.230  0.2764  0.0136  0.3108
 2072POP      C 2072   6.220   1.367   4.174 -0.1709  0.0717  0.2170
 2073POP      C 2073   1.766   1.805   4.551 -0.0026  0.1527  0.1774
 2074POP      C 2074   1.972   6.379   4.251  0.2310  0.0582  0.0488
 2075POP      C 2075   3.926   2.835   5.615  0.2585 -0.2234 -0.1054
 2076POP      C 2076   2.429   5.471   1.866  0.3385  0.1489  0.0352
 2077POP      C 2077   2.391   4.937   2.460  0.1495  0.2437 -0.1971
 2078POP      C 2078   2.280   6.141   1.527  0.2066 -0.1267 -0.2192
 2079POP      C 2079   0.686   4.725   3.590 -0.1140  0.0795  0.5411
 2080POP      C 2080   4.784   3.353   1.587 -0.1331  0.3336  0.3190
 2081POP      C 2081   2.700   2.746   3.012 -0.0943 -0.0072  0.0513
 2082POP      C 2082   2.763   4.182   0.192 -0.1964  0.0507 -0.1830
 2083POP      C 2083   0.216   0.269   2.544 -0.1125 -0.3697 -0.3261
 2084POP      C 2084   3.012   0.158   2.954  0.0128  0.0752  0.0215
 2085POP      C 2085   1.106   5.856   5.048 -0.1709  0.0378 -0.0112
 2086POP      C 2086   5.247   1.975   5.575  0.0554  0.0409  0.1059
 2087POP      C 2087   5.902   4.608   2.279  0.0543  0.2173  0.0902
 2088POP      C 2088   4.079   3.310   5.583  0.1450  0.0796 -0.0840
 2089POP      C 2089   5.500   5.440   2.070  0.2284 -0.0193  0.0089
 2090POP      C 2090   1.807   4.431   3.816  0.3186 -0.1962  0.1263
 2091POP      C 2091   3.456   3.101   5.834 -0.2484 -0.1410 -0.2800
 2092POP      C 2092   5.592   0.685   5.775 -0.0763  0.0717 -0.0780
 2093POP      C 2093   3.929   1.793   3.318  0.2529  0.1772  0.1750
 2094POP      C 2094   1.211   6.194   4.644  0.1314  0.1521  0.0832
 2095POP      C 2095   3.581   2.603   1.718  0.0252 -0.1015  0.0578
 2096POP      C 2096   5.548   0.689   4.102  0.0999 -0.0089  0.2581
 2097POP      C 2097   1.547   0.810   4.620  0.1127 -0.1608 -0.1369
 2098POP      C 2098   4.567   3.700   3.369  0.0267  0.0480 -0.2275
 2099POP      C 2099   5.215   1.687   6.376 -0.1664  0.0264  0.0161
 2100POP      C 2100   1.163   5.322   1.250 -0.0805 -0.2357  0.2471
 2101POP      C 2101   1.001   2.126   2.598  0.1214  0.1112  0.3149
 2102POP      C 2102   6.501   4.132   3.003  0.0895  0.0100 -0.4164
 2103POP      C 2103   6.146   4.046   1.332  0.0020 -0.1833 -0.3114
 2104POP      C 2104   2.167   4.497   2.624 -0.3236  0.0250  0.1480
 2105POP      C 2105   4.675   2.032   3.806 -0.1438  0.0168 -0.3135
 2106POP      C 2106   1.113   1.669   4.599  0.0319  0.0182  0.4043
 2107POP      C 2107   3.603   2.556   6.495  0.1387 -0.2281 -0.1591
 2108POP      C 2108   2.501   1.206   2.824  0.0050  0.4999  0.0962
 2109POP      C 2109   1.656   5.875   0.655  0.3569 -0.0487  0.0283
 2110POP      C 2110   2.348   1.398   5.200 -0.1898  0.2399  0.0753
 2111POP      C 2111   3.810   0.751   1.163 -0.1750  0.3983 -0.1401
 2112POP      C 2112   6.117   2.516   2.825  0.2243 -0.1699 -0.0324
 2113POP      C 2113   5.058   2.835   3.889  0.2582 -0.3238 -0.0588
 2114POP      C 2114   2.306   4.248   0.196 -0.0815  0.0916 -0.0953
 2115POP      C 2115   2.418   3.682   0.177 -0.3429  0.0953  0.2658
 2116POP      C 2116   4.131   5.070   3.829  0.1913 -0.2427  0.2301
 2117POP      C 2117   2.121   5.523   6.416 -0.0730 -0.1556  0.2258
 2118POP      C 2118   2.583   5.092   2.929 -0.0860 -0.1729 -0.2381
 2119POP      C 2119   0.565   3.002   1.701  0.0563  0.2231  0.0124
 2120POP      C 2120   1.750   0.255   5.883 -0.0294 -0.2105 -0.1957
 2121POP      C 2121   0.469   5.943   0.765 -0.0393  0.2620 -0.0649
 2122POP      C 2122   3.814   0.553   2.865  0.0477 -0.0862 -0.1590
 2123POP      C 2123   3.933   5.872   6.295 -0.0921 -0.0886 -0.1705
 2124POP      C 2124   5.454   0.728   2.552  0.3414 -0.4172 -0.1040
 2125POP      C 2125   0.631   3.658   4.478 -0.2201  0.0274  0.0968
 2126POP      C 2126   5.261   0.940   6.108  0.1790 -0.0153 -0.1614
 2127POP      C 2127   4.282   2.573   5.393 -0.2365  0.0317  0.1189
 2128POP      C 2128   6.197   0.876   2.786  0.3467  0.0751  0.0339
 2129POP      C 2129   2.361   0.948   2.396  0.4450 -0.1696  0.2582
 2130POP      C 2130   2.615   4.603   5.858  0.0734  0.1055  0.0261
 2131POP      C 2131   2.909   4.198   3.415  0.2900  0.1875  0.2382
 2132POP      C 2132   5.786   6.549   5.451  0.0920 -0.0803 -0.0976
 2133POP      C 2133   2.287   2.470   5.241 -0.2173  0.0206 -0.0452
 2134POP      C 2134   4.033   4.259   1.112 -0.4435 -0.0953 -0.0095
 2135POP      C 2135   0.988   1.817   0.864 -0.3890 -0.0847 -0.1087
 2136POP      C 2136   4.153   5.356   6.349 -0.2148 -0.0657  0.0144
 2137POP      C 2137   1.612   6.282   3.936  0.1471  0.3203  0.0686
 2138POP      C 2138   0.022   1.490   5.154 -0.1779 -0.2736  0.0614
 2139POP      C 2139   0.065   4.705   3.410 -0.4082  0.1856  0.4902
 2140POP      C 2140   1.534   2.303   3.957 -0.1902  0.0352 -0.1089
 2141POP      C 2141   6.369   3.983   4.594  0.3217  0.2631  0.0508
 2142POP      C 2142   5.332   4.880   0.950 -0.1699 -0.2970 -0.0894
 2143POP      C 2143   2.423   5.686   1.306  0.2463 -0.2192 -0.1312
 2144POP      C 2144   1.515   5.693   4.726 -0.0504 -0.2366  0.2774
 2145POP      C 2145   0.106   2.705   0.654 -0.1212  0.0132  0.0679
 2146POP      C 2146   2.831   3.665   6.084 -0.0182 -0.0318  0.2681
 2147POP      C 2147   4.464   3.646   6.538  0.3673 -0.4683 -0.0825
 2148POP      C 2148   5.292   3.266   1.112  0.2793  0.3155 -0.0775
 2149POP      C 2149   3.201   3.962   0.343  0.1377  0.2489 -0.2433
 2150POP      C 2150   1.531   6.234   3.230  0.1570 -0.0794  0.1693
 2151POP      C 2151   2.131   1.354   0.035 -0.3202  0.2506  0.0736
 2152POP      C 2152   5.467   2.714   1.804 -0.1917 -0.2017 -0.0420
 2153POP      C 2153   2.460   5.158   5.344 -0.2968 -0.0794  0.1879
 2154POP      C 2154   0.251   3.164   2.100 -0.1114  0.1853 -0.1833
 2155POP      C 2155   3.129   2.032   3.936 -0.0346  0.0912 -0.3802
 2156POP      C 2156   3.628   4.462   2.584  0.2662 -0.3428 -0.2331
 2157POP      C 2157   0.324   5.364   0.665 -0.3822  0.3195 -0.2414
 2158POP      C 2158   2.501   6.581   3.415  0.1986 -0.0233  0.0089
 2159POP      C 2159   4.724   1.616   0.976 -0.0153  0.0386  0.0335
 2160POP      C 2160   1.874   0.582   5.407 -0.1748 -0.0067  0.2751
 2161POP      C 2161   1.724   1.087   1.275 -0.0401  0.0426 -0.0583
 2162POP      C 2162   3.727   0.226   0.086  0.1702  0.0776 -0.1995
 2163POP      C 2163   4.395   0.683   3.343  0.0561  0.2844 -0.0659
 2164POP      C 2164   6.351   1.869   2.589 -0.1401  0.1373  0.0170
 2165POP      C 2165   1.562   3.815   1.435  0.1517  0.1099  0.4039
 2166POP      C 2166   5.258   4.635   2.977 -0.4854 -0.2769  0.2331
 2167POP      C 2167   5.960   1.746   0.750  0.0336  0.0140 -0.0763
 2168POP      C 2168   2.604   3.027   0.389 -0.0759 -0.2133 -0.3129
 2169POP      C 2169   6.245   4.048   6.118  0.0616  0.2300 -0.0737
 2170POP      C 2170   5.476   2.216   6.061  0.0686 -0.3085 -0.0797
 2171POP      C 2171   5.040   1.217   6.458 -0.4244  0.0941 -0.0842
 2172POP      C 2172   6.416   1.564   2.047  0.0293  0.0789  0.0321
 2173POP      C 2173   3.026   2.015   3.450 -0.3755 -0.1222  0.0319
 2174POP      C 2174   6.440   0.481   1.154  0.0202 -0.2122 -0.0936
 2175POP      C 2175   3.842   4.486   3.570  0.0621 -0.2026 -0.0988
 2176POP      C 2176   3.532   6.118   0.612  0.0066  0.1941 -0.1678
 2177POP      C 2177   5.043   2.305   3.645  0.2039 -0.2044  0.0465
 2178POP      C 2178   4.477   6.345   6.646 -0.0869 -0.0817  0.0938
 2179POP      C 2179   4.878   0.086   1.668  0.1768  0.2913  0.0394
 2180POP      C 2180   0.875   2.981   4.532  0.0284  0.2237 -0.0956
 2181POP      C 2181   0.443   0.129   4.778 -0.2395  0.3233  0.0068
 2182POP      C 2182   3.178   6.527   0.472  0.1298  0.0284 -0.0495
 2183POP      C 2183   6.143   5.401   3.601  0.3167 -0.0220 -0.0738
 2184POP      C 2184   4.551   4.715   1.684 -0.4685 -0.0544 -0.1543
 2185POP      C 2185   5.668   2.267   1.967 -0.2765 -0.0067  0.2084
 2186POP      C 2186   5.975   4.795   1.621  0.2035  0.1198  0.0556
 2187POP      C 2187   3.070   3.064   0.474 -0.0944 -0.0944 -0.1585
 2188POP      C 2188   3.180   5.375   3.636  0.2892  0.0387  0.1644
 2189POP      C 2189   2.068   5.353   3.776 -0.0784  0.0288  0.1050
 2190POP      C 2190   3.288   5.021   2.231  0.0429  0.0769 -0.1609
 2191POP      C 2191   5.618   3.502   1.409 -0.1432  0.1085 -0.0379
 2192POP      C 2192   6.222   2.469   5.627 -0.1023  0.0581  0.3770
 2193POP      C 2193   2.871   1.426   5.424  0.1731  0.0835  0.2441
 2194POP      C 2194   6.036   0.257   2.666 -0.1667  0.0344  0.1674
 2195POP      C 2195   0.109   5.569   5.998 -0.0875  0.1099 -0.1399
 2196POP      C 2196   1.764   2.687   3.651  0.4006  0.4292  0.2680
 2197POP      C 2197   6.111   3.317   0.226  0.2426  0.1086  0.0125
   6.64898   6.64898   6.64898
