Chloropropane box
 2197
    1PRX     CX    1   0.108   1.672   5.062 -0.0775 -0.0718  0.2232
    2PRX     CX    2   5.508   2.748   5.178  0.1388 -0.0459  0.0198
    3PRX     CX    3   1.118   2.870   0.238  0.0793 -0.0111  0.2034
    4PRX     CX    4   1.811   4.366   0.134  0.2030 -0.1994  0.0888
    5PRX     CX    5   5.568   1.112   5.804  0.1801  0.0795 -0.3430
    6PRX     CX    6   0.532   1.387   3.963  0.1988  0.0781  0.1788
    7PRX     CX    7   4.316   4.810   5.307 -0.4379 -0.2022 -0.3721
    8PRX     CX    8   0.293   5.111   2.664 -0.0617 -0.0188  0.0840
    9PRX     CX    9   1.872   3.680   2.497 -0.0561 -0.1133  0.2163
   10PRX     CX   10   0.225   4.986   1.091  0.1348  0.3135 -0.0183
   11PRX     CX   11   6.332   5.034   3.440  0.0286  0.1288  0.2256
   12PRX     CX   12   1.919   1.187   5.708 -0.0209  0.0639  0.1773
   13PRX     CX   13   1.702   4.689   3.963  0.2185 -0.1792 -0.0269
   14PRX     CX   14   4.706   2.223   0.799 -0.0806  0.0092  0.0126
   15PRX     CX   15   0.273   3.322   2.748 -0.0355  0.0553 -0.3582
   16PRX     CX   16   4.325   0.911   0.607  0.0211 -0.2272 -0.0263
   17PRX     CX   17   1.120   1.797   0.716  0.0841 -0.0438 -0.0665
   18PRX     CX   18   5.808   5.481   6.227 -0.0887 -0.0965  0.2793
   19PRX     CX   19   5.948   3.793   0.016 -0.0877  0.1301 -0.1713
   20PRX     CX   20   4.446   0.780   2.127  0.3321  0.0379 -0.0078
   21PRX     CX   21   0.723   4.330   4.118  0.1557 -0.2091 -0.1398
   22PRX     CX   22   3.171   3.221   4.135  0.1375  0.1815 -0.1333
   23PRX     CX   23   1.217   2.895   4.727  0.0460 -0.1354  0.0877
   24PRX     CX   24   2.495   4.837   3.388  0.0619  0.0367  0.1228
   25PRX     CX   25   5.720   5.990   2.905  0.0611 -0.1505 -0.1581
   26PRX     CX   26   1.514   5.345   5.593 -0.1799  0.0606 -0.0038
   27PRX     CX   27   4.929   5.377   5.182  0.4863  0.2496  0.2261
   28PRX     CX   28   4.103   4.434   2.131 -0.0176  0.1482  0.3364
   29PRX     CX   29   5.331   5.700   2.340 -0.1284 -0.0699 -0.1720
   30PRX     CX   30   4.108   3.804   1.991  0.0018  0.0975  0.1751
   31PRX     CX   31   4.555   3.060   3.530  0.0920 -0.1010 -0.2037
   32PRX     CX   32   5.984   3.969   5.113 -0.0278 -0.2391  0.2269
   33PRX     CX   33   6.497   3.637   2.564 -0.2342 -0.1614 -0.3842
   34PRX     CX   34   0.142   2.899   6.427  0.2121 -0.0484  0.0477
   35PRX     CX   35   3.567   1.920   2.377  0.3050 -0.2295 -0.1792
   36PRX     CX   36   4.382   1.474   2.630  0.4567  0.1064  0.0264
   37PRX     CX   37   4.068   4.090   1.120 -0.0450  0.1823 -0.1836
   38PRX     CX   38   1.712   5.509   5.129 -0.0777 -0.2768  0.4477
   39PRX     CX   39   1.565   0.303   1.740 -0.1563 -0.0562 -0.0608
   40PRX     CX   40   4.334   2.367   2.771 -0.0399  0.3401  0.0050
   41PRX     CX   41   6.008   4.852   1.975 -0.0328  0.1287  0.2055
   42PRX     CX   42   4.655   2.881   1.532  0.0172 -0.0525 -0.1575
   43PRX     CX   43   1.093   0.258   5.534  0.0988  0.2043 -0.1009
   44PRX     CX   44   1.354   2.020   3.684 -0.0606  0.3004  0.1835
   45PRX     CX   45   0.234   0.327   3.857  0.3361  0.0771 -0.0332
   46PRX     CX   46   1.681   4.369   0.670  0.2515  0.1743 -0.1268
   47PRX     CX   47   5.741   3.485   2.081 -0.0488  0.0120 -0.1777
   48PRX     CX   48   4.316   2.794   2.452  0.0642  0.1110  0.0756
   49PRX     CX   49   2.953   3.174   0.791  0.1931  0.1075 -0.1366
   50PRX     CX   50   4.781   6.023   0.070  0.0620  0.0784 -0.1881
   51PRX     CX   51   2.719   4.298   5.608 -0.1700 -0.0286  0.1555
   52PRX     CX   52   2.812   3.494   2.649 -0.2796 -0.1102 -0.5141
   53PRX     CX   53   0.155   2.625   2.485  0.1945  0.0182 -0.0076
   54PRX     CX   54   0.851   1.723   3.659  0.2618 -0.1776  0.3500
   55PRX     CX   55   2.442   5.752   0.410  0.2425  0.2712 -0.1785
   56PRX     CX   56   5.527   5.421   1.008  0.1133 -0.0335 -0.0587
   57PRX     CX   57   6.359   5.454   4.998 -0.0837  0.0038  0.0219
   58PRX     CX   58   3.283   0.652   5.709 -0.4035  0.0426  0.2230
   59PRX     CX   59   5.673   2.212   4.985 -0.0393 -0.1954 -0.0964
   60PRX     CX   60   0.116   5.468   5.332  0.2721  0.0269 -0.1176
   61PRX     CX   61   3.942   5.049   2.359 -0.2395  0.0097 -0.1623
   62PRX     CX   62   1.588   5.450   0.038 -0.1906  0.2107 -0.1110
   63PRX     CX   63   3.117   3.131   3.588 -0.0851 -0.1593  0.1978
   64PRX     CX   64   0.970   3.035   6.142  0.0898  0.1781  0.1229
   65PRX     CX   65   6.345   6.207   0.343  0.0201 -0.0564  0.2146
   66PRX     CX   66   5.469   5.484   5.205 -0.1043  0.2320 -0.2464
   67PRX     CX   67   0.748   5.135   4.746  0.1472  0.0585  0.2332
   68PRX     CX   68   5.848   6.037   5.608 -0.0597 -0.0607  0.1211
   69PRX     CX   69   2.009   1.720   2.619 -0.0183 -0.1126  0.3335
   70PRX     CX   70   6.015   5.264   0.681 -0.2684 -0.0087 -0.2084
   71PRX     CX   71   2.551   3.632   1.782  0.1331  0.1624 -0.0569
   72PRX     CX   72   3.142   0.082   3.668 -0.0742 -0.2200 -0.0174
   73PRX     CX   73   5.374   2.499   2.534  0.1637 -0.0084  0.1463
   74PRX     CX   74   5.991   3.048   0.140  0.1619  0.2121  0.1445
   75PRX     CX   75   5.580   5.808   6.531 -0.4741  0.0852  0.0838
   76PRX     CX   76   4.151   1.473   1.591  0.1018  0.4155 -0.2285
   77PRX     CX   77   3.733   0.015   6.596  0.1101  0.2427  0.1211
   78PRX     CX   78   5.765   3.532   5.300 -0.0351  0.1448  0.0054
   79PRX     CX   79   2.599   6.434   1.866 -0.0718 -0.2735 -0.0177
   80PRX     CX   80   4.384   2.649   4.569  0.2308  0.0816 -0.2446
   81PRX     CX   81   1.271   6.148   3.458 -0.1152 -0.5556 -0.0841
   82PRX     CX   82   1.605   3.619   3.985  0.3407  0.0162  0.0266
   83PRX     CX   83   6.431   1.764   1.655  0.2597 -0.1340 -0.1767
   84PRX     CX   84   3.763   0.581   2.719  0.1021  0.2170 -0.2470
   85PRX     CX   85   4.775   1.375   4.420  0.2906  0.0177 -0.1853
   86PRX     CX   86   5.432   0.416   0.505  0.0689 -0.0613  0.0395
   87PRX     CX   87   4.497   1.962   2.561  0.0979 -0.0678  0.0982
   88PRX     CX   88   1.418   2.751   2.401 -0.4824  0.0167 -0.0017
   89PRX     CX   89   2.993   6.091   5.053 -0.0922 -0.5614 -0.2255
   90PRX     CX   90   4.052   0.945   2.553  0.2848 -0.1525 -0.0796
   91PRX     CX   91   5.109   4.164   0.726  0.0524  0.0219 -0.0416
   92PRX     CX   92   5.649   2.383   4.337 -0.1431 -0.3740  0.0921
   93PRX     CX   93   1.316   1.880   4.591  0.2651  0.1391  0.1965
   94PRX     CX   94   0.506   4.588   5.667  0.1406 -0.3522  0.1545
   95PRX     CX   95   0.211   0.541   4.452  0.1512 -0.2651 -0.0666
   96PRX     CX   96   1.079   3.641   3.161 -0.1953 -0.3319  0.0464
   97PRX     CX   97   0.252   4.403   3.756 -0.0341 -0.1144 -0.2362
   98PRX     CX   98   3.773   5.295   3.807 -0.1727 -0.2186  0.2054
   99PRX     CX   99   6.526   3.532   5.514 -0.0250 -0.1051 -0.0512
  100PRX     CX  100   1.025   5.534   5.712 -0.2733  0.0682 -0.0122
  101PRX     CX  101   2.130   4.672   2.335  0.1908  0.0456  0.1011
  102PRX     CX  102   2.639   4.364   6.149 -0.0840  0.2492  0.0242
  103PRX     CX  103   3.763   4.497   6.590  0.0572  0.1040 -0.1101
  104PRX     CX  104   0.618   4.242   0.788  0.2909 -0.1634  0.2303
  105PRX     CX  105   6.374   5.532   4.143 -0.0250  0.0320 -0.1784
  106PRX     CX  106   5.953   1.827   5.093 -0.1398  0.2189  0.1430
  107PRX     CX  107   4.823   5.776   2.507 -0.3684 -0.0396 -0.0336
  108PRX     CX  108   3.023   1.834   5.080 -0.0587 -0.0335  0.3131
  109PRX     CX  109   3.696   5.141   5.956  0.1785 -0.2367  0.1403
  110PRX     CX  110   1.774   0.726   6.080 -0.1480 -0.0089 -0.1802
  111PRX     CX  111   3.691   5.456   1.241  0.1266  0.1689  0.1132
  112PRX     CX  112   0.358   0.980   6.453 -0.4508  0.0348  0.3079
  113PRX     CX  113   3.021   4.979   4.419  0.0245 -0.0983  0.0858
  114PRX     CX  114   4.534   5.681   5.049 -0.2275  0.0070 -0.1963
  115PRX     CX  115   2.081   3.454   4.994 -0.1227  0.0319 -0.0243
  116PRX     CX  116   1.645   4.915   1.441  0.1005  0.0496 -0.2124
  117PRX     CX  117   0.192   2.198   0.659  0.1149  0.2071 -0.0001
  118PRX     CX  118   0.344   6.099   1.126  0.0085  0.1060  0.1119
  119PRX     CX  119   5.456   3.275   0.787  0.2024  0.1292  0.0750
  120PRX     CX  120   0.471   2.276   1.583 -0.0997 -0.1064 -0.0329
  121PRX     CX  121   3.446   1.231   5.632  0.1482  0.0819 -0.1525
  122PRX     CX  122   1.204   4.730   2.323  0.2860 -0.0231  0.1879
  123PRX     CX  123   5.730   1.468   2.379 -0.4482  0.2437  0.1209
  124PRX     CX  124   1.976   4.224   1.342  0.2936 -0.0955 -0.1086
  125PRX     CX  125   4.459   3.389   5.544  0.2640  0.2907 -0.0708
  126PRX     CX  126   5.164   2.188   0.430  0.2171 -0.0015 -0.2623
  127PRX     CX  127   1.688   5.956   5.303 -0.2017  0.0777  0.1275
  128PRX     CX  128   3.468   2.725   4.533  0.0308 -0.2443 -0.1053
  129PRX     CX  129   5.305   1.799   4.193 -0.0848  0.0938 -0.5402
  130PRX     CX  130   4.103   6.278   4.338  0.2225 -0.0502 -0.0375
  131PRX     CX  131   3.079   1.487   5.418 -0.4211 -0.2987  0.0179
  132PRX     CX  132   4.040   3.010   3.576 -0.0792 -0.0599 -0.2945
  133PRX     CX  133   3.870   4.489   2.607  0.1067 -0.2660 -0.0186
  134PRX     CX  134   1.510   1.670   4.065  0.0714  0.4682  0.0813
  135PRX     CX  135   1.816   3.134   5.688 -0.2976  0.0981 -0.1462
  136PRX     CX  136   5.058   5.292   6.139 -0.2178 -0.1780 -0.0578
  137PRX     CX  137   2.627   1.460   5.085  0.1967 -0.0033  0.1985
  138PRX     CX  138   3.217   1.323   0.453  0.1494  0.1521  0.1312
  139PRX     CX  139   3.394   0.894   2.786 -0.3148 -0.1021 -0.0234
  140PRX     CX  140   2.794   0.432   1.778 -0.0487  0.0101  0.2416
  141PRX     CX  141   4.478   3.841   1.514 -0.0151  0.3948 -0.1244
  142PRX     CX  142   1.829   5.986   1.764 -0.0504 -0.2605  0.1735
  143PRX     CX  143   4.991   0.038   4.731 -0.1783  0.1231  0.0306
  144PRX     CX  144   5.262   3.041   4.074  0.0316  0.0919 -0.0677
  145PRX     CX  145   5.377   0.872   0.366 -0.2767 -0.0713  0.1145
  146PRX     CX  146   1.601   2.255   2.555  0.3034  0.1653  0.0733
  147PRX     CX  147   4.964   0.885   4.631 -0.2457 -0.3079  0.1492
  148PRX     CX  148   0.374   2.759   6.016  0.1907 -0.1456 -0.1241
  149PRX     CX  149   4.802   5.765   6.058  0.1340 -0.0306  0.0180
  150PRX     CX  150   2.591   5.921   1.694 -0.1822 -0.1405 -0.1384
  151PRX     CX  151   3.282   0.391   3.264  0.1338  0.1512 -0.0568
  152PRX     CX  152   1.638   4.608   4.509 -0.4352 -0.2766  0.0213
  153PRX     CX  153   4.838   4.427   3.606  0.0214 -0.0520 -0.0851
  154PRX     CX  154   1.107   5.564   3.560 -0.0014  0.1411 -0.1085
  155PRX     CX  155   2.937   3.880   5.551 -0.0525  0.1667 -0.2023
  156PRX     CX  156   3.433   3.423   5.259  0.0458  0.1570  0.0688
  157PRX     CX  157   0.558   4.750   6.458 -0.0100  0.0016 -0.1480
  158PRX     CX  158   2.637   3.787   0.927 -0.2037 -0.0014 -0.2826
  159PRX     CX  159   5.037   1.832   5.413  0.1991 -0.1367 -0.0596
  160PRX     CX  160   4.873   4.677   4.652 -0.0507 -0.1082 -0.0006
  161PRX     CX  161   0.434   0.214   4.728 -0.1260  0.2022  0.1553
  162PRX     CX  162   0.307   0.458   3.209 -0.2549 -0.0595 -0.0073
  163PRX     CX  163   0.522   2.106   3.368 -0.0565  0.3738 -0.1938
  164PRX     CX  164   0.990   0.911   2.348 -0.0675 -0.0955  0.0332
  165PRX     CX  165   3.115   2.291   6.075  0.2443  0.1520  0.2176
  166PRX     CX  166   4.378   5.463   2.683  0.0658  0.1903  0.0916
  167PRX     CX  167   1.705   5.293   6.050  0.2433  0.2519 -0.0355
  168PRX     CX  168   5.057   4.930   3.764 -0.2978  0.0173  0.0234
  169PRX     CX  169   0.349   1.967   2.962 -0.2011  0.2508  0.1113
  170PRX     CX  170   6.005   5.782   3.470 -0.0177  0.1349  0.0038
  171PRX     CX  171   0.874   3.841   4.004  0.0991  0.0902 -0.1094
  172PRX     CX  172   6.292   3.377   3.340 -0.0851  0.0329  0.3734
  173PRX     CX  173   2.553   0.216   4.617 -0.0632 -0.2265  0.0071
  174PRX     CX  174   6.386   5.232   5.551  0.1813  0.0043 -0.0867
  175PRX     CX  175   3.259   5.059   2.638  0.0679  0.0660 -0.2613
  176PRX     CX  176   4.572   4.089   2.551 -0.1369  0.2178 -0.1235
  177PRX     CX  177   1.023   5.666   2.374 -0.2057 -0.1131 -0.1741
  178PRX     CX  178   3.555   4.665   6.032 -0.0287  0.1478 -0.0941
  179PRX     CX  179   4.141   5.376   5.963  0.2600 -0.1428  0.2140
  180PRX     CX  180   4.961   0.955   6.548 -0.2142 -0.0451  0.0546
  181PRX     CX  181   2.771   2.313   1.507 -0.0730  0.2156  0.1117
  182PRX     CX  182   5.696   2.422   3.131  0.0609  0.2770  0.1556
  183PRX     CX  183   1.645   2.000   2.946  0.0564  0.3017 -0.0284
  184PRX     CX  184   6.093   3.015   3.590 -0.1126 -0.1554  0.0087
  185PRX     CX  185   2.484   2.276   1.957 -0.1589  0.0240 -0.0197
  186PRX     CX  186   6.551   5.974   4.281  0.0161 -0.4031  0.0786
  187PRX     CX  187   0.786   3.644   6.418 -0.0643  0.0107 -0.0586
  188PRX     CX  188   1.256   5.577   6.338  0.0475  0.0796  0.0475
  189PRX     CX  189   1.591   4.624   2.611 -0.1934 -0.1963 -0.2246
  190PRX     CX  190   5.296   4.512   3.747  0.0903  0.0122  0.1295
  191PRX     CX  191   4.284   5.534   3.775 -0.0208  0.0972 -0.2461
  192PRX     CX  192   0.912   3.900   1.750 -0.2515  0.1573 -0.0827
  193PRX     CX  193   6.245   6.262   3.009 -0.1946 -0.0016  0.2082
  194PRX     CX  194   2.386   6.476   3.138 -0.3299 -0.3783 -0.2469
  195PRX     CX  195   2.097   3.702   4.012 -0.0455  0.1933  0.4942
  196PRX     CX  196   3.942   2.102   1.043  0.1215  0.1501  0.0610
  197PRX     CX  197   1.888   6.260   1.120 -0.2677 -0.0396  0.0299
  198PRX     CX  198   4.549   2.544   5.774 -0.1298  0.1903 -0.0090
  199PRX     CX  199   0.134   0.764   5.514 -0.0369  0.3320 -0.0745
  200PRX     CX  200   4.894   2.203   6.472  0.1071  0.0988  0.0098
  201PRX     CX  201   3.719   3.457   5.747  0.1426 -0.2647  0.0447
  202PRX     CX  202   0.018   3.606   3.056 -0.1590  0.1002  0.1150
  203PRX     CX  203   5.145   1.898   6.196 -0.2111 -0.2075 -0.0320
  204PRX     CX  204   2.204   5.271   1.303  0.2200  0.0315  0.0539
  205PRX     CX  205   1.632   3.204   6.245 -0.1905 -0.2876 -0.0119
  206PRX     CX  206   4.750   2.773   3.890  0.0256  0.0637  0.0872
  207PRX     CX  207   6.554   3.302   0.565  0.0939  0.1217  0.0407
  208PRX     CX  208   6.057   4.367   1.922 -0.0410 -0.1718  0.1488
  209PRX     CX  209   3.013   4.621   2.274 -0.0189  0.0112 -0.2666
  210PRX     CX  210   4.140   0.402   4.702  0.0457  0.0739 -0.2130
  211PRX     CX  211   5.553   4.795   2.418  0.0625  0.1504 -0.1281
  212PRX     CX  212   3.360   5.622   3.566  0.0851 -0.0508 -0.2367
  213PRX     CX  213   5.038   2.128   2.578 -0.1495  0.0277 -0.3484
  214PRX     CX  214   2.964   5.027   0.690  0.2959  0.1834  0.0563
  215PRX     CX  215   2.021   3.552   6.586 -0.4622 -0.0133 -0.0489
  216PRX     CX  216   4.864   0.074   5.693 -0.1096 -0.0985 -0.1469
  217PRX     CX  217   1.702   1.781   3.411  0.2117 -0.0463 -0.2002
  218PRX     CX  218   5.834   0.837   6.201  0.0006 -0.2267  0.0094
  219PRX     CX  219   2.522   0.422   5.654  0.2873 -0.0071  0.2384
  220PRX     CX  220   4.149   4.263   5.609 -0.0683  0.0067 -0.1858
  221PRX     CX  221   6.406   1.571   5.837 -0.3953  0.3012 -0.0391
  222PRX     CX  222   4.946   3.044   3.213 -0.1926  0.0489 -0.2460
  223PRX     CX  223   5.896   0.863   0.529  0.1416 -0.2641  0.0431
  224PRX     CX  224   0.879   0.623   4.197 -0.0424  0.1190 -0.1068
  225PRX     CX  225   3.535   0.639   0.950 -0.2311 -0.1019  0.0955
  226PRX     CX  226   1.318   1.006   1.887  0.0586 -0.1123  0.1305
  227PRX     CX  227   6.130   2.505   4.096 -0.0479 -0.0468 -0.0035
  228PRX     CX  228   6.363   2.091   0.244 -0.1026 -0.0360 -0.0017
  229PRX     CX  229   4.327   2.545   5.267  0.0658  0.1555  0.1096
  230PRX     CX  230   6.180   3.121   4.460 -0.0814 -0.3793  0.1008
  231PRX     CX  231   2.512   6.183   4.860  0.1207 -0.3802 -0.1399
  232PRX     CX  232   3.018   6.592   2.141 -0.0734  0.0367 -0.1252
  233PRX     CX  233   0.466   2.804   2.916  0.1274  0.2079 -0.0624
  234PRX     CX  234   0.781   4.057   0.268 -0.2052  0.0265 -0.0383
  235PRX     CX  235   3.365   6.167   6.345  0.0649  0.2089 -0.1522
  236PRX     CX  236   3.286   0.964   6.219 -0.0173 -0.2862  0.0997
  237PRX     CX  237   0.097   0.103   4.313 -0.0554 -0.1781  0.1005
  238PRX     CX  238   2.328   3.243   0.872 -0.0488  0.1452 -0.1742
  239PRX     CX  239   5.496   6.468   1.173  0.2497 -0.1167 -0.0156
  240PRX     CX  240   0.836   4.431   4.835 -0.0673  0.0405  0.3817
  241PRX     CX  241   6.412   1.274   4.677 -0.2891  0.2921  0.1808
  242PRX     CX  242   1.340   5.506   3.111  0.3959  0.0586  0.0835
  243PRX     CX  243   0.823   4.389   2.680  0.0855 -0.0757 -0.0412
  244PRX     CX  244   6.392   1.146   5.537  0.0508 -0.2004  0.1272
  245PRX     CX  245   2.231   6.081   5.341 -0.0751 -0.2136  0.0256
  246PRX     CX  246   0.977   0.741   6.029 -0.0111  0.2704 -0.2691
  247PRX     CX  247   3.618   0.965   1.317  0.0866 -0.0892 -0.1438
  248PRX     CX  248   6.034   2.561   3.463 -0.0282  0.0891 -0.1626
  249PRX     CX  249   4.258   3.133   1.122  0.5821 -0.0382 -0.1914
  250PRX     CX  250   2.011   5.691   5.630  0.1090  0.0453  0.0263
  251PRX     CX  251   0.839   6.523   1.635  0.1355  0.0912  0.0997
  252PRX     CX  252   6.580   2.205   2.670 -0.0260 -0.0983  0.2846
  253PRX     CX  253   2.045   2.877   1.125  0.0800 -0.0234 -0.1412
  254PRX     CX  254   2.355   4.331   4.733 -0.1018  0.3808  0.3316
  255PRX     CX  255   6.045   5.014   1.198 -0.0099  0.1859 -0.2121
  256PRX     CX  256   1.172   4.809   4.736 -0.2896 -0.0883  0.1095
  257PRX     CX  257   5.296   3.316   4.554  0.0660 -0.1004  0.0906
  258PRX     CX  258   0.021   4.248   3.049  0.0986 -0.0921  0.2851
  259PRX     CX  259   1.843   2.132   5.364  0.0356 -0.1282  0.1079
  260PRX     CX  260   6.069   1.612   2.066 -0.0066 -0.0575  0.1558
  261PRX     CX  261   2.030   3.442   6.124 -0.3378 -0.1007 -0.1640
  262PRX     CX  262   4.480   1.299   4.045 -0.2370 -0.1841  0.1284
  263PRX     CX  263   0.008   1.832   4.628 -0.1756 -0.1417 -0.0617
  264PRX     CX  264   5.737   6.449   3.068 -0.1038  0.3222 -0.0330
  265PRX     CX  265   0.229   2.687   4.970  0.0404  0.0670 -0.3236
  266PRX     CX  266   3.402   4.128   1.688 -0.2789 -0.1068 -0.2454
  267PRX     CX  267   3.721   0.860   4.701  0.2110 -0.1155 -0.0536
  268PRX     CX  268   1.115   0.235   0.677 -0.1628  0.3086 -0.1445
  269PRX     CX  269   1.400   4.340   4.880 -0.0385 -0.0025 -0.0591
  270PRX     CX  270   2.537   2.121   3.761 -0.2208  0.0729  0.3710
  271PRX     CX  271   0.552   4.499   0.297 -0.2031 -0.0826 -0.2059
  272PRX     CX  272   0.016   4.793   5.849  0.0135 -0.0388 -0.0192
  273PRX     CX  273   2.201   5.250   5.170  0.1106 -0.2556  0.1296
  274PRX     CX  274   3.129   3.733   0.662 -0.2804 -0.1219 -0.3313
  275PRX     CX  275   5.394   3.245   5.092 -0.0387  0.0213 -0.0346
  276PRX     CX  276   5.584   2.023   5.960  0.2637 -0.2384  0.2649
  277PRX     CX  277   0.338   0.629   0.725  0.1602 -0.0034  0.1233
  278PRX     CX  278   1.216   4.384   4.272  0.1676 -0.0316  0.2076
  279PRX     CX  279   1.167   4.041   6.414  0.0730  0.2634  0.0876
  280PRX     CX  280   1.993   6.349   4.945  0.1128  0.0364  0.3288
  281PRX     CX  281   0.195   4.421   4.462 -0.0805  0.0708 -0.2677
  282PRX     CX  282   4.065   5.889   4.006  0.1155 -0.1824 -0.2605
  283PRX     CX  283   3.734   2.604   0.734  0.2338  0.0780 -0.3096
  284PRX     CX  284   4.569   4.623   1.919 -0.0500 -0.0071  0.0233
  285PRX     CX  285   0.891   2.462   2.098  0.1715 -0.2571  0.1891
  286PRX     CX  286   2.559   2.158   5.971 -0.0440 -0.0009  0.1888
  287PRX     CX  287   4.916   0.726   5.151  0.0795 -0.1228  0.1691
  288PRX     CX  288   1.065   4.448   3.162  0.0768  0.1319 -0.0859
  289PRX     CX  289   6.522   0.716   3.021 -0.0145  0.1888 -0.2761
  290PRX     CX  290   3.800   1.278   3.466  0.1287 -0.0305 -0.1425
  291PRX     CX  291   5.596   2.016   2.770  0.0803 -0.0103 -0.0749
  292PRX     CX  292   5.418   1.443   5.164  0.1769  0.1344 -0.3072
  293PRX     CX  293   3.144   3.310   0.206 -0.0552  0.2697  0.4679
  294PRX     CX  294   3.622   3.857   2.029  0.1716 -0.0477 -0.3087
  295PRX     CX  295   3.300   4.348   4.815  0.0578 -0.1169  0.0202
  296PRX     CX  296   2.416   1.748   4.127 -0.0108  0.2918  0.0541
  297PRX     CX  297   6.606   2.983   2.955  0.1251  0.0464  0.0028
  298PRX     CX  298   2.689   4.323   1.338 -0.5739 -0.0999  0.2339
  299PRX     CX  299   6.350   5.665   0.441 -0.1101 -0.3622  0.2457
  300PRX     CX  300   5.836   2.989   6.094 -0.0812 -0.1884  0.1018
  301PRX     CX  301   2.193   4.008   4.333  0.0161 -0.1077 -0.0315
  302PRX     CX  302   5.511   1.714   3.742 -0.1286  0.0360  0.2313
  303PRX     CX  303   0.806   5.504   3.154  0.0147 -0.1004 -0.1061
  304PRX     CX  304   1.132   4.330   1.984  0.0030  0.0211  0.0222
  305PRX     CX  305   1.838   1.536   5.323 -0.1860 -0.0105 -0.2825
  306PRX     CX  306   5.958   4.334   5.506  0.0552  0.3363  0.1435
  307PRX     CX  307   4.399   6.326   1.347  0.2002  0.2640 -0.0548
  308PRX     CX  308   4.142   4.947   6.220 -0.1784 -0.6130 -0.1187
  309PRX     CX  309   1.733   1.629   5.839 -0.2530  0.1432 -0.0465
  310PRX     CX  310   1.728   0.749   1.647 -0.0475  0.0453 -0.2863
  311PRX     CX  311   0.066   1.380   0.073 -0.0332  0.0310 -0.4070
  312PRX     CX  312   3.077   0.472   2.813  0.0384  0.2031 -0.4316
  313PRX     CX  313   1.232   5.496   1.139  0.2451 -0.0505  0.0528
  314PRX     CX  314   3.943   1.655   1.197  0.0076  0.2000 -0.1220
  315PRX     CX  315   1.507   1.176   3.181 -0.2002 -0.0114  0.0288
  316PRX     CX  316   1.923   4.604   5.241  0.0760 -0.2603  0.0141
  317PRX     CX  317   5.241   4.149   3.397  0.2061  0.2531  0.1679
  318PRX     CX  318   4.090   6.535   0.831 -0.0169  0.0143  0.0748
  319PRX     CX  319   2.394   0.752   1.330  0.0124 -0.0605  0.0688
  320PRX     CX  320   2.070   1.797   1.935  0.0826  0.0723  0.0519
  321PRX     CX  321   1.600   6.484   2.192 -0.3885  0.1521  0.5230
  322PRX     CX  322   3.183   6.298   1.320  0.2668 -0.1102  0.3623
  323PRX     CX  323   0.527   0.250   2.799 -0.0898 -0.1359 -0.1575
  324PRX     CX  324   4.355   5.256   4.846  0.1361 -0.1952 -0.1378
  325PRX     CX  325   1.575   2.714   6.388  0.0486  0.1016 -0.0995
  326PRX     CX  326   4.157   3.799   5.586 -0.2803  0.0386 -0.1355
  327PRX     CX  327   2.316   3.459   2.281 -0.0641 -0.0239  0.0696
  328PRX     CX  328   1.859   1.094   2.730 -0.1476  0.0170 -0.1341
  329PRX     CX  329   1.147   3.221   3.303 -0.0612 -0.1147  0.2204
  330PRX     CX  330   0.774   2.535   6.235  0.0071 -0.1897 -0.0380
  331PRX     CX  331   4.575   1.767   6.094  0.2300 -0.1608  0.1048
  332PRX     CX  332   4.735   6.566   0.098  0.0889  0.0983  0.1875
  333PRX     CX  333   4.165   5.163   1.140 -0.1645  0.3399 -0.1794
  334PRX     CX  334   4.518   0.363   1.000 -0.0075 -0.2084  0.0114
  335PRX     CX  335   5.006   4.574   4.160  0.3991  0.3217  0.0502
  336PRX     CX  336   4.599   1.450   1.935  0.0653  0.1394  0.0678
  337PRX     CX  337   3.778   0.445   0.322 -0.1632 -0.3502 -0.3762
  338PRX     CX  338   4.296   2.078   4.388  0.1995 -0.1174 -0.0766
  339PRX     CX  339   0.305   4.575   2.748  0.3247  0.0097 -0.0498
  340PRX     CX  340   2.820   5.746   0.895  0.0549 -0.0401 -0.1724
  341PRX     CX  341   0.059   2.371   6.319 -0.1964 -0.1715  0.0159
  342PRX     CX  342   1.578   0.352   5.767 -0.0155  0.1113  0.0773
  343PRX     CX  343   2.739   5.495   3.009 -0.0709  0.0424 -0.1641
  344PRX     CX  344   5.378   4.016   1.954 -0.3957  0.0107 -0.2247
  345PRX     CX  345   6.504   0.678   4.064  0.1518 -0.2001 -0.1632
  346PRX     CX  346   2.720   3.469   0.474 -0.0069 -0.1462  0.1880
  347PRX     CX  347   5.050   4.174   5.574  0.0765  0.2768  0.1482
  348PRX     CX  348   4.577   3.824   4.749  0.0023 -0.2312  0.3467
  349PRX     CX  349   0.800   2.663   1.562 -0.1001  0.3739  0.0424
  350PRX     CX  350   4.074   2.102   3.421 -0.0534 -0.2102 -0.0852
  351PRX     CX  351   5.134   6.422   4.187  0.0484  0.1392 -0.1324
  352PRX     CX  352   2.470   2.166   2.793 -0.1589 -0.2811  0.0919
  353PRX     CX  353   5.020   3.094   0.876 -0.1442 -0.1220  0.1625
  354PRX     CX  354   0.626   5.540   4.580  0.0864  0.1674 -0.2366
  355PRX     CX  355   1.692   1.172   4.064 -0.1456  0.0380 -0.3007
  356PRX     CX  356   1.556   6.348   6.158  0.2955 -0.1106 -0.2551
  357PRX     CX  357   5.197   0.672   3.482  0.0561  0.0180 -0.1369
  358PRX     CX  358   6.346   4.884   2.300 -0.0695  0.0101 -0.0846
  359PRX     CX  359   1.172   6.301   2.230  0.1703 -0.0301 -0.0992
  360PRX     CX  360   4.963   1.104   2.940  0.2662 -0.0868 -0.2149
  361PRX     CX  361   0.594   1.162   2.798  0.2650 -0.0942  0.2097
  362PRX     CX  362   1.898   2.242   6.290 -0.1686  0.0096  0.0995
  363PRX     CX  363   0.776   1.699   2.987  0.2215  0.1014  0.0064
  364PRX     CX  364   0.251   3.045   1.210 -0.0422 -0.0338  0.2374
  365PRX     CX  365   1.008   1.543   1.227 -0.2828 -0.0562 -0.1114
  366PRX     CX  366   4.662   5.281   5.804  0.3003  0.1013 -0.0477
  367PRX     CX  367   4.802   5.460   2.055 -0.0580  0.2264  0.1983
  368PRX     CX  368   1.768   3.724   3.090  0.2737  0.0992  0.1530
  369PRX     CX  369   5.527   1.484   1.866  0.2626 -0.1801  0.1779
  370PRX     CX  370   2.297   0.564   2.473  0.0364  0.2142  0.1491
  371PRX     CX  371   3.826   1.871   4.165  0.1998 -0.0671 -0.0744
  372PRX     CX  372   0.544   6.554   1.247 -0.2970 -0.2920 -0.1765
  373PRX     CX  373   6.003   0.095   6.178 -0.3601  0.0869  0.2472
  374PRX     CX  374   0.791   4.823   1.922 -0.0551 -0.1566 -0.0651
  375PRX     CX  375   1.116   3.617   1.154  0.1140 -0.1612  0.1946
  376PRX     CX  376   0.017   1.976   2.147 -0.1168 -0.0965  0.3578
  377PRX     CX  377   0.505   5.156   5.540  0.1676 -0.1720 -0.0554
  378PRX     CX  378   3.232   2.028   1.876  0.1177  0.0463 -0.3257
  379PRX     CX  379   3.861   6.609   5.665  0.2749 -0.1325  0.0232
  380PRX     CX  380   5.760   6.085   6.097  0.4743  0.2713  0.0700
  381PRX     CX  381   2.405   0.184   5.119 -0.2205 -0.0319  0.0031
  382PRX     CX  382   2.182   0.315   6.474 -0.1536  0.2483  0.2312
  383PRX     CX  383   1.976   1.714   3.906 -0.0013 -0.0063  0.0716
  384PRX     CX  384   1.681   2.720   5.438  0.4757  0.0533 -0.2301
  385PRX     CX  385   2.861   4.671   0.271 -0.2151 -0.4062  0.2484
  386PRX     CX  386   3.853   3.384   1.803  0.0754  0.1820 -0.1593
  387PRX     CX  387   5.960   4.595   1.456 -0.0015 -0.1165 -0.0761
  388PRX     CX  388   6.289   1.488   5.144 -0.3120 -0.0382  0.2411
  389PRX     CX  389   4.569   3.191   0.736  0.0036 -0.2387  0.0194
  390PRX     CX  390   3.225   3.804   5.030 -0.2212  0.1111 -0.3090
  391PRX     CX  391   1.579   0.775   3.625  0.1653 -0.1680  0.2107
  392PRX     CX  392   2.304   4.735   1.286 -0.1448  0.5507 -0.0510
  393PRX     CX  393   3.450   1.598   3.790 -0.1491  0.0025 -0.3290
  394PRX     CX  394   3.441   1.321   6.544 -0.2407  0.1834 -0.2992
  395PRX     CX  395   6.148   5.642   6.512 -0.1175 -0.2669 -0.1840
  396PRX     CX  396   0.512   0.605   2.228  0.1962 -0.0350  0.2391
  397PRX     CX  397   0.304   1.081   0.986  0.2042  0.0656  0.0305
  398PRX     CX  398   4.493   1.717   4.785  0.2843 -0.1403 -0.0514
  399PRX     CX  399   2.592   1.218   4.498  0.0578 -0.1307 -0.2492
  400PRX     CX  400   2.641   5.318   3.887  0.2761 -0.2137  0.4617
  401PRX     CX  401   4.465   4.114   2.063  0.2725  0.0774 -0.2493
  402PRX     CX  402   4.204   1.920   5.766 -0.0230 -0.1286  0.0548
  403PRX     CX  403   3.266   2.328   1.377  0.0530 -0.4853  0.2323
  404PRX     CX  404   6.070   2.623   4.582  0.1644  0.1180  0.0389
  405PRX     CX  405   0.328   3.183   3.249  0.1198  0.2620  0.0736
  406PRX     CX  406   1.786   5.393   3.842 -0.2019 -0.0777  0.1908
  407PRX     CX  407   0.762   1.311   3.360 -0.0076  0.1985 -0.1285
  408PRX     CX  408   5.910   4.815   0.289  0.1174  0.1068  0.1288
  409PRX     CX  409   2.665   1.421   1.404  0.0116 -0.0104  0.1553
  410PRX     CX  410   3.789   5.960   3.499  0.1364  0.0988  0.2884
  411PRX     CX  411   2.129   5.613   1.699  0.0176 -0.1749  0.0227
  412PRX     CX  412   5.003   4.375   0.308  0.2436  0.1330 -0.2201
  413PRX     CX  413   5.400   3.738   4.881  0.2027  0.2963  0.2097
  414PRX     CX  414   6.408   2.787   0.297 -0.3660  0.2562 -0.0984
  415PRX     CX  415   4.396   5.834   6.536 -0.4163 -0.1619 -0.1784
  416PRX     CX  416   1.271   4.920   4.272  0.0257 -0.1341  0.0128
  417PRX     CX  417   4.596   6.318   3.389 -0.1655 -0.1892 -0.1608
  418PRX     CX  418   5.090   1.982   1.663 -0.2841  0.1922 -0.0046
  419PRX     CX  419   4.907   4.298   6.231 -0.2029  0.1271 -0.4992
  420PRX     CX  420   1.080   2.670   0.797  0.0587  0.0284 -0.1056
  421PRX     CX  421   2.744   4.765   3.949  0.1134 -0.0552  0.1068
  422PRX     CX  422   1.326   3.741   2.654 -0.2239  0.0131  0.0478
  423PRX     CX  423   3.053   1.011   5.326  0.1028  0.1496 -0.1088
  424PRX     CX  424   3.002   1.235   2.824  0.1683  0.3739 -0.2560
  425PRX     CX  425   1.368   1.412   3.677 -0.2922 -0.0599 -0.1460
  426PRX     CX  426   1.078   2.012   4.111 -0.0106  0.1827  0.1362
  427PRX     CX  427   1.578   4.051   1.012 -0.2482 -0.1163  0.3311
  428PRX     CX  428   5.972   5.290   1.680 -0.0505  0.1507  0.1270
  429PRX     CX  429   4.533   6.087   0.901 -0.2108  0.0518 -0.2694
  430PRX     CX  430   0.998   5.910   0.899 -0.2676 -0.2436 -0.1477
  431PRX     CX  431   0.855   3.773   5.484  0.0051  0.1078 -0.0494
  432PRX     CX  432   1.822   0.404   2.184 -0.2479  0.3819  0.0623
  433PRX     CX  433   2.685   1.940   3.239 -0.0990  0.3584 -0.0625
  434PRX     CX  434   1.735   5.482   0.729  0.1038  0.3544  0.0282
  435PRX     CX  435   2.334   2.504   1.366  0.0430 -0.1271  0.1097
  436PRX     CX  436   3.202   3.800   4.236  0.3169  0.0438  0.1058
  437PRX     CX  437   6.218   2.084   6.026 -0.1011 -0.0386 -0.0092
  438PRX     CX  438   4.592   2.592   0.096  0.0217 -0.0198  0.1137
  439PRX     CX  439   3.061   0.952   4.749 -0.0011 -0.1266  0.0320
  440PRX     CX  440   0.925   2.639   2.584 -0.4029 -0.2060  0.1167
  441PRX     CX  441   0.248   6.365   4.721  0.0712 -0.2686 -0.1303
  442PRX     CX  442   6.330   0.551   5.203 -0.0707 -0.1613 -0.2181
  443PRX     CX  443   6.557   2.482   1.124 -0.2328 -0.0018  0.0626
  444PRX     CX  444   0.702   6.354   6.187 -0.5284 -0.1536 -0.0523
  445PRX     CX  445   5.170   3.538   4.097 -0.1474 -0.1001 -0.0386
  446PRX     CX  446   1.566   5.000   5.062  0.0995  0.1600 -0.0602
  447PRX     CX  447   1.283   4.034   3.930 -0.1241  0.1477 -0.0441
  448PRX     CX  448   0.370   3.325   0.749  0.0036  0.3138  0.0358
  449PRX     CX  449   3.305   0.920   3.253 -0.0628 -0.0756  0.0016
  450PRX     CX  450   4.887   1.998   1.182 -0.0351  0.1615  0.1589
  451PRX     CX  451   0.888   1.028   6.500 -0.1913 -0.0574 -0.0010
  452PRX     CX  452   3.385   3.645   1.653 -0.0036 -0.0234 -0.0366
  453PRX     CX  453   4.030   6.104   1.134 -0.0560  0.2467 -0.0738
  454PRX     CX  454   1.974   6.219   2.372 -0.0732  0.1246 -0.0726
  455PRX     CX  455   4.811   1.101   2.252 -0.3435 -0.1560  0.1414
  456PRX     CX  456   4.761   1.908   4.375  0.0004 -0.2531  0.0444
  457PRX     CX  457   0.222   4.966   0.401 -0.2124  0.0543 -0.0719
  458PRX     CX  458   6.144   4.951   5.149 -0.0934  0.1273  0.3229
  459PRX     CX  459   0.168   0.417   5.839 -0.2241 -0.3298 -0.0528
  460PRX     CX  460   2.384   5.193   5.927  0.0858  0.1498  0.1462
  461PRX     CX  461   5.846   1.408   4.790 -0.3730 -0.0821 -0.0649
  462PRX     CX  462   6.541   6.461   2.366 -0.3993 -0.2593  0.4856
  463PRX     CX  463   2.041   2.688   0.179  0.0333 -0.2141 -0.0958
  464PRX     CX  464   2.284   2.740   2.863 -0.0049 -0.0023  0.0655
  465PRX     CX  465   4.235   1.792   2.066  0.3724  0.4561 -0.0428
  466PRX     CX  466   3.969   3.417   2.387 -0.1265 -0.2424  0.1976
  467PRX     CX  467   6.336   1.404   2.441 -0.3261 -0.1202  0.0352
  468PRX     CX  468   0.527   2.135   6.350 -0.0219 -0.3430 -0.3466
  469PRX     CX  469   3.761   1.604   2.849 -0.0387  0.0697  0.0935
  470PRX     CX  470   2.163   3.929   2.894 -0.2267 -0.2115 -0.1835
  471PRX     CX  471   0.569   0.202   0.809 -0.0089 -0.1141  0.1199
  472PRX     CX  472   3.154   4.450   4.217 -0.0472 -0.0901 -0.1631
  473PRX     CX  473   6.285   4.617   6.538  0.0451  0.0451 -0.2257
  474PRX     CX  474   0.879   3.402   1.658 -0.0639 -0.0043 -0.0788
  475PRX     CX  475   6.439   0.921   3.462 -0.0591  0.1377 -0.0494
  476PRX     CX  476   2.783   4.363   0.737 -0.0928  0.0143  0.1247
  477PRX     CX  477   3.056   1.019   2.301 -0.1173 -0.1058  0.0542
  478PRX     CX  478   3.691   6.021   4.548 -0.1891 -0.1059  0.2694
  479PRX     CX  479   2.735   0.692   0.929 -0.1779  0.2058 -0.1932
  480PRX     CX  480   4.015   0.034   3.988 -0.1995 -0.0142  0.1190
  481PRX     CX  481   0.670   0.731   5.641 -0.1976  0.0045 -0.0556
  482PRX     CX  482   4.633   0.561   5.604  0.0803 -0.2749 -0.0758
  483PRX     CX  483   3.939   5.627   2.478 -0.0692  0.1827 -0.1798
  484PRX     CX  484   2.019   2.075   2.336  0.1038 -0.2225  0.1325
  485PRX     CX  485   1.269   2.919   1.382 -0.0413  0.2820  0.0575
  486PRX     CX  486   0.184   4.460   6.611 -0.1703  0.0981  0.0136
  487PRX     CX  487   1.516   3.333   1.118  0.1061 -0.0056  0.1415
  488PRX     CX  488   5.202   6.226   0.066 -0.0307 -0.0521 -0.0813
  489PRX     CX  489   4.439   1.344   1.041  0.2811  0.0941  0.1323
  490PRX     CX  490   1.352   4.907   6.063 -0.0459 -0.5284 -0.0079
  491PRX     CX  491   3.003   4.618   6.426  0.0053 -0.0140 -0.0809
  492PRX     CX  492   5.217   5.788   0.489 -0.0505  0.0345  0.3880
  493PRX     CX  493   0.642   4.651   3.518 -0.0226 -0.0295 -0.1030
  494PRX     CX  494   0.685   3.490   3.648 -0.1517 -0.0002  0.1509
  495PRX     CX  495   6.187   3.848   0.507  0.1356 -0.0087 -0.2339
  496PRX     CX  496   1.755   1.690   4.496  0.0843  0.0399 -0.2168
  497PRX     CX  497   5.646   3.316   2.595  0.0078 -0.2438 -0.0786
  498PRX     CX  498   2.419   3.915   1.386  0.4159 -0.1721  0.2082
  499PRX     CX  499   5.564   1.026   4.352 -0.0588  0.0549 -0.0907
  500PRX     CX  500   0.038   5.554   4.608  0.0382  0.0605 -0.2865
  501PRX     CX  501   5.196   2.385   5.528 -0.2150  0.1254  0.1765
  502PRX     CX  502   4.726   5.846   3.066  0.1780 -0.1047 -0.3578
  503PRX     CX  503   2.769   0.240   3.099  0.0924 -0.1460 -0.0896
  504PRX     CX  504   2.048   1.405   4.879 -0.1311 -0.0404 -0.3557
  505PRX     CX  505   0.082   1.399   6.143  0.1438 -0.0354  0.0437
  506PRX     CX  506   5.655   0.836   4.829 -0.1381 -0.0634 -0.0263
  507PRX     CX  507   3.666   2.485   6.456 -0.1094  0.1230 -0.1519
  508PRX     CX  508   5.176   0.250   1.086  0.0911  0.1409 -0.1852
  509PRX     CX  509   5.772   1.296   3.408 -0.3903 -0.4283  0.0336
  510PRX     CX  510   0.566   5.961   2.716 -0.2263  0.1281  0.0838
  511PRX     CX  511   3.861   4.284   3.481  0.1174 -0.2316  0.1983
  512PRX     CX  512   0.760   2.272   4.646 -0.1413 -0.0241 -0.0429
  513PRX     CX  513   0.011   1.722   2.661 -0.1561 -0.1269 -0.1768
  514PRX     CX  514   5.692   1.525   4.235 -0.0487  0.0661 -0.1444
  515PRX     CX  515   1.961   5.555   3.250 -0.1356  0.0777 -0.0025
  516PRX     CX  516   4.668   0.066   5.182  0.1369  0.0905 -0.0243
  517PRX     CX  517   4.921   1.725   0.047  0.0907  0.0762 -0.3301
  518PRX     CX  518   6.429   4.324   5.727  0.1136  0.0216  0.0893
  519PRX     CX  519   0.193   1.363   5.443  0.0077 -0.1606 -0.1916
  520PRX     CX  520   4.078   6.124   5.831  0.1848 -0.3534 -0.3930
  521PRX     CX  521   3.603   6.455   3.543  0.0821  0.2609  0.2435
  522PRX     CX  522   3.496   5.093   3.452 -0.0088 -0.0380 -0.2177
  523PRX     CX  523   2.059   4.840   6.032 -0.0576  0.2878 -0.2686
  524PRX     CX  524   5.726   3.445   0.279  0.1135 -0.2703 -0.0788
  525PRX     CX  525   6.129   3.805   1.041 -0.3836  0.0894 -0.1640
  526PRX     CX  526   3.176   6.343   5.594 -0.1230  0.0410  0.0876
  527PRX     CX  527   3.501   2.834   2.493 -0.3226 -0.1361 -0.0126
  528PRX     CX  528   0.782   3.234   4.052 -0.0205 -0.0317  0.2067
  529PRX     CX  529   5.066   5.917   4.227 -0.0334 -0.3915  0.0167
  530PRX     CX  530   2.778   2.858   3.922 -0.0428 -0.0618 -0.3805
  531PRX     CX  531   2.767   4.961   3.012 -0.1364 -0.1793 -0.3142
  532PRX     CX  532   3.566   4.827   2.981  0.2475 -0.0387 -0.0891
  533PRX     CX  533   2.027   5.754   1.098 -0.2066  0.2912  0.4448
  534PRX     CX  534   6.116   3.885   5.566 -0.0742  0.1485 -0.0339
  535PRX     CX  535   2.354   5.809   3.848  0.0967 -0.1636 -0.0481
  536PRX     CX  536   2.390   3.960   2.156 -0.0610 -0.0490  0.1250
  537PRX     CX  537   1.582   3.733   6.523 -0.0728  0.0187 -0.3239
  538PRX     CX  538   3.525   3.898   1.112  0.0234  0.0406  0.0938
  539PRX     CX  539   5.546   0.042   4.783 -0.0931 -0.3821  0.1316
  540PRX     CX  540   5.285   1.620   2.651  0.0484  0.2324  0.0477
  541PRX     CX  541   5.970   4.750   3.548 -0.2617  0.0088  0.0345
  542PRX     CX  542   0.097   1.926   6.588 -0.0301 -0.1381 -0.0217
  543PRX     CX  543   4.755   4.806   1.211  0.0082  0.2207 -0.2108
  544PRX     CX  544   0.442   6.397   2.554 -0.1116 -0.1984  0.1632
  545PRX     CX  545   3.312   5.699   0.080 -0.0270 -0.2123  0.2245
  546PRX     CX  546   0.815   5.832   0.418  0.1496  0.3096  0.3209
  547PRX     CX  547   5.506   3.833   3.807 -0.1774 -0.1645  0.0262
  548PRX     CX  548   0.704   0.535   1.752  0.3074 -0.3555 -0.1259
  549PRX     CX  549   1.890   2.701   3.940 -0.0813  0.1743  0.1465
  550PRX     CX  550   2.150   2.771   0.620 -0.0798 -0.3902 -0.1955
  551PRX     CX  551   2.961   2.691   4.339  0.0100  0.0910  0.3392
  552PRX     CX  552   1.347   1.137   6.282 -0.1708  0.1944 -0.1700
  553PRX     CX  553   4.917   2.446   3.474  0.1438  0.1682 -0.1408
  554PRX     CX  554   2.117   4.433   3.353 -0.0362  0.1539  0.2707
  555PRX     CX  555   0.061   3.724   4.937  0.0320  0.1173 -0.2135
  556PRX     CX  556   0.062   5.983   5.658 -0.3243 -0.3122  0.1172
  557PRX     CX  557   1.466   0.833   2.614 -0.2221 -0.2882 -0.0667
  558PRX     CX  558   5.834   0.634   2.106 -0.2191  0.2261  0.1312
  559PRX     CX  559   0.886   4.474   1.623  0.3025  0.1653 -0.2575
  560PRX     CX  560   2.703   0.194   4.136  0.0657  0.2601  0.0432
  561PRX     CX  561   3.853   1.121   0.926 -0.4660  0.0585 -0.1782
  562PRX     CX  562   5.918   1.324   0.604 -0.1921  0.2402  0.1770
  563PRX     CX  563   4.676   5.153   2.976  0.2819 -0.0381 -0.1995
  564PRX     CX  564   1.389   0.670   1.266 -0.1207  0.3008 -0.2608
  565PRX     CX  565   1.481   6.124   1.367 -0.0880 -0.0658  0.0002
  566PRX     CX  566   1.839   1.260   6.193 -0.1671  0.1968  0.0381
  567PRX     CX  567   4.649   0.960   1.627 -0.0074 -0.0175 -0.4400
  568PRX     CX  568   5.839   4.351   3.895  0.0830 -0.4083  0.1215
  569PRX     CX  569   2.450   5.972   6.494  0.2155  0.1444 -0.4473
  570PRX     CX  570   2.789   3.257   6.349 -0.0019  0.1618  0.1731
  571PRX     CX  571   3.242   2.685   0.575  0.0728 -0.1355  0.0880
  572PRX     CX  572   5.706   1.203   3.858 -0.2704  0.1706 -0.0986
  573PRX     CX  573   0.923   4.649   6.157  0.1477 -0.4172 -0.0558
  574PRX     CX  574   3.295   1.440   4.823  0.1608 -0.1854 -0.3096
  575PRX     CX  575   5.508   0.826   0.913 -0.3341 -0.1364 -0.0917
  576PRX     CX  576   5.862   5.945   0.301 -0.1238 -0.0316  0.0679
  577PRX     CX  577   6.542   2.559   4.535 -0.3377 -0.0173 -0.1594
  578PRX     CX  578   1.565   5.927   0.883 -0.1170 -0.1656 -0.3117
  579PRX     CX  579   1.524   4.846   5.535 -0.2565 -0.1991 -0.0477
  580PRX     CX  580   4.966   1.621   3.040  0.1264  0.0707  0.2836
  581PRX     CX  581   5.719   4.681   5.918 -0.0448 -0.0629  0.3229
  582PRX     CX  582   3.830   5.459   3.343  0.1466 -0.0029  0.0271
  583PRX     CX  583   2.839   0.485   3.588  0.1552 -0.0622 -0.0652
  584PRX     CX  584   2.079   5.580   4.264  0.1089  0.0383 -0.0514
  585PRX     CX  585   2.032   3.234   3.051  0.0686  0.1435 -0.3146
  586PRX     CX  586   5.790   0.091   2.229  0.0077  0.2804  0.2340
  587PRX     CX  587   2.465   4.914   4.363  0.0840 -0.1811 -0.1385
  588PRX     CX  588   2.007   5.689   6.556 -0.1835 -0.1788  0.1802
  589PRX     CX  589   3.809   6.343   3.155  0.0558  0.0082  0.3127
  590PRX     CX  590   3.469   3.925   2.512 -0.0530  0.0118 -0.0057
  591PRX     CX  591   1.141   1.141   0.386 -0.6038 -0.1852  0.0823
  592PRX     CX  592   2.384   5.844   2.528 -0.1452  0.2166 -0.0980
  593PRX     CX  593   1.940   0.384   1.348  0.0820 -0.2062 -0.1256
  594PRX     CX  594   2.999   5.252   4.838 -0.1928  0.4233  0.1442
  595PRX     CX  595   4.287   2.744   6.241 -0.2053  0.2493 -0.1163
  596PRX     CX  596   0.339   5.573   3.500 -0.0725 -0.1443  0.1594
  597PRX     CX  597   2.774   0.856   3.108 -0.2041  0.0496 -0.1860
  598PRX     CX  598   0.772   5.212   4.219 -0.0880  0.3012 -0.1314
  599PRX     CX  599   2.685   0.323   0.135  0.1009 -0.0021  0.0792
  600PRX     CX  600   4.405   4.741   4.741  0.0135 -0.1436  0.2037
  601PRX     CX  601   4.182   4.061   0.047  0.1182 -0.1800  0.0229
  602PRX     CX  602   0.223   2.156   4.245  0.3252 -0.0061  0.1431
  603PRX     CX  603   5.553   0.293   1.889  0.0779  0.1777 -0.3682
  604PRX     CX  604   3.937   6.334   1.579 -0.0662 -0.0081 -0.1355
  605PRX     CX  605   0.928   1.054   3.853 -0.1840  0.2977  0.0255
  606PRX     CX  606   2.010   3.172   2.530  0.3237 -0.0575 -0.0323
  607PRX     CX  607   6.454   3.411   2.097  0.2152  0.1628  0.0091
  608PRX     CX  608   0.134   3.162   5.209 -0.0595 -0.2036 -0.0083
  609PRX     CX  609   0.818   2.626   4.955 -0.0610  0.0035  0.0223
  610PRX     CX  610   6.202   0.514   6.428 -0.1358  0.1330 -0.3644
  611PRX     CX  611   5.490   3.429   6.045 -0.3199  0.2897 -0.2191
  612PRX     CX  612   5.552   5.707   4.622 -0.1989 -0.1665 -0.0330
  613PRX     CX  613   3.075   5.618   5.321  0.0356 -0.1853  0.1590
  614PRX     CX  614   2.444   1.705   2.299  0.2314  0.1389 -0.0445
  615PRX     CX  615   1.095   2.070   3.257  0.0132 -0.0572 -0.0496
  616PRX     CX  616   2.528   3.024   3.520 -0.1323 -0.2903  0.0401
  617PRX     CX  617   2.189   6.178   1.503  0.2069  0.0273 -0.0315
  618PRX     CX  618   2.217   2.226   4.192  0.0482  0.1102  0.2388
  619PRX     CX  619   5.861   4.823   3.064 -0.0177 -0.2874  0.0995
  620PRX     CX  620   5.989   1.688   1.475  0.1061 -0.2863  0.1875
  621PRX     CX  621   2.563   1.834   0.363  0.1126 -0.1100  0.1020
  622PRX     CX  622   0.261   3.084   0.267  0.2031 -0.0290 -0.0522
  623PRX     CX  623   1.194   0.126   3.411 -0.0701  0.0744  0.0581
  624PRX     CX  624   5.176   5.276   1.373  0.1446 -0.0101 -0.1373
  625PRX     CX  625   3.110   0.020   2.684  0.1143  0.2802 -0.2951
  626PRX     CX  626   1.072   5.830   5.343 -0.2523  0.1983  0.0727
  627PRX     CX  627   0.819   4.093   5.990  0.3316 -0.2035  0.0881
  628PRX     CX  628   5.343   0.107   5.900 -0.2566 -0.0321 -0.1034
  629PRX     CX  629   6.458   6.373   1.304  0.1260  0.2982 -0.1147
  630PRX     CX  630   4.268   1.907   3.009  0.0589  0.2237  0.0211
  631PRX     CX  631   6.355   0.397   1.374  0.1331 -0.0323 -0.0881
  632PRX     CX  632   1.054   1.540   6.362  0.0528  0.1529 -0.1490
  633PRX     CX  633   3.528   3.414   0.527 -0.1789  0.0403  0.0233
  634PRX     CX  634   0.707   4.813   0.730  0.0985 -0.0465 -0.1940
  635PRX     CX  635   3.397   3.765   3.758 -0.0362 -0.2484  0.0440
  636PRX     CX  636   5.439   2.221   0.060 -0.2097  0.1898 -0.3565
  637PRX     CX  637   3.310   0.423   4.209 -0.1430  0.2784 -0.0284
  638PRX     CX  638   3.503   3.557   4.695  0.0442  0.0846  0.0500
  639PRX     CX  639   4.339   5.699   1.965  0.1172 -0.2092  0.0935
  640PRX     CX  640   3.271   4.512   2.694 -0.0403 -0.1888 -0.0691
  641PRX     CX  641   1.201   0.770   4.731  0.0204 -0.3412  0.4053
  642PRX     CX  642   4.243   3.950   3.401  0.1831 -0.1717 -0.1802
  643PRX     CX  643   5.165   2.210   4.528  0.1361  0.0663 -0.0640
  644PRX     CX  644   1.629   5.613   1.474  0.0678  0.1071  0.0351
  645PRX     CX  645   3.542   2.086   5.774  0.0720  0.2521  0.0114
  646PRX     CX  646   2.634   0.773   5.288  0.0946 -0.1534  0.0196
  647PRX     CX  647   3.971   0.070   2.703  0.1419  0.0446 -0.0715
  648PRX     CX  648   4.511   1.629   3.321  0.2163 -0.2724  0.1387
  649PRX     CX  649   5.957   3.040   2.370 -0.4055 -0.1721 -0.0138
  650PRX     CX  650   4.869   6.319   0.492 -0.2205  0.1967  0.2108
  651PRX     CX  651   4.519   2.828   3.019  0.2226  0.0223  0.2798
  652PRX     CX  652   1.275   5.914   3.935  0.0995  0.1653 -0.4824
  653PRX     CX  653   6.211   0.930   2.494  0.1890 -0.0240  0.0658
  654PRX     CX  654   1.344   6.322   2.705 -0.0195  0.0731  0.0392
  655PRX     CX  655   1.269   2.431   2.934 -0.0163 -0.1422 -0.0082
  656PRX     CX  656   5.153   4.709   3.235  0.0308  0.1036 -0.0364
  657PRX     CX  657   1.484   3.237   2.339  0.0670 -0.1737 -0.0849
  658PRX     CX  658   4.198   0.021   4.980  0.4552 -0.0474 -0.1192
  659PRX     CX  659   6.407   6.363   4.583  0.0062 -0.3896 -0.2635
  660PRX     CX  660   3.020   3.465   5.875  0.3120  0.0851  0.2669
  661PRX     CX  661   4.991   2.616   5.171 -0.0205 -0.1249  0.0862
  662PRX     CX  662   5.672   0.624   0.029  0.2712 -0.2917  0.1333
  663PRX     CX  663   0.618   2.861   5.334  0.1454 -0.2197  0.1433
  664PRX     CX  664   3.948   6.288   5.280  0.0686  0.0580  0.4119
  665PRX     CX  665   0.964   3.619   5.963 -0.2599 -0.2512 -0.1553
  666PRX     CX  666   3.126   3.188   4.731 -0.2181  0.0699  0.0438
  667PRX     CX  667   1.597   3.752   1.428  0.1456  0.1274  0.1598
  668PRX     CX  668   1.367   4.046   5.823 -0.0152 -0.1463 -0.0613
  669PRX     CX  669   2.344   6.024   5.813  0.0513  0.1122 -0.1001
  670PRX     CX  670   4.648   4.301   0.885  0.0256 -0.0850 -0.2355
  671PRX     CX  671   2.869   1.006   5.907  0.0989  0.1694 -0.0895
  672PRX     CX  672   2.673   0.263   2.591 -0.1462 -0.0608 -0.3328
  673PRX     CX  673   4.263   1.331   4.476  0.1831  0.1053  0.0218
  674PRX     CX  674   3.167   1.738   3.089 -0.0182  0.0637 -0.1926
  675PRX     CX  675   3.226   5.540   1.056 -0.2386  0.1923 -0.2036
  676PRX     CX  676   4.355   0.377   4.053 -0.1663 -0.0244  0.0083
  677PRX     CX  677   4.266   0.544   5.202 -0.2498 -0.0215  0.2457
  678PRX     CX  678   3.912   4.404   0.771 -0.4359  0.1484  0.2331
  679PRX     CX  679   2.209   4.762   3.863  0.0282 -0.2200 -0.2550
  680PRX     CX  680   1.272   6.393   0.863 -0.0601  0.1377 -0.0306
  681PRX     CX  681   0.387   4.198   1.660 -0.0715  0.0761  0.1543
  682PRX     CX  682   3.256   5.505   6.156  0.0317 -0.0556  0.2922
  683PRX     CX  683   3.457   1.768   6.316  0.0671  0.1074  0.0620
  684PRX     CX  684   3.843   0.190   6.145  0.0964  0.1112  0.2636
  685PRX     CX  685   3.419   3.606   6.144  0.1706 -0.1412 -0.1432
  686PRX     CX  686   1.393   1.034   0.869  0.0645  0.0242 -0.1804
  687PRX     CX  687   1.704   4.132   3.735 -0.1951 -0.2328  0.0532
  688PRX     CX  688   5.591   5.032   0.663  0.0237 -0.2287  0.1224
  689PRX     CX  689   4.259   4.563   6.509 -0.2907 -0.2320  0.1053
  690PRX     CX  690   6.461   3.934   6.614 -0.1686 -0.0743 -0.0796
  691PRX     CX  691   0.446   2.310   1.070 -0.2070  0.3149  0.1391
  692PRX     CX  692   0.548   0.970   4.384  0.0360 -0.0599  0.2807
  693PRX     CX  693   2.068   1.832   0.476  0.0059  0.1347 -0.3902
  694PRX     CX  694   1.638   3.327   2.806  0.0600 -0.2898 -0.1395
  695PRX     CX  695   1.483   1.453   4.940  0.1996 -0.0829 -0.2263
  696PRX     CX  696   5.801   2.911   4.241 -0.2297 -0.2395 -0.1369
  697PRX     CX  697   5.147   2.462   3.977  0.0028 -0.4522  0.0383
  698PRX     CX  698   0.040   3.489   6.300 -0.0525 -0.0330  0.0883
  699PRX     CX  699   2.463   2.530   4.479 -0.1382 -0.0973  0.1310
  700PRX     CX  700   5.427   4.498   0.491 -0.0910  0.2221  0.1425
  701PRX     CX  701   3.339   5.081   1.826 -0.2903  0.2163  0.2471
  702PRX     CX  702   0.537   4.168   5.141 -0.0130 -0.2478 -0.0129
  703PRX     CX  703   2.078   4.829   4.727 -0.1034  0.0305 -0.0097
  704PRX     CX  704   6.579   6.388   0.726  0.3923  0.2722 -0.1586
  705PRX     CX  705   6.348   2.509   2.105 -0.0278 -0.0219  0.2761
  706PRX     CX  706   3.767   1.762   0.700 -0.1582  0.3973  0.1309
  707PRX     CX  707   5.908   1.318   6.339 -0.1765 -0.0227  0.0804
  708PRX     CX  708   5.748   4.119   2.355 -0.1681 -0.1531 -0.2824
  709PRX     CX  709   2.627   2.700   0.932 -0.1998  0.0882  0.1999
  710PRX     CX  710   0.820   4.023   2.305 -0.2476  0.1387  0.1066
  711PRX     CX  711   4.797   4.165   3.149 -0.0319 -0.1078 -0.3799
  712PRX     CX  712   4.792   5.565   0.603 -0.1201 -0.3142 -0.2296
  713PRX     CX  713   4.919   6.170   5.742  0.1303  0.2461  0.2528
  714PRX     CX  714   4.971   4.534   2.554 -0.0004 -0.0075 -0.3392
  715PRX     CX  715   1.805   3.160   4.750 -0.0789  0.1239 -0.3889
  716PRX     CX  716   1.546   5.133   3.435  0.0502 -0.3801 -0.1016
  717PRX     CX  717   6.494   4.018   5.262  0.0535  0.3997 -0.0677
  718PRX     CX  718   3.900   6.415   2.088 -0.1172 -0.3494 -0.1709
  719PRX     CX  719   3.109   6.117   3.615  0.0123 -0.2241 -0.0188
  720PRX     CX  720   0.083   1.779   3.734  0.0952  0.0858  0.1742
  721PRX     CX  721   5.654   1.775   0.863  0.1316 -0.0978 -0.0086
  722PRX     CX  722   6.426   5.666   1.761  0.0653  0.0206 -0.0932
  723PRX     CX  723   5.911   0.584   1.603  0.0546  0.2135 -0.3392
  724PRX     CX  724   5.469   0.387   3.186 -0.1027  0.0173 -0.2113
  725PRX     CX  725   2.174   5.152   2.164 -0.1483  0.0900  0.2891
  726PRX     CX  726   4.688   5.054   2.503  0.0204 -0.1033 -0.0570
  727PRX     CX  727   5.031   3.523   6.271  0.2450  0.0006  0.4069
  728PRX     CX  728   3.892   5.359   1.816 -0.1512 -0.1717  0.0631
  729PRX     CX  729   1.057   4.163   5.282 -0.0154 -0.0824 -0.2791
  730PRX     CX  730   6.369   0.749   5.916  0.1335  0.3417  0.0546
  731PRX     CX  731   3.578   1.927   1.443  0.1014  0.1942  0.1185
  732PRX     CX  732   3.593   2.828   0.267  0.2953 -0.0720 -0.1173
  733PRX     CX  733   3.841   1.619   5.678 -0.0065 -0.1810 -0.0744
  734PRX     CX  734   6.138   3.224   2.745 -0.1882 -0.1136  0.2760
  735PRX     CX  735   3.265   4.311   0.186 -0.2284  0.0887 -0.0599
  736PRX     CX  736   3.466   4.822   2.262  0.1727  0.1709 -0.2360
  737PRX     CX  737   1.205   2.406   6.470  0.0861 -0.1169  0.0968
  738PRX     CX  738   5.677   2.174   0.511 -0.0720 -0.2352  0.0133
  739PRX     CX  739   3.252   4.189   5.347 -0.0484 -0.5015 -0.0294
  740PRX     CX  740   4.468   5.372   6.270  0.0698  0.2347 -0.1165
  741PRX     CX  741   6.486   5.171   1.467 -0.1999  0.0104 -0.2271
  742PRX     CX  742   2.498   4.883   6.322 -0.1185 -0.0321 -0.0055
  743PRX     CX  743   6.244   6.463   3.506 -0.0497 -0.2037 -0.0777
  744PRX     CX  744   1.604   1.112   4.602  0.4251 -0.2077 -0.2760
  745PRX     CX  745   3.422   4.208   6.213 -0.1062  0.2025 -0.1851
  746PRX     CX  746   3.550   0.187   2.915 -0.0901 -0.0037  0.0576
  747PRX     CX  747   4.224   4.660   0.354  0.2237 -0.3917 -0.1722
  748PRX     CX  748   6.009   3.859   4.119  0.0450  0.0884 -0.2803
  749PRX     CX  749   0.896   0.419   2.454 -0.0018 -0.3183  0.0549
  750PRX     CX  750   6.407   6.557   5.833 -0.2707 -0.0443  0.0050
  751PRX     CX  751   3.444   4.186   0.714 -0.3490 -0.0341  0.0658
  752PRX     CX  752   2.244   0.062   2.675 -0.0308  0.0647  0.1105
  753PRX     CX  753   4.082   3.530   3.674 -0.4711  0.2341  0.0231
  754PRX     CX  754   0.790   0.679   0.946 -0.2666 -0.1802  0.0057
  755PRX     CX  755   0.057   0.185   0.569  0.0144 -0.3634 -0.0117
  756PRX     CX  756   1.041   4.035   0.696  0.1276 -0.0339 -0.0664
  757PRX     CX  757   5.457   4.479   2.865  0.0235  0.2282 -0.2059
  758PRX     CX  758   3.743   1.437   0.261  0.3128  0.2588  0.1422
  759PRX     CX  759   1.774   5.246   4.649 -0.0395 -0.0599 -0.1003
  760PRX     CX  760   1.306   0.221   2.905  0.0579  0.1326  0.0034
  761PRX     CX  761   1.450   4.145   3.335  0.0637  0.0645  0.2482
  762PRX     CX  762   0.639   1.737   4.517  0.0367  0.1581  0.0216
  763PRX     CX  763   2.002   5.063   5.599  0.1264  0.2110 -0.0025
  764PRX     CX  764   4.823   5.446   0.127 -0.0665 -0.1293 -0.0146
  765PRX     CX  765   2.675   2.217   6.497 -0.0016 -0.0266  0.0439
  766PRX     CX  766   3.950   2.028   6.179 -0.1673  0.0312 -0.1587
  767PRX     CX  767   5.897   2.930   5.277 -0.0311 -0.4752  0.1844
  768PRX     CX  768   2.306   2.578   5.966  0.1601  0.0657 -0.1983
  769PRX     CX  769   5.898   4.060   3.509 -0.0483  0.0949  0.3237
  770PRX     CX  770   2.923   6.298   4.481 -0.2859  0.2047 -0.6161
  771PRX     CX  771   3.202   1.090   0.938 -0.0780  0.1285 -0.0111
  772PRX     CX  772   3.824   1.155   2.989  0.0271 -0.0144 -0.1433
  773PRX     CX  773   6.119   2.635   6.364 -0.0066 -0.0613 -0.2160
  774PRX     CX  774   5.569   3.177   5.576 -0.2479 -0.2733  0.3622
  775PRX     CX  775   0.649   4.283   6.433 -0.1031  0.1034  0.0040
  776PRX     CX  776   4.879   3.808   1.803 -0.0667 -0.3581  0.1200
  777PRX     CX  777   0.156   6.552   3.315  0.0032 -0.2937  0.2143
  778PRX     CX  778   5.888   0.312   5.033  0.0400  0.1546  0.0093
  779PRX     CX  779   0.010   4.014   3.556 -0.1684 -0.0179  0.0620
  780PRX     CX  780   2.280   1.259   0.498 -0.0162 -0.1430  0.1884
  781PRX     CX  781   4.209   4.227   2.884 -0.2573 -0.5012 -0.0023
  782PRX     CX  782   4.562   4.940   3.524  0.1522  0.2468 -0.2234
  783PRX     CX  783   2.697   1.032   3.594  0.0045  0.0184  0.1779
  784PRX     CX  784   5.524   4.240   6.244  0.1066 -0.0685  0.0015
  785PRX     CX  785   0.503   3.240   6.253 -0.0665  0.1740  0.0451
  786PRX     CX  786   5.418   1.101   6.282 -0.1258 -0.3121 -0.0059
  787PRX     CX  787   4.708   3.673   4.274  0.3230  0.1357  0.2941
  788PRX     CX  788   4.199   2.262   4.897  0.0384  0.0673  0.1692
  789PRX     CX  789   5.113   3.996   6.621 -0.1865 -0.1278 -0.0496
  790PRX     CX  790   1.628   2.160   5.868  0.1183  0.1887  0.0507
  791PRX     CX  791   3.912   4.746   5.648 -0.0855  0.3455 -0.0370
  792PRX     CX  792   3.033   2.420   0.981  0.0499 -0.2563  0.0143
  793PRX     CX  793   4.430   5.246   0.474  0.2311 -0.2523  0.1335
  794PRX     CX  794   5.256   4.208   1.493 -0.1866  0.0428 -0.0264
  795PRX     CX  795   2.941   5.509   0.466  0.1659  0.2464  0.1441
  796PRX     CX  796   3.362   0.459   4.680  0.1678  0.0297  0.1096
  797PRX     CX  797   5.760   4.516   4.385  0.2170 -0.1896  0.0958
  798PRX     CX  798   2.870   4.159   6.539 -0.2237  0.1332 -0.1698
  799PRX     CX  799   5.870   3.582   4.755  0.2724  0.3229 -0.0251
  800PRX     CX  800   4.505   6.604   4.601  0.0923 -0.2337 -0.0455
  801PRX     CX  801   0.309   3.546   5.798  0.0760 -0.3266 -0.3320
  802PRX     CX  802   6.475   4.968   4.274 -0.0395  0.2255  0.0524
  803PRX     CX  803   4.617   2.124   1.740  0.0581  0.0378  0.2579
  804PRX     CX  804   4.084   5.499   0.131 -0.2249  0.1210 -0.2771
  805PRX     CX  805   2.519   0.613   3.963  0.1611 -0.1043 -0.0599
  806PRX     CX  806   5.644   4.677   5.406  0.0809  0.3100  0.3573
  807PRX     CX  807   2.695   3.656   4.342  0.0450  0.2001  0.1055
  808PRX     CX  808   5.536   3.025   1.206  0.2447  0.2009 -0.0252
  809PRX     CX  809   2.243   6.535   0.971 -0.1238  0.0817 -0.0066
  810PRX     CX  810   4.522   5.790   5.645  0.1652  0.4054 -0.1932
  811PRX     CX  811   4.061   4.655   3.204 -0.0459  0.0542  0.1692
  812PRX     CX  812   2.367   3.018   4.660  0.3047  0.0201 -0.0638
  813PRX     CX  813   1.931   1.445   3.072  0.0385  0.3670 -0.1270
  814PRX     CX  814   4.317   6.515   6.004 -0.3335 -0.1383 -0.0145
  815PRX     CX  815   1.428   2.331   4.995  0.0810  0.0517  0.0075
  816PRX     CX  816   6.141   0.101   1.021 -0.1360  0.1331 -0.3047
  817PRX     CX  817   1.034   6.298   4.207  0.0405  0.1466  0.3144
  818PRX     CX  818   4.000   2.179   5.421 -0.2459 -0.0576 -0.1646
  819PRX     CX  819   1.355   6.450   1.744 -0.2663  0.1356  0.0373
  820PRX     CX  820   5.426   6.384   2.540  0.0116  0.1621  0.1593
  821PRX     CX  821   4.282   0.437   5.946  0.2192 -0.0081 -0.4421
  822PRX     CX  822   2.732   1.335   4.003  0.2158 -0.0262 -0.1790
  823PRX     CX  823   5.108   2.491   2.960  0.1845 -0.0939  0.1061
  824PRX     CX  824   3.415   5.864   3.144  0.0579 -0.0299  0.0843
  825PRX     CX  825   4.504   2.112   3.664  0.3342 -0.2363  0.3448
  826PRX     CX  826   0.520   4.422   2.076 -0.0949 -0.1516 -0.4533
  827PRX     CX  827   2.146   1.850   5.096 -0.0864 -0.0883  0.4648
  828PRX     CX  828   4.330   0.950   5.372  0.1407  0.1632 -0.2258
  829PRX     CX  829   6.421   1.225   0.763 -0.0661  0.2590 -0.1503
  830PRX     CX  830   0.786   2.387   0.120  0.1450  0.3730  0.0028
  831PRX     CX  831   0.497   3.620   1.074 -0.1491  0.2838 -0.1326
  832PRX     CX  832   3.962   3.332   5.340  0.0706  0.3074 -0.5619
  833PRX     CX  833   5.927   0.037   1.505 -0.0040  0.3952  0.2814
  834PRX     CX  834   1.123   1.006   3.435 -0.3454  0.0581 -0.0119
  835PRX     CX  835   1.928   6.292   5.753 -0.4015  0.1669  0.0466
  836PRX     CX  836   2.778   2.532   5.672  0.2458  0.2074 -0.1625
  837PRX     CX  837   5.249   2.811   4.708  0.2257 -0.1734 -0.0034
  838PRX     CX  838   4.859   2.645   4.344 -0.3506 -0.1108  0.1337
  839PRX     CX  839   4.616   5.828   1.479  0.1621 -0.1310  0.1240
  840PRX     CX  840   5.347   0.361   3.831  0.1952 -0.1914  0.3047
  841PRX     CX  841   5.055   4.089   4.963  0.1703  0.1882 -0.2497
  842PRX     CX  842   0.099   4.910   6.325 -0.1210  0.0113 -0.0413
  843PRX     CX  843   2.770   2.454   5.173  0.1709 -0.2867  0.0640
  844PRX     CX  844   6.082   5.217   3.834 -0.0055 -0.2546  0.2225
  845PRX     CX  845   4.641   1.861   0.473 -0.0443 -0.0828 -0.0288
  846PRX     CX  846   3.835   1.044   6.509 -0.1158 -0.2397  0.2446
  847PRX     CX  847   1.143   2.000   2.275 -0.3212 -0.0158 -0.1453
  848PRX     CX  848   4.688   0.277   6.153 -0.2318 -0.0332 -0.1624
  849PRX     CX  849   4.665   6.303   6.255  0.3158 -0.1503 -0.0411
  850PRX     CX  850   4.334   1.397   5.803  0.2198  0.1241  0.0894
  851PRX     CX  851   3.517   5.925   1.180 -0.1111 -0.2579 -0.1637
  852PRX     CX  852   2.352   5.363   3.479  0.1857 -0.2356  0.1008
  853PRX     CX  853   0.248   5.474   1.028 -0.0073  0.0102 -0.0640
  854PRX     CX  854   1.731   5.194   2.981 -0.1000  0.3611  0.0524
  855PRX     CX  855   3.355   2.713   3.004  0.0317 -0.2322 -0.3685
  856PRX     CX  856   0.131   5.993   0.472 -0.1605  0.2527  0.4816
  857PRX     CX  857   3.707   3.121   6.204  0.1012  0.3206 -0.1757
  858PRX     CX  858   0.721   0.721   3.520  0.1377 -0.3422  0.2162
  859PRX     CX  859   1.674   2.543   1.024  0.1125  0.1289  0.1907
  860PRX     CX  860   5.950   2.205   5.584  0.0051  0.1573 -0.1997
  861PRX     CX  861   5.506   1.591   6.472  0.3963 -0.1648  0.2820
  862PRX     CX  862   2.373   3.161   6.552  0.0913  0.0316  0.2502
  863PRX     CX  863   4.405   5.201   2.124  0.2397  0.0922 -0.2068
  864PRX     CX  864   0.061   1.079   4.319  0.2091 -0.0037  0.2944
  865PRX     CX  865   4.221   3.241   3.156 -0.0359 -0.0344 -0.0190
  866PRX     CX  866   1.655   2.176   4.271 -0.1145 -0.0905  0.2878
  867PRX     CX  867   2.378   2.573   3.765  0.0288  0.4068 -0.2276
  868PRX     CX  868   4.516   1.366   6.376  0.2233  0.3418  0.1354
  869PRX     CX  869   1.073   5.895   2.836 -0.1993  0.0708 -0.3100
  870PRX     CX  870   0.885   6.096   5.700  0.0434  0.0493  0.0089
  871PRX     CX  871   2.002   4.930   3.463  0.0275 -0.1574  0.1941
  872PRX     CX  872   4.380   1.751   4.005 -0.2055 -0.0383 -0.0504
  873PRX     CX  873   3.720   5.629   5.842  0.0811 -0.1101  0.3914
  874PRX     CX  874   4.674   5.853   3.564  0.3744 -0.0415  0.1960
  875PRX     CX  875   4.381   5.327   5.361  0.0539  0.2042  0.1062
  876PRX     CX  876   5.437   6.519   5.304  0.1456 -0.2645  0.3778
  877PRX     CX  877   5.080   2.560   0.090 -0.0567 -0.0417  0.1221
  878PRX     CX  878   0.629   0.914   1.328 -0.0010  0.1566 -0.0656
  879PRX     CX  879   3.545   4.620   1.791 -0.3117 -0.2344  0.2356
  880PRX     CX  880   3.935   0.554   5.634  0.1510  0.0365 -0.1543
  881PRX     CX  881   5.723   2.963   4.771  0.2957  0.2552  0.3612
  882PRX     CX  882   4.382   6.497   2.447  0.2874  0.1428 -0.1407
  883PRX     CX  883   4.536   6.249   5.445 -0.0058  0.1496 -0.2227
  884PRX     CX  884   4.632   3.895   5.354 -0.0972  0.1255 -0.0462
  885PRX     CX  885   5.495   2.728   0.297 -0.0209  0.4889  0.1923
  886PRX     CX  886   5.752   0.492   4.527  0.1186  0.0489 -0.1172
  887PRX     CX  887   2.667   6.393   5.292  0.2817  0.3376 -0.0411
  888PRX     CX  888   5.254   1.160   3.578 -0.2465 -0.2018 -0.1326
  889PRX     CX  889   2.495   0.654   0.487  0.0114  0.0878 -0.1250
  890PRX     CX  890   5.929   2.094   6.476 -0.2693  0.2203  0.0306
  891PRX     CX  891   2.513   4.407   2.498 -0.5080  0.1372 -0.0319
  892PRX     CX  892   4.440   6.233   3.929  0.3555  0.1660 -0.0406
  893PRX     CX  893   3.736   2.000   1.909  0.1045 -0.0317 -0.0449
  894PRX     CX  894   3.487   4.292   3.890 -0.1284 -0.3345  0.1276
  895PRX     CX  895   1.613   1.757   2.233  0.5722 -0.4460  0.0996
  896PRX     CX  896   5.424   6.619   0.718 -0.2058 -0.0699  0.2108
  897PRX     CX  897   2.055   3.519   1.226 -0.2533 -0.1016  0.3806
  898PRX     CX  898   5.122   5.515   2.801  0.0694  0.3750  0.0033
  899PRX     CX  899   0.984   4.948   0.342  0.1035  0.0099 -0.2503
  900PRX     CX  900   5.573   3.757   3.290  0.0203 -0.1027 -0.0929
  901PRX     CX  901   0.397   2.550   3.472 -0.1364 -0.0578 -0.1807
  902PRX     CX  902   3.061   4.631   5.166 -0.2498 -0.0184  0.1200
  903PRX     CX  903   3.794   0.641   6.085  0.1668 -0.1960  0.0819
  904PRX     CX  904   2.530   1.432   3.214 -0.0209 -0.1317 -0.3077
  905PRX     CX  905   0.551   4.583   1.152  0.1581 -0.0368  0.0176
  906PRX     CX  906   0.713   2.347   4.167 -0.2317  0.1593  0.0110
  907PRX     CX  907   0.957   2.744   3.881  0.2656  0.0024 -0.3700
  908PRX     CX  908   5.731   3.929   2.884 -0.3003 -0.0376  0.0069
  909PRX     CX  909   4.845   0.855   0.395  0.0564 -0.2235  0.0625
  910PRX     CX  910   0.189   2.709   5.502  0.2916  0.1701 -0.1191
  911PRX     CX  911   1.280   4.122   1.397 -0.0001  0.0003 -0.0556
  912PRX     CX  912   3.031   2.229   0.441  0.0635  0.1037 -0.1395
  913PRX     CX  913   2.731   2.676   6.215 -0.3240  0.0239  0.3211
  914PRX     CX  914   0.453   3.599   4.191  0.0975 -0.0004 -0.0439
  915PRX     CX  915   2.378   3.907   6.193 -0.3635  0.2361 -0.1293
  916PRX     CX  916   2.919   4.109   2.676  0.0202 -0.3689  0.1594
  917PRX     CX  917   1.904   2.284   4.696  0.1838 -0.0094 -0.2878
  918PRX     CX  918   4.757   1.235   0.629 -0.0957  0.2861  0.0575
  919PRX     CX  919   5.685   0.287   2.729  0.1024 -0.1488 -0.2327
  920PRX     CX  920   4.163   0.984   1.336 -0.1608  0.2916  0.3141
  921PRX     CX  921   5.542   1.875   1.371 -0.1694  0.1439 -0.0432
  922PRX     CX  922   3.336   6.222   2.726 -0.0911 -0.2745 -0.1036
  923PRX     CX  923   2.218   0.961   3.240  0.0129  0.0352 -0.1661
  924PRX     CX  924   2.708   4.422   3.551 -0.1321  0.0677 -0.3023
  925PRX     CX  925   4.671   5.225   4.003  0.1771  0.0420  0.1851
  926PRX     CX  926   0.036   1.474   2.082  0.1196  0.1635  0.4073
  927PRX     CX  927   0.126   4.639   3.321  0.1525 -0.2495 -0.1196
  928PRX     CX  928   3.470   3.124   2.007  0.2542  0.1139  0.0153
  929PRX     CX  929   0.554   5.277   2.116 -0.2591  0.1048 -0.2931
  930PRX     CX  930   6.387   1.048   6.350  0.1300 -0.0061 -0.6161
  931PRX     CX  931   2.828   1.658   4.661 -0.0134  0.2532 -0.3806
  932PRX     CX  932   3.914   3.111   4.002 -0.2036 -0.1798 -0.2167
  933PRX     CX  933   2.264   6.510   4.336 -0.0138 -0.5165 -0.0945
  934PRX     CX  934   0.214   6.049   2.320 -0.3997  0.1088  0.0260
  935PRX     CX  935   6.131   6.022   1.029  0.0470 -0.1990  0.4321
  936PRX     CX  936   3.877   5.794   2.958  0.2342 -0.2038 -0.1390
  937PRX     CX  937   0.897   3.404   0.777  0.1389 -0.1441 -0.1338
  938PRX     CX  938   1.005   5.487   0.155 -0.1519 -0.0416 -0.1677
  939PRX     CX  939   5.624   2.782   3.791 -0.0523 -0.1700  0.0462
  940PRX     CX  940   0.675   5.054   6.069  0.1551  0.0096  0.1593
  941PRX     CX  941   2.053   0.822   3.855 -0.0349  0.0376  0.0279
  942PRX     CX  942   3.880   4.458   4.238 -0.0783  0.1567  0.1530
  943PRX     CX  943   1.873   3.709   5.421  0.0060  0.0796  0.0729
  944PRX     CX  944   2.924   5.733   3.955  0.1108 -0.0847  0.0505
  945PRX     CX  945   0.355   3.033   3.763 -0.3561 -0.2686 -0.1772
  946PRX     CX  946   6.169   2.813   3.089 -0.2639 -0.3036 -0.0945
  947PRX     CX  947   1.874   3.530   1.779  0.2204  0.2205 -0.0738
  948PRX     CX  948   5.253   0.688   4.245 -0.0190 -0.1012  0.0886
  949PRX     CX  949   6.473   0.320   3.398  0.1986  0.5155  0.1277
  950PRX     CX  950   0.764   2.370   3.057 -0.0798 -0.2406  0.2289
  951PRX     CX  951   6.075   3.218   0.638  0.0338 -0.0081 -0.0727
  952PRX     CX  952   0.528   1.873   0.287 -0.0623 -0.1871  0.2039
  953PRX     CX  953   2.872   0.583   2.306  0.3865 -0.0262  0.3025
  954PRX     CX  954   3.472   0.593   3.765  0.0109 -0.0764  0.1771
  955PRX     CX  955   6.293   1.786   3.111  0.0899 -0.1707 -0.0487
  956PRX     CX  956   5.575   3.199   1.703 -0.1284 -0.0784 -0.0336
  957PRX     CX  957   5.074   3.395   2.485 -0.1207  0.2988  0.0281
  958PRX     CX  958   0.056   0.554   6.351 -0.2190  0.1435  0.3189
  959PRX     CX  959   6.125   4.787   4.680 -0.2648 -0.0478  0.2688
  960PRX     CX  960   1.666   0.635   4.297  0.1060  0.2846  0.3083
  961PRX     CX  961   5.486   4.033   0.364 -0.3284  0.2224 -0.3668
  962PRX     CX  962   1.730   0.021   2.658 -0.0981 -0.1238  0.3512
  963PRX     CX  963   2.882   6.006   2.536  0.0222  0.0752 -0.1336
  964PRX     CX  964   1.030   0.755   5.202 -0.1045 -0.4911 -0.1584
  965PRX     CX  965   6.528   4.242   6.237 -0.0304  0.1019 -0.1395
  966PRX     CX  966   1.685   4.466   5.845  0.0962  0.0665  0.5683
  967PRX     CX  967   0.847   3.176   2.460  0.1270 -0.1808 -0.0675
  968PRX     CX  968   2.894   5.175   6.481 -0.1302  0.1004  0.1081
  969PRX     CX  969   5.449   4.389   1.057  0.0933  0.2941 -0.0456
  970PRX     CX  970   0.821   1.002   1.894 -0.0493 -0.2307 -0.0109
  971PRX     CX  971   5.821   2.715   2.745 -0.1288  0.0597 -0.3397
  972PRX     CX  972   2.978   4.147   3.867 -0.2748 -0.1883  0.1044
  973PRX     CX  973   3.184   6.497   4.106  0.1964  0.1333 -0.2758
  974PRX     CX  974   3.217   4.721   3.686  0.4617 -0.0653 -0.0311
  975PRX     CX  975   4.157   1.450   0.662  0.4977 -0.0781  0.2713
  976PRX     CX  976   6.083   1.583   3.825  0.4649 -0.0458  0.0957
  977PRX     CX  977   4.020   3.989   2.414  0.1004  0.1671  0.0228
  978PRX     CX  978   2.873   5.684   6.407  0.0037 -0.0388 -0.1974
  979PRX     CX  979   1.167   0.568   1.942 -0.2497 -0.0916 -0.0576
  980PRX     CX  980   4.991   3.301   1.546  0.0290 -0.0056  0.1458
  981PRX     CX  981   1.522   4.584   3.106  0.1578  0.1394  0.2141
  982PRX     CX  982   6.306   2.701   2.548  0.1255 -0.1633  0.2646
  983PRX     CX  983   4.867   1.569   5.762  0.0558 -0.0128 -0.3482
  984PRX     CX  984   5.279   0.236   4.300  0.1472  0.1243 -0.2206
  985PRX     CX  985   0.671   2.776   1.042  0.2080  0.1269  0.3018
  986PRX     CX  986   5.781   1.976   2.243 -0.0987  0.1398  0.1910
  987PRX     CX  987   6.290   4.347   3.674 -0.1983 -0.1182 -0.0139
  988PRX     CX  988   4.662   4.956   6.303 -0.0635  0.0229 -0.1044
  989PRX     CX  989   2.333   5.391   2.669  0.1508  0.4391 -0.3706
  990PRX     CX  990   2.139   0.379   5.925 -0.0273  0.0085 -0.1940
  991PRX     CX  991   4.793   1.180   3.456  0.1561 -0.1237  0.3493
  992PRX     CX  992   1.550   4.346   5.415  0.1794 -0.1830 -0.0238
  993PRX     CX  993   6.431   5.283   2.629 -0.1796  0.2440  0.1032
  994PRX     CX  994   0.752   5.430   6.356 -0.0456 -0.0008 -0.1754
  995PRX     CX  995   4.298   1.247   3.568  0.1041 -0.1281  0.1748
  996PRX     CX  996   2.458   2.134   4.841 -0.1447 -0.2103  0.3901
  997PRX     CX  997   0.424   0.927   3.195 -0.0280 -0.0790  0.1972
  998PRX     CX  998   3.430   5.404   0.609 -0.0988  0.2056  0.2204
  999PRX     CX  999   6.057   2.671   5.670  0.0862 -0.0120  0.3121
 1000PRX     CX 1000   5.603   6.407   6.450 -0.1235  0.0472 -0.1181
 1001PRX     CX 1001   1.064   1.250   2.864  0.2721  0.2456  0.2776
 1002PRX     CX 1002   5.735   4.100   1.401  0.0553 -0.3745 -0.1319
 1003PRX     CX 1003   2.408   0.139   3.583 -0.2513 -0.0582 -0.1104
 1004PRX     CX 1004   4.372   2.669   0.635 -0.0383  0.0197  0.1138
 1005PRX     CX 1005   5.111   4.513   5.204 -0.0574  0.0696  0.2321
 1006PRX     CX 1006   1.664   4.925   2.163  0.1446 -0.0539  0.2068
 1007PRX     CX 1007   0.928   2.967   1.958  0.1190  0.1478  0.0040
 1008PRX     CX 1008   4.059   2.422   0.238  0.1469 -0.2607  0.0695
 1009PRX     CX 1009   4.429   3.322   1.741  0.3000 -0.2892 -0.0833
 1010PRX     CX 1010   0.522   6.171   3.155  0.0511 -0.0811  0.1613
 1011PRX     CX 1011   2.087   4.603   1.731 -0.0824 -0.0028  0.1910
 1012PRX     CX 1012   4.129   2.222   3.938  0.1366 -0.2157 -0.1253
 1013PRX     CX 1013   6.282   2.639   1.612  0.2250 -0.0683 -0.2414
 1014PRX     CX 1014   0.811   0.026   2.171  0.0874  0.1210  0.3567
 1015PRX     CX 1015   2.706   6.393   2.773  0.2188  0.1240 -0.0037
 1016PRX     CX 1016   6.069   1.943   0.611  0.0897  0.0011  0.0602
 1017PRX     CX 1017   2.540   0.204   6.121 -0.4252 -0.2330 -0.0692
 1018PRX     CX 1018   1.673   0.312   0.745 -0.1224 -0.0004  0.0827
 1019PRX     CX 1019   5.492   0.518   1.350 -0.1723  0.2510  0.3266
 1020PRX     CX 1020   4.417   4.898   1.552 -0.2342 -0.0017 -0.0231
 1021PRX     CX 1021   3.423   1.368   2.306  0.1573  0.0142 -0.0545
 1022PRX     CX 1022   0.384   6.422   0.417 -0.0378  0.0594  0.1578
 1023PRX     CX 1023   5.080   4.042   4.486  0.0092  0.2516  0.2090
 1024PRX     CX 1024   0.374   5.638   0.108  0.1963  0.1605  0.1100
 1025PRX     CX 1025   3.957   1.650   3.736  0.2971  0.2314  0.0983
 1026PRX     CX 1026   1.096   1.027   1.456 -0.1430 -0.2282  0.3298
 1027PRX     CX 1027   2.713   3.471   4.815 -0.0551 -0.0238  0.0366
 1028PRX     CX 1028   5.050   4.634   0.814 -0.1513 -0.0200 -0.1853
 1029PRX     CX 1029   1.134   5.989   1.747 -0.2169 -0.0207  0.0952
 1030PRX     CX 1030   2.959   5.415   5.745  0.0389 -0.1139  0.2103
 1031PRX     CX 1031   0.089   6.139   2.903 -0.0191 -0.1339 -0.3890
 1032PRX     CX 1032   6.605   0.221   5.439  0.1191 -0.0891  0.0289
 1033PRX     CX 1033   0.874   2.297   5.442  0.0500  0.3185 -0.1976
 1034PRX     CX 1034   2.997   2.555   1.965  0.1951 -0.1001  0.0158
 1035PRX     CX 1035   5.088   5.192   0.897  0.2663 -0.2603 -0.0681
 1036PRX     CX 1036   2.805   1.027   0.551 -0.2519 -0.3421  0.2494
 1037PRX     CX 1037   2.624   2.499   2.441  0.2367  0.2476  0.2420
 1038PRX     CX 1038   1.444   3.867   1.906  0.0223 -0.0313  0.0785
 1039PRX     CX 1039   1.106   6.521   5.901 -0.1788 -0.1158 -0.2054
 1040PRX     CX 1040   2.359   2.783   5.495 -0.2582  0.1318  0.1815
 1041PRX     CX 1041   3.708   4.760   3.702  0.3124 -0.1633 -0.0656
 1042PRX     CX 1042   2.071   5.407   0.322  0.0944  0.3193 -0.1441
 1043PRX     CX 1043   0.197   0.796   1.657  0.0934  0.1690 -0.1286
 1044PRX     CX 1044   4.830   6.214   2.323  0.0279 -0.4405  0.0185
 1045PRX     CX 1045   1.144   2.661   3.353 -0.2317  0.1846  0.1373
 1046PRX     CX 1046   3.142   3.811   0.064 -0.0837  0.0830 -0.0627
 1047PRX     CX 1047   5.057   1.233   1.755 -0.1391  0.1909  0.0274
 1048PRX     CX 1048   1.891   6.608   5.419 -0.0460 -0.3367 -0.1319
 1049PRX     CX 1049   2.774   4.713   1.087  0.1873  0.0004 -0.1832
 1050PRX     CX 1050   3.836   3.895   1.533  0.0777  0.1570 -0.2558
 1051PRX     CX 1051   3.471   3.253   3.103  0.1452 -0.0776  0.1602
 1052PRX     CX 1052   2.242   4.176   5.236 -0.0692  0.0667 -0.0906
 1053PRX     CX 1053   5.485   5.035   3.472  0.1864 -0.1167  0.1770
 1054PRX     CX 1054   0.287   2.182   5.126 -0.1653 -0.0926  0.0714
 1055PRX     CX 1055   4.267   5.358   4.294  0.0656 -0.3408 -0.0275
 1056PRX     CX 1056   4.495   4.092   3.789  0.1149  0.2035  0.0169
 1057PRX     CX 1057   1.857   3.285   0.723 -0.2574 -0.0594 -0.0318
 1058PRX     CX 1058   1.778   0.176   6.219 -0.3875  0.1418  0.0628
 1059PRX     CX 1059   3.978   1.316   5.169 -0.0735 -0.1273  0.0238
 1060PRX     CX 1060   2.384   1.020   4.866 -0.1890 -0.0220 -0.1654
 1061PRX     CX 1061   3.568   0.118   3.935 -0.0361 -0.3191 -0.2654
 1062PRX     CX 1062   2.263   1.773   4.570 -0.2569  0.0040  0.0313
 1063PRX     CX 1063   3.412   2.717   5.122  0.0773 -0.0392  0.0178
 1064PRX     CX 1064   1.705   2.688   2.771 -0.1637  0.1264 -0.0264
 1065PRX     CX 1065   4.894   3.283   3.820  0.0065  0.2256 -0.5040
 1066PRX     CX 1066   4.591   0.877   1.054  0.0326  0.0603  0.2760
 1067PRX     CX 1067   0.150   6.455   5.207 -0.0802 -0.0796  0.0406
 1068PRX     CX 1068   1.380   3.441   4.723  0.1075 -0.3385  0.1044
 1069PRX     CX 1069   3.789   2.434   1.612 -0.2590  0.1342 -0.1084
 1070PRX     CX 1070   3.534   1.129   5.066  0.1676  0.2866 -0.1738
 1071PRX     CX 1071   3.955   5.017   0.065  0.1078  0.2748  0.1746
 1072PRX     CX 1072   3.257   2.468   5.635 -0.3561 -0.0563  0.2721
 1073PRX     CX 1073   3.449   1.569   1.812  0.2899 -0.1366  0.0181
 1074PRX     CX 1074   0.413   3.949   3.769 -0.0466 -0.1465 -0.1343
 1075PRX     CX 1075   3.543   2.779   3.521  0.1082 -0.1842 -0.1561
 1076PRX     CX 1076   6.028   5.242   2.939 -0.0313  0.0381  0.1945
 1077PRX     CX 1077   5.128   1.586   1.333 -0.0253  0.2322  0.0858
 1078PRX     CX 1078   0.118   1.974   6.003 -0.5261  0.0954 -0.0777
 1079PRX     CX 1079   0.232   4.066   0.482 -0.0133 -0.0449  0.1606
 1080PRX     CX 1080   0.511   5.641   5.673 -0.3302  0.1011 -0.1299
 1081PRX     CX 1081   2.128   0.280   4.102 -0.1116  0.0161 -0.0071
 1082PRX     CX 1082   5.453   5.009   1.883 -0.2769  0.2630 -0.5028
 1083PRX     CX 1083   5.206   6.559   2.057  0.4149  0.0026  0.0542
 1084PRX     CX 1084   1.887   2.330   0.638 -0.0643  0.0798 -0.1660
 1085PRX     CX 1085   5.239   3.932   2.940  0.0269 -0.1151  0.2650
 1086PRX     CX 1086   3.025   4.062   1.071  0.2030  0.0055  0.2243
 1087PRX     CX 1087   4.962   3.093   5.206  0.1610 -0.1961  0.1041
 1088PRX     CX 1088   5.945   3.399   6.356  0.2902  0.1057  0.2055
 1089PRX     CX 1089   3.695   2.349   4.793  0.4090 -0.2661 -0.0714
 1090PRX     CX 1090   0.648   5.510   5.238  0.1682 -0.0137  0.1225
 1091PRX     CX 1091   0.350   0.851   3.926 -0.1245  0.0611 -0.1503
 1092PRX     CX 1092   2.605   5.372   4.329  0.3815  0.1292  0.4652
 1093PRX     CX 1093   5.434   1.103   1.440  0.0577 -0.4353  0.0322
 1094PRX     CX 1094   1.975   0.480   5.357 -0.0338  0.0768 -0.2163
 1095PRX     CX 1095   3.885   5.253   5.409  0.3498 -0.0814 -0.1603
 1096PRX     CX 1096   2.232   0.591   4.510 -0.1235 -0.2645 -0.0778
 1097PRX     CX 1097   4.663   4.301   1.483  0.0035  0.1882 -0.2108
 1098PRX     CX 1098   0.837   0.743   2.984 -0.0457  0.2259  0.2980
 1099PRX     CX 1099   4.979   3.884   1.161 -0.1227 -0.1040  0.2313
 1100PRX     CX 1100   5.945   4.336   0.489  0.0305  0.1023  0.0446
 1101PRX     CX 1101   6.017   4.112   4.564 -0.1582 -0.0728  0.2293
 1102PRX     CX 1102   3.935   3.584   1.121 -0.0227 -0.0517  0.0447
 1103PRX     CX 1103   3.254   1.593   5.922 -0.1676 -0.0089  0.0590
 1104PRX     CX 1104   0.422   5.955   1.605 -0.1143 -0.0305  0.1136
 1105PRX     CX 1105   4.599   4.367   5.067  0.1218 -0.3709  0.2525
 1106PRX     CX 1106   2.004   0.548   3.430 -0.1298 -0.3912 -0.0266
 1107PRX     CX 1107   0.608   3.255   5.095 -0.0752  0.2554 -0.0284
 1108PRX     CX 1108   2.561   2.976   2.438  0.0351  0.0825  0.2351
 1109PRX     CX 1109   3.840   1.076   4.094 -0.1652  0.1062 -0.0093
 1110PRX     CX 1110   2.499   2.658   0.084 -0.0408  0.1362 -0.1669
 1111PRX     CX 1111   4.683   3.096   0.286 -0.0461  0.0745  0.2458
 1112PRX     CX 1112   6.571   3.070   2.464 -0.0302 -0.2339  0.1800
 1113PRX     CX 1113   3.306   0.370   2.053  0.1825  0.1155  0.3998
 1114PRX     CX 1114   3.124   5.022   1.191 -0.1160 -0.0005  0.3742
 1115PRX     CX 1115   0.528   2.830   2.269  0.1926 -0.0082  0.0435
 1116PRX     CX 1116   3.169   0.499   6.142  0.2136  0.2217  0.0823
 1117PRX     CX 1117   4.706   3.212   2.781  0.0095 -0.2273 -0.2281
 1118PRX     CX 1118   0.480   6.140   6.600  0.0549  0.0800 -0.1802
 1119PRX     CX 1119   3.081   5.497   4.369 -0.1273 -0.3113  0.2413
 1120PRX     CX 1120   2.723   6.317   3.975  0.1174  0.0713  0.2793
 1121PRX     CX 1121   2.948   6.014   0.218 -0.0785  0.0660 -0.0123
 1122PRX     CX 1122   3.227   4.632   0.881 -0.0057  0.1988  0.0753
 1123PRX     CX 1123   5.059   6.315   0.976  0.2231  0.2020 -0.1309
 1124PRX     CX 1124   6.330   0.022   5.096 -0.1362 -0.1715 -0.0807
 1125PRX     CX 1125   1.792   0.551   6.585 -0.1927  0.2459  0.1161
 1126PRX     CX 1126   5.289   0.282   2.373  0.1725 -0.1014 -0.2536
 1127PRX     CX 1127   6.109   1.804   2.587  0.3150  0.0591  0.1198
 1128PRX     CX 1128   4.123   2.072   1.549  0.2060 -0.1635  0.1125
 1129PRX     CX 1129   1.179   1.914   0.105  0.6171 -0.1574  0.3221
 1130PRX     CX 1130   5.515   4.273   5.782 -0.0828 -0.3039  0.3136
 1131PRX     CX 1131   2.787   2.096   4.431  0.1215 -0.2511 -0.1111
 1132PRX     CX 1132   6.325   3.053   6.209 -0.2047 -0.1038  0.1920
 1133PRX     CX 1133   3.668   5.040   1.359  0.1240  0.1732 -0.0436
 1134PRX     CX 1134   6.347   0.518   0.342 -0.1054 -0.0200 -0.3327
 1135PRX     CX 1135   2.110   6.477   2.005  0.1800  0.1511  0.2647
 1136PRX     CX 1136   0.790   5.642   1.871  0.2063 -0.3899 -0.0357
 1137PRX     CX 1137   5.587   4.891   1.147  0.1453 -0.0581 -0.1381
 1138PRX     CX 1138   5.415   6.225   5.738  0.0726  0.2752  0.1468
 1139PRX     CX 1139   0.019   2.124   3.344 -0.1076 -0.0030  0.0757
 1140PRX     CX 1140   5.896   1.682   0.224 -0.1906 -0.0213  0.0871
 1141PRX     CX 1141   3.442   6.095   2.261  0.1458 -0.0440  0.2037
 1142PRX     CX 1142   1.237   1.607   5.899 -0.0581  0.1439 -0.0792
 1143PRX     CX 1143   4.863   0.223   0.567 -0.2225 -0.0767  0.0198
 1144PRX     CX 1144   3.860   0.315   3.550  0.4332 -0.3123 -0.0980
 1145PRX     CX 1145   3.633   4.329   3.027  0.0579  0.3009  0.1284
 1146PRX     CX 1146   0.161   2.021   1.292 -0.0155  0.4313  0.2069
 1147PRX     CX 1147   0.377   1.901   5.492  0.1042 -0.1591 -0.2200
 1148PRX     CX 1148   2.977   3.980   6.024  0.2118 -0.0890  0.1332
 1149PRX     CX 1149   5.488   5.995   0.981 -0.2308 -0.2995 -0.0381
 1150PRX     CX 1150   2.172   4.214   3.855 -0.1496 -0.2595 -0.1308
 1151PRX     CX 1151   2.491   4.655   5.176 -0.0684  0.4135 -0.2044
 1152PRX     CX 1152   2.892   3.303   2.202  0.3606 -0.0413 -0.0327
 1153PRX     CX 1153   0.185   3.930   4.432  0.0517 -0.0531  0.1613
 1154PRX     CX 1154   1.711   2.701   4.943 -0.1152 -0.0363 -0.0643
 1155PRX     CX 1155   3.749   0.672   3.190 -0.0560  0.0347 -0.2490
 1156PRX     CX 1156   0.208   4.130   1.185  0.0782 -0.0130  0.1743
 1157PRX     CX 1157   3.462   4.295   2.152  0.2548  0.1595 -0.0250
 1158PRX     CX 1158   4.639   2.320   4.082 -0.0977  0.1321 -0.0550
 1159PRX     CX 1159   3.039   2.602   3.495  0.2265  0.4299  0.1756
 1160PRX     CX 1160   0.140   1.582   4.174  0.0493 -0.1369  0.0275
 1161PRX     CX 1161   6.167   1.614   4.419  0.0600 -0.1354 -0.1966
 1162PRX     CX 1162   0.307   0.543   1.248 -0.1450  0.0896  0.0973
 1163PRX     CX 1163   4.773   1.895   2.134  0.1794 -0.4270  0.0767
 1164PRX     CX 1164   1.099   3.649   0.292 -0.4701  0.1212 -0.2740
 1165PRX     CX 1165   2.369   5.789   3.109 -0.1576  0.1719 -0.1238
 1166PRX     CX 1166   2.026   2.296   2.836  0.1210  0.0171  0.0341
 1167PRX     CX 1167   0.068   1.462   1.308  0.1546  0.1671 -0.1975
 1168PRX     CX 1168   2.825   5.328   2.577  0.0215 -0.1812  0.3114
 1169PRX     CX 1169   6.120   5.117   6.448 -0.0610  0.1850 -0.1775
 1170PRX     CX 1170   3.899   2.684   3.199 -0.0888 -0.0768 -0.0031
 1171PRX     CX 1171   5.525   5.256   2.840 -0.0500  0.0127 -0.4902
 1172PRX     CX 1172   6.325   2.438   0.607  0.1134  0.3612  0.2579
 1173PRX     CX 1173   2.287   4.328   0.897  0.2582 -0.0671  0.0714
 1174PRX     CX 1174   1.794   3.166   4.172 -0.0643 -0.2770  0.0725
 1175PRX     CX 1175   2.624   1.216   2.421 -0.0920  0.1652 -0.3090
 1176PRX     CX 1176   3.900   1.507   2.364  0.2759 -0.2295  0.2337
 1177PRX     CX 1177   2.878   2.112   2.261  0.1023  0.1763  0.1390
 1178PRX     CX 1178   6.619   5.976   3.381 -0.0008 -0.1125  0.1332
 1179PRX     CX 1179   3.464   0.649   1.665 -0.0038 -0.0474 -0.1287
 1180PRX     CX 1180   1.250   1.009   4.221  0.2139  0.3359  0.1484
 1181PRX     CX 1181   4.608   5.787   4.098  0.0711  0.1718 -0.0721
 1182PRX     CX 1182   1.672   4.182   2.821 -0.0995 -0.1933 -0.0622
 1183PRX     CX 1183   3.259   3.652   2.890 -0.0512  0.0871 -0.0884
 1184PRX     CX 1184   3.810   4.445   4.708 -0.4092 -0.2979  0.2188
 1185PRX     CX 1185   4.283   3.573   0.353  0.2907  0.3294 -0.1827
 1186PRX     CX 1186   6.115   3.356   5.737  0.1614  0.0646  0.0516
 1187PRX     CX 1187   4.078   2.989   1.576 -0.0063  0.2763 -0.0493
 1188PRX     CX 1188   3.412   1.906   4.604 -0.1347  0.1491 -0.0847
 1189PRX     CX 1189   4.805   6.118   4.870 -0.0880 -0.1423  0.0024
 1190PRX     CX 1190   5.049   0.646   0.813  0.1758 -0.0624  0.1000
 1191PRX     CX 1191   3.651   5.640   4.162 -0.4327  0.0519 -0.0185
 1192PRX     CX 1192   2.544   2.219   0.695  0.3335  0.0035  0.1334
 1193PRX     CX 1193   1.875   0.736   1.028 -0.0405 -0.0661  0.3249
 1194PRX     CX 1194   2.484   5.566   5.606  0.0598  0.0102 -0.0811
 1195PRX     CX 1195   3.421   0.237   1.337  0.2056  0.2658  0.0569
 1196PRX     CX 1196   2.234   5.391   4.685 -0.1740 -0.0936  0.1439
 1197PRX     CX 1197   1.159   1.904   2.759 -0.0555  0.1306 -0.0309
 1198PRX     CX 1198   2.566   3.896   3.741 -0.2698  0.0967 -0.2577
 1199PRX     CX 1199   4.486   4.666   4.251  0.0762 -0.0881 -0.1963
 1200PRX     CX 1200   5.688   1.906   4.607  0.2474  0.2287 -0.1868
 1201PRX     CX 1201   3.649   4.300   5.626 -0.0312  0.1695  0.0065
 1202PRX     CX 1202   5.358   2.308   3.568  0.2425 -0.1828 -0.0190
 1203PRX     CX 1203   1.461   5.835   5.699  0.1406  0.0512 -0.0723
 1204PRX     CX 1204   0.304   2.710   4.170 -0.0362  0.2401  0.1708
 1205PRX     CX 1205   5.714   6.222   4.441  0.0732 -0.2725 -0.1657
 1206PRX     CX 1206   3.087   0.273   0.882  0.1009  0.2167 -0.1959
 1207PRX     CX 1207   4.183   4.628   1.158  0.1642  0.4526  0.1224
 1208PRX     CX 1208   2.355   0.886   5.769 -0.0150  0.1523  0.2304
 1209PRX     CX 1209   4.605   3.493   6.016  0.0916  0.0740 -0.0809
 1210PRX     CX 1210   5.170   3.063   0.322 -0.2252  0.3116  0.1796
 1211PRX     CX 1211   2.543   5.030   4.893 -0.0883  0.0141 -0.1426
 1212PRX     CX 1212   2.092   5.847   4.734 -0.1739  0.0739  0.1950
 1213PRX     CX 1213   5.182   6.191   4.630  0.0105 -0.1654  0.0237
 1214PRX     CX 1214   5.446   3.199   6.538 -0.0042  0.1844  0.0251
 1215PRX     CX 1215   4.830   5.122   4.503 -0.2017  0.0883 -0.0870
 1216PRX     CX 1216   6.114   2.094   1.912 -0.3392 -0.1517 -0.0355
 1217PRX     CX 1217   3.965   4.390   6.094 -0.2026  0.0874 -0.2117
 1218PRX     CX 1218   4.519   3.529   2.358 -0.0693  0.3432  0.0280
 1219PRX     CX 1219   0.530   1.483   6.455 -0.0044 -0.0618 -0.2507
 1220PRX     CX 1220   4.428   4.824   0.800  0.0618 -0.0105  0.2084
 1221PRX     CX 1221   4.464   3.818   0.879  0.2018  0.0137  0.1440
 1222PRX     CX 1222   1.994   0.186   4.806  0.0902  0.2485  0.2178
 1223PRX     CX 1223   4.627   3.662   0.016  0.0785 -0.1562 -0.0054
 1224PRX     CX 1224   5.969   3.704   2.527  0.2565  0.0478 -0.3173
 1225PRX     CX 1225   4.350   0.004   3.069  0.0434  0.3101  0.0924
 1226PRX     CX 1226   5.029   3.605   0.695 -0.1332  0.1238  0.3767
 1227PRX     CX 1227   3.118   0.766   1.365 -0.1104 -0.1270  0.0586
 1228PRX     CX 1228   3.757   1.246   1.896 -0.0593  0.0009  0.0025
 1229PRX     CX 1229   6.391   1.994   4.097 -0.1625  0.3089  0.0094
 1230PRX     CX 1230   5.431   4.209   4.164  0.0415 -0.0677  0.1776
 1231PRX     CX 1231   2.453   5.571   2.116  0.2908  0.1569 -0.2961
 1232PRX     CX 1232   2.435   0.043   1.466 -0.3838 -0.1764  0.1604
 1233PRX     CX 1233   6.452   4.588   1.145  0.0102  0.1660 -0.2331
 1234PRX     CX 1234   1.913   6.431   0.651  0.1298  0.0984  0.2303
 1235PRX     CX 1235   2.396   4.542   0.465  0.0931 -0.0655 -0.0672
 1236PRX     CX 1236   3.571   3.332   3.658 -0.0036  0.2457 -0.1600
 1237PRX     CX 1237   4.300   4.494   3.623 -0.0283  0.2377 -0.2133
 1238PRX     CX 1238   4.007   1.996   2.561 -0.0134  0.0570  0.0506
 1239PRX     CX 1239   5.278   2.405   6.048 -0.0246 -0.2431 -0.1282
 1240PRX     CX 1240   1.448   1.282   5.563  0.1038 -0.0472  0.0969
 1241PRX     CX 1241   6.240   5.757   3.040 -0.0052 -0.0516  0.1468
 1242PRX     CX 1242   6.235   3.412   5.118  0.3395  0.0815  0.1578
 1243PRX     CX 1243   0.776   1.189   0.849  0.1681 -0.5483  0.1261
 1244PRX     CX 1244   3.578   6.111   5.734 -0.0161  0.5398  0.0238
 1245PRX     CX 1245   6.393   5.847   2.503 -0.1518 -0.1054  0.1293
 1246PRX     CX 1246   1.106   4.485   0.533  0.1701 -0.0333  0.0291
 1247PRX     CX 1247   3.023   2.985   5.286 -0.2554 -0.1539 -0.1644
 1248PRX     CX 1248   3.059   5.824   1.369  0.0480 -0.0439 -0.0003
 1249PRX     CX 1249   4.133   4.345   1.643  0.1531  0.1322  0.4264
 1250PRX     CX 1250   1.263   5.108   3.804  0.2877  0.0233  0.2059
 1251PRX     CX 1251   5.968   2.472   0.232  0.2062 -0.0041 -0.1109
 1252PRX     CX 1252   5.112   0.282   5.251  0.0860 -0.0670 -0.2122
 1253PRX     CX 1253   6.134   4.761   0.761  0.0968 -0.4835  0.0391
 1254PRX     CX 1254   4.025   1.493   6.221 -0.2264  0.0152  0.0633
 1255PRX     CX 1255   3.115   3.582   1.168  0.2068 -0.0706  0.3659
 1256PRX     CX 1256   5.143   6.409   6.206  0.0067 -0.2269  0.1142
 1257PRX     CX 1257   4.646   3.010   5.902  0.0188 -0.0718 -0.1575
 1258PRX     CX 1258   0.583   1.876   4.023 -0.1099  0.1125 -0.1216
 1259PRX     CX 1259   2.631   1.997   1.194 -0.0458 -0.0932  0.1992
 1260PRX     CX 1260   5.649   0.906   2.535 -0.0234 -0.2007 -0.1015
 1261PRX     CX 1261   5.014   5.599   3.810  0.0233  0.1463 -0.0179
 1262PRX     CX 1262   6.226   5.259   4.578  0.1960  0.1237  0.0354
 1263PRX     CX 1263   5.072   4.786   2.123 -0.0577  0.0565 -0.0605
 1264PRX     CX 1264   6.495   3.228   1.590  0.2491  0.1481 -0.0868
 1265PRX     CX 1265   2.623   3.692   6.620  0.0120  0.1370 -0.1245
 1266PRX     CX 1266   3.002   3.032   2.654 -0.0356  0.0236  0.1934
 1267PRX     CX 1267   4.722   2.078   2.988 -0.0287 -0.1113 -0.0427
 1268PRX     CX 1268   4.493   0.409   3.481  0.2177 -0.1921  0.1869
 1269PRX     CX 1269   5.237   1.269   2.254 -0.0686  0.0659  0.1871
 1270PRX     CX 1270   6.599   2.809   3.446 -0.0153 -0.1915 -0.0578
 1271PRX     CX 1271   3.517   1.452   1.317  0.1378  0.1168 -0.1157
 1272PRX     CX 1272   5.950   3.347   1.364  0.4579 -0.0630  0.1577
 1273PRX     CX 1273   6.169   3.303   4.004 -0.0882 -0.0894  0.2154
 1274PRX     CX 1274   4.964   0.716   1.389  0.2434  0.1181 -0.2227
 1275PRX     CX 1275   6.320   3.391   0.043 -0.0034  0.2780 -0.2966
 1276PRX     CX 1276   3.413   1.100   3.757 -0.0020 -0.2041  0.5709
 1277PRX     CX 1277   2.106   6.128   2.847  0.1151 -0.1426 -0.2141
 1278PRX     CX 1278   1.151   0.537   3.744 -0.0260 -0.0358  0.1397
 1279PRX     CX 1279   0.857   2.796   5.747 -0.2425 -0.0602  0.1098
 1280PRX     CX 1280   1.461   4.706   0.150 -0.2009 -0.1274  0.1355
 1281PRX     CX 1281   1.836   0.157   3.716  0.0484  0.0233  0.0530
 1282PRX     CX 1282   6.081   0.851   3.853  0.1740 -0.0585  0.0803
 1283PRX     CX 1283   4.932   2.976   2.074 -0.2439 -0.1225 -0.0626
 1284PRX     CX 1284   2.125   2.176   1.631  0.1641  0.3061 -0.0168
 1285PRX     CX 1285   5.250   5.024   5.341  0.2360  0.0553 -0.2381
 1286PRX     CX 1286   2.118   0.380   1.771  0.1409 -0.0197 -0.4278
 1287PRX     CX 1287   2.663   4.472   3.005 -0.2811  0.2104 -0.1222
 1288PRX     CX 1288   3.770   2.614   3.904 -0.0512  0.0911 -0.0943
 1289PRX     CX 1289   2.149   3.111   2.038  0.0471  0.0099  0.1909
 1290PRX     CX 1290   5.714   2.262   3.862 -0.0856  0.0929  0.1777
 1291PRX     CX 1291   0.684   3.589   2.613 -0.0948 -0.3559 -0.0670
 1292PRX     CX 1292   4.805   0.465   2.269  0.0941 -0.0970 -0.0609
 1293PRX     CX 1293   1.644   0.983   0.145  0.1487  0.0028  0.1304
 1294PRX     CX 1294   1.251   0.712   6.524  0.0638 -0.1523 -0.2487
 1295PRX     CX 1295   3.423   6.514   5.990 -0.1056  0.0461 -0.5182
 1296PRX     CX 1296   2.845   5.136   2.103 -0.0271 -0.1592  0.0477
 1297PRX     CX 1297   4.751   3.943   0.392  0.1091 -0.0375  0.0864
 1298PRX     CX 1298   1.099   3.174   5.124  0.0222  0.2494 -0.2161
 1299PRX     CX 1299   6.377   3.693   1.517  0.1633  0.1318 -0.1318
 1300PRX     CX 1300   6.175   6.232   6.401  0.3658 -0.3147 -0.2640
 1301PRX     CX 1301   1.776   3.743   0.405 -0.0562  0.1104  0.4855
 1302PRX     CX 1302   5.364   1.317   0.662 -0.1706 -0.2184  0.0643
 1303PRX     CX 1303   0.741   5.189   1.516 -0.2653  0.0500 -0.1308
 1304PRX     CX 1304   4.649   4.983   0.170 -0.0837  0.2810  0.3846
 1305PRX     CX 1305   2.469   1.286   5.486  0.0230  0.2282 -0.0114
 1306PRX     CX 1306   2.609   2.878   1.894  0.1754 -0.0640 -0.3072
 1307PRX     CX 1307   1.450   0.959   5.096 -0.4628  0.1846  0.3705
 1308PRX     CX 1308   1.962   4.080   1.814 -0.1063  0.0600  0.3411
 1309PRX     CX 1309   2.908   1.795   3.972 -0.0469 -0.0288  0.0134
 1310PRX     CX 1310   2.423   1.706   6.359  0.1145  0.3986  0.1412
 1311PRX     CX 1311   1.040   5.131   2.148 -0.4485 -0.2065 -0.3622
 1312PRX     CX 1312   0.811   1.566   1.818  0.2588  0.0148  0.3069
 1313PRX     CX 1313   0.861   2.296   3.717 -0.0712  0.1260  0.0174
 1314PRX     CX 1314   0.338   6.308   4.202  0.2844 -0.0496  0.3953
 1315PRX     CX 1315   6.100   3.833   2.036  0.1422  0.0515  0.3577
 1316PRX     CX 1316   3.964   6.579   0.402  0.1310  0.1735  0.1751
 1317PRX     CX 1317   3.449   4.844   4.166 -0.1003 -0.3327  0.2013
 1318PRX     CX 1318   5.810   5.733   0.722 -0.0836  0.0594  0.2770
 1319PRX     CX 1319   5.252   1.997   3.145 -0.0002 -0.2941 -0.0534
 1320PRX     CX 1320   2.175   1.269   3.972  0.1281 -0.1339 -0.1234
 1321PRX     CX 1321   0.717   6.009   2.213  0.0072 -0.0969 -0.2304
 1322PRX     CX 1322   3.545   1.725   5.127 -0.1162  0.2729  0.0096
 1323PRX     CX 1323   1.831   5.914   3.835 -0.0073  0.0282  0.1506
 1324PRX     CX 1324   4.605   5.607   4.556  0.1241 -0.1093  0.0352
 1325PRX     CX 1325   5.577   2.491   1.353  0.3097 -0.0611 -0.0178
 1326PRX     CX 1326   5.069   5.757   1.048 -0.1734 -0.0126  0.2817
 1327PRX     CX 1327   5.102   5.538   5.665 -0.0047  0.0681 -0.2553
 1328PRX     CX 1328   1.609   4.453   1.858 -0.1098 -0.0366  0.0026
 1329PRX     CX 1329   3.535   6.559   5.163  0.2441 -0.1746  0.5294
 1330PRX     CX 1330   0.934   3.531   2.153  0.3175 -0.1519  0.1655
 1331PRX     CX 1331   2.575   4.024   3.210 -0.1174 -0.1455 -0.1272
 1332PRX     CX 1332   6.340   3.710   4.511 -0.1478 -0.0093  0.0015
 1333PRX     CX 1333   3.218   5.982   4.268 -0.1449  0.0656  0.1337
 1334PRX     CX 1334   0.312   1.532   3.204 -0.1379  0.3979  0.1039
 1335PRX     CX 1335   2.844   5.396   1.719  0.0396 -0.0204 -0.0789
 1336PRX     CX 1336   4.139   3.595   6.446 -0.0081  0.0545  0.1157
 1337PRX     CX 1337   2.983   1.539   2.390  0.3632  0.0334 -0.0274
 1338PRX     CX 1338   1.384   4.580   3.590  0.2377 -0.2015  0.0282
 1339PRX     CX 1339   0.229   3.601   0.248 -0.0908 -0.7112  0.1820
 1340PRX     CX 1340   3.861   1.861   4.740  0.2525 -0.0366 -0.0894
 1341PRX     CX 1341   1.570   3.225   5.263  0.2267 -0.4544 -0.3719
 1342PRX     CX 1342   1.401   4.088   0.279 -0.0719  0.1414 -0.3670
 1343PRX     CX 1343   3.731   1.395   4.518 -0.0731  0.0240 -0.1895
 1344PRX     CX 1344   6.037   0.718   1.104  0.0857 -0.0427  0.2995
 1345PRX     CX 1345   3.557   4.631   0.464  0.2391 -0.1434 -0.1602
 1346PRX     CX 1346   0.358   3.400   2.230  0.1585  0.3227  0.0758
 1347PRX     CX 1347   3.054   1.826   1.455  0.1958 -0.0161  0.1309
 1348PRX     CX 1348   6.593   4.900   4.778  0.1575 -0.0927 -0.0173
 1349PRX     CX 1349   5.518   2.605   6.416 -0.0640  0.1302 -0.2540
 1350PRX     CX 1350   1.435   3.649   6.066  0.0781 -0.0641 -0.2564
 1351PRX     CX 1351   1.687   3.054   0.151  0.2193  0.1229  0.1860
 1352PRX     CX 1352   4.702   6.326   2.922 -0.3183 -0.0160 -0.2220
 1353PRX     CX 1353   1.240   2.346   4.534 -0.0476 -0.0242  0.0181
 1354PRX     CX 1354   0.162   0.943   2.254  0.0977 -0.0072 -0.0411
 1355PRX     CX 1355   1.410   3.314   1.728  0.2330 -0.2798 -0.1441
 1356PRX     CX 1356   0.814   2.807   4.416 -0.0466  0.0324  0.0416
 1357PRX     CX 1357   5.659   6.097   3.510 -0.0200 -0.1244  0.1702
 1358PRX     CX 1358   5.620   4.504   3.353 -0.1899 -0.0652  0.1501
 1359PRX     CX 1359   3.906   2.451   4.332  0.1478 -0.0575  0.1105
 1360PRX     CX 1360   0.326   5.261   4.950  0.3493  0.1393  0.0564
 1361PRX     CX 1361   1.308   2.539   5.990 -0.1162  0.1061  0.1259
 1362PRX     CX 1362   4.389   2.866   1.932  0.1188 -0.2420 -0.2023
 1363PRX     CX 1363   2.413   5.445   6.600 -0.1165  0.0434 -0.1383
 1364PRX     CX 1364   3.614   6.426   1.200 -0.3352 -0.2303 -0.0765
 1365PRX     CX 1365   1.904   5.888   0.386  0.0830  0.0862  0.0175
 1366PRX     CX 1366   2.081   1.308   1.191  0.1228 -0.1119 -0.2330
 1367PRX     CX 1367   2.267   0.730   6.247 -0.1482 -0.4694 -0.1246
 1368PRX     CX 1368   3.458   5.602   2.659 -0.0289 -0.1855  0.0256
 1369PRX     CX 1369   1.108   2.082   5.967  0.0283 -0.1818 -0.0335
 1370PRX     CX 1370   2.493   3.731   5.241  0.1513  0.0976  0.0649
 1371PRX     CX 1371   4.187   2.041   0.580  0.2511  0.1101 -0.0139
 1372PRX     CX 1372   5.396   5.219   6.533  0.0247 -0.1444 -0.1467
 1373PRX     CX 1373   0.569   5.883   4.257 -0.4132  0.0783  0.4161
 1374PRX     CX 1374   0.390   0.694   2.698 -0.3457  0.1833  0.1085
 1375PRX     CX 1375   3.614   6.153   4.017 -0.0693 -0.1529 -0.0484
 1376PRX     CX 1376   5.225   4.829   6.235  0.0834  0.0134  0.2705
 1377PRX     CX 1377   1.261   0.351   6.082  0.1489 -0.1726 -0.1045
 1378PRX     CX 1378   3.766   6.159   0.678  0.2614 -0.1183  0.0955
 1379PRX     CX 1379   3.136   4.506   5.830 -0.1713 -0.0626  0.3064
 1380PRX     CX 1380   0.633   0.619   6.425  0.0465 -0.1018  0.1317
 1381PRX     CX 1381   1.915   1.271   3.547  0.0262 -0.0413  0.3327
 1382PRX     CX 1382   0.879   0.030   4.553 -0.1390  0.1047 -0.1305
 1383PRX     CX 1383   1.317   0.626   3.182 -0.0574 -0.2678 -0.2945
 1384PRX     CX 1384   3.385   2.738   1.698  0.0565 -0.1285  0.2280
 1385PRX     CX 1385   3.401   1.005   4.318 -0.0995 -0.0406 -0.2458
 1386PRX     CX 1386   2.253   5.041   2.986 -0.3802 -0.0582 -0.1210
 1387PRX     CX 1387   3.397   5.582   1.655 -0.0706  0.0957  0.1179
 1388PRX     CX 1388   5.055   1.165   1.056  0.3985  0.1443  0.2408
 1389PRX     CX 1389   0.616   5.917   6.055 -0.1629 -0.0379 -0.0822
 1390PRX     CX 1390   1.724   0.017   4.247 -0.0474 -0.6058 -0.0952
 1391PRX     CX 1391   6.338   3.778   6.072 -0.0611 -0.1957  0.1331
 1392PRX     CX 1392   1.142   1.513   2.180  0.0825  0.1470  0.0379
 1393PRX     CX 1393   5.326   6.496   3.608  0.0407 -0.2902  0.3467
 1394PRX     CX 1394   2.849   1.353   6.293 -0.1778  0.1105 -0.0813
 1395PRX     CX 1395   5.243   5.239   2.378  0.3078  0.1421 -0.0795
 1396PRX     CX 1396   4.694   0.028   2.096  0.0720 -0.0941  0.1231
 1397PRX     CX 1397   2.086   2.627   2.309  0.1547  0.2506  0.1400
 1398PRX     CX 1398   5.802   1.348   2.846  0.1848 -0.3491 -0.1669
 1399PRX     CX 1399   3.078   5.634   2.228  0.0125  0.3449  0.0321
 1400PRX     CX 1400   1.081   5.072   6.479 -0.0927  0.2879  0.1179
 1401PRX     CX 1401   1.593   1.159   2.269  0.2987  0.0933  0.3302
 1402PRX     CX 1402   1.579   6.494   3.112  0.2397 -0.2750 -0.0982
 1403PRX     CX 1403   2.511   6.314   2.342 -0.1303  0.1103 -0.3548
 1404PRX     CX 1404   2.416   3.845   4.773 -0.3109 -0.0809 -0.2262
 1405PRX     CX 1405   0.592   3.786   0.618 -0.1229  0.2477  0.1357
 1406PRX     CX 1406   2.131   2.654   1.826  0.2189 -0.2271 -0.1371
 1407PRX     CX 1407   1.356   2.216   0.795 -0.2789  0.1218  0.1865
 1408PRX     CX 1408   4.039   5.682   5.397  0.2076 -0.1519 -0.0994
 1409PRX     CX 1409   0.327   0.932   5.965 -0.4990 -0.1223 -0.2685
 1410PRX     CX 1410   3.975   3.103   2.802  0.0634 -0.1433 -0.0843
 1411PRX     CX 1411   1.546   6.337   3.935 -0.0441 -0.0816  0.1262
 1412PRX     CX 1412   0.404   3.903   6.217  0.1543  0.2417 -0.1582
 1413PRX     CX 1413   0.926   1.739   5.484 -0.4547 -0.0651  0.2946
 1414PRX     CX 1414   1.965   2.589   3.307 -0.0403 -0.2243  0.1145
 1415PRX     CX 1415   2.566   1.871   1.737  0.1158 -0.0817 -0.3265
 1416PRX     CX 1416   5.244   2.812   1.615 -0.0094  0.1889 -0.2177
 1417PRX     CX 1417   0.585   1.719   5.051 -0.2364  0.0205 -0.0346
 1418PRX     CX 1418   5.912   0.286   0.464  0.1202  0.2363  0.1738
 1419PRX     CX 1419   6.395   0.097   0.115  0.2547 -0.1502 -0.0117
 1420PRX     CX 1420   2.226   4.919   0.178 -0.2295  0.0679  0.0392
 1421PRX     CX 1421   4.305   6.121   4.804 -0.4879 -0.2373  0.0717
 1422PRX     CX 1422   2.695   1.251   0.141  0.2796  0.0882  0.2489
 1423PRX     CX 1423   6.017   0.014   4.589  0.2069  0.4561 -0.2310
 1424PRX     CX 1424   5.945   0.888   5.525  0.0728  0.1382 -0.3418
 1425PRX     CX 1425   5.105   3.508   0.183  0.2420  0.1908 -0.1363
 1426PRX     CX 1426   4.761   0.547   1.798 -0.0566  0.1910 -0.5137
 1427PRX     CX 1427   1.269   1.613   3.173  0.2332  0.0815 -0.3823
 1428PRX     CX 1428   1.604   5.767   4.651 -0.0787  0.0721 -0.1987
 1429PRX     CX 1429   4.329   0.541   1.571  0.4026 -0.2687 -0.1745
 1430PRX     CX 1430   3.095   1.272   1.442  0.0116 -0.0028 -0.0487
 1431PRX     CX 1431   5.048   3.647   5.251  0.1780  0.0700 -0.0193
 1432PRX     CX 1432   3.752   0.363   5.030 -0.2806 -0.1203  0.1057
 1433PRX     CX 1433   3.153   1.429   3.455  0.1138  0.1855 -0.2027
 1434PRX     CX 1434   0.388   4.844   3.909 -0.2810 -0.1260 -0.0424
 1435PRX     CX 1435   4.067   2.441   5.888 -0.0717  0.0826  0.3418
 1436PRX     CX 1436   4.072   0.109   1.277 -0.0257 -0.0539  0.0037
 1437PRX     CX 1437   0.693   4.872   2.437  0.0301 -0.2220 -0.1082
 1438PRX     CX 1438   2.336   1.287   6.093 -0.1321  0.0005 -0.0410
 1439PRX     CX 1439   2.101   6.314   3.851 -0.1605 -0.0499 -0.1379
 1440PRX     CX 1440   1.201   3.261   6.471  0.1853 -0.1186 -0.0513
 1441PRX     CX 1441   1.700   1.713   0.938 -0.0955 -0.2508  0.0713
 1442PRX     CX 1442   6.445   4.770   3.822 -0.1631 -0.1841  0.0112
 1443PRX     CX 1443   5.777   5.187   4.379 -0.5212 -0.0464 -0.5199
 1444PRX     CX 1444   5.864   6.143   2.479 -0.0456 -0.0267  0.3328
 1445PRX     CX 1445   4.414   6.193   1.923 -0.0418 -0.1146 -0.2377
 1446PRX     CX 1446   2.002   5.031   4.271  0.1946  0.3704 -0.3040
 1447PRX     CX 1447   2.936   1.910   2.691 -0.0135  0.2109  0.0160
 1448PRX     CX 1448   3.493   5.295   2.300  0.0296  0.0160 -0.0744
 1449PRX     CX 1449   5.067   0.966   5.656 -0.2792 -0.0690  0.0716
 1450PRX     CX 1450   1.481   0.375   4.652  0.1736  0.0369  0.0490
 1451PRX     CX 1451   3.455   6.035   5.167  0.2017 -0.0611  0.1893
 1452PRX     CX 1452   0.232   5.569   2.444 -0.1078 -0.0327 -0.0682
 1453PRX     CX 1453   3.780   0.189   4.429  0.1068  0.1498  0.0678
 1454PRX     CX 1454   5.798   5.447   0.266 -0.0062 -0.1907  0.4045
 1455PRX     CX 1455   5.175   0.436   0.054  0.0863  0.1310  0.1737
 1456PRX     CX 1456   3.713   3.788   6.599  0.1331 -0.2348  0.2017
 1457PRX     CX 1457   1.480   4.375   6.287  0.0522 -0.3031  0.2620
 1458PRX     CX 1458   1.336   5.699   0.439  0.1364 -0.0974  0.1855
 1459PRX     CX 1459   0.912   5.293   2.707  0.0155 -0.2657 -0.1334
 1460PRX     CX 1460   1.547   0.372   5.140 -0.0611  0.0521 -0.0366
 1461PRX     CX 1461   0.120   5.668   2.972 -0.0981 -0.0901  0.0623
 1462PRX     CX 1462   1.168   5.303   5.243 -0.3890 -0.0136  0.2283
 1463PRX     CX 1463   5.223   3.387   2.992 -0.1209 -0.1304  0.0406
 1464PRX     CX 1464   5.156   2.816   3.634  0.1255  0.0386 -0.1423
 1465PRX     CX 1465   5.086   1.764   0.755 -0.0066  0.2902  0.1452
 1466PRX     CX 1466   4.761   0.759   3.245  0.3225  0.2139 -0.1675
 1467PRX     CX 1467   3.416   2.206   5.193 -0.2621  0.2868 -0.0518
 1468PRX     CX 1468   1.185   6.378   6.477  0.0186  0.0121 -0.0760
 1469PRX     CX 1469   1.926   4.941   0.942  0.0743 -0.0900 -0.3601
 1470PRX     CX 1470   2.756   4.181   5.099 -0.1090  0.1525 -0.1774
 1471PRX     CX 1471   5.614   3.847   4.435 -0.0137 -0.0428 -0.0627
 1472PRX     CX 1472   5.778   1.931   3.277 -0.0976  0.3850 -0.0209
 1473PRX     CX 1473   5.480   3.750   5.597  0.0770 -0.0230  0.0385
 1474PRX     CX 1474   5.874   3.306   3.168 -0.3449 -0.3907 -0.0076
 1475PRX     CX 1475   1.827   2.593   5.897  0.1809  0.0774  0.3796
 1476PRX     CX 1476   5.966   4.470   5.041 -0.0645  0.0502  0.2243
 1477PRX     CX 1477   5.998   4.247   5.956 -0.0659  0.2034  0.0531
 1478PRX     CX 1478   6.313   2.959   4.975  0.2343 -0.1224  0.1942
 1479PRX     CX 1479   0.729   3.266   5.672 -0.4240 -0.0473 -0.1068
 1480PRX     CX 1480   4.217   0.811   4.358 -0.1333  0.0955 -0.0845
 1481PRX     CX 1481   2.753   0.676   4.453 -0.0358 -0.2084  0.2327
 1482PRX     CX 1482   3.508   6.034   1.713  0.2134 -0.2429 -0.2815
 1483PRX     CX 1483   1.640   5.089   0.401  0.1683  0.2640 -0.0058
 1484PRX     CX 1484   0.384   0.123   6.298 -0.1077  0.0222  0.2396
 1485PRX     CX 1485   0.990   1.387   5.178  0.1275  0.2517 -0.0910
 1486PRX     CX 1486   0.944   5.940   6.515  0.0883 -0.0027 -0.0880
 1487PRX     CX 1487   1.472   5.356   4.205  0.2625  0.2337 -0.1774
 1488PRX     CX 1488   2.092   1.047   4.412  0.0787  0.0361  0.0714
 1489PRX     CX 1489   4.238   5.963   3.348  0.2344 -0.0446  0.0630
 1490PRX     CX 1490   2.356   0.517   3.113  0.0516 -0.0385  0.0590
 1491PRX     CX 1491   0.120   5.817   3.877  0.1045 -0.3254 -0.0314
 1492PRX     CX 1492   4.167   6.224   2.843 -0.1054 -0.1450  0.0384
 1493PRX     CX 1493   4.693   4.501   5.521  0.0924  0.1208 -0.1525
 1494PRX     CX 1494   6.138   5.909   4.596  0.1062  0.1808  0.1308
 1495PRX     CX 1495   6.495   3.988   4.053  0.0993 -0.0939  0.3598
 1496PRX     CX 1496   6.410   4.522   0.411  0.1471 -0.1335  0.0088
 1497PRX     CX 1497   5.180   0.617   6.113 -0.1809 -0.3154  0.0338
 1498PRX     CX 1498   0.457   3.025   4.663 -0.0649  0.0590 -0.3239
 1499PRX     CX 1499   4.660   5.299   1.262  0.0562 -0.0841  0.2790
 1500PRX     CX 1500   6.305   0.734   4.550  0.2275 -0.1299  0.0450
 1501PRX     CX 1501   1.442   0.030   1.282  0.2512  0.2034  0.1297
 1502PRX     CX 1502   1.525   2.723   4.399 -0.2464 -0.1037  0.1115
 1503PRX     CX 1503   2.055   3.929   3.449 -0.3392 -0.1365 -0.0921
 1504PRX     CX 1504   4.373   2.039   0.073 -0.2731  0.2665 -0.0043
 1505PRX     CX 1505   0.067   4.301   2.348 -0.0919  0.3649 -0.4356
 1506PRX     CX 1506   4.163   6.423   3.508 -0.0974  0.1709 -0.0116
 1507PRX     CX 1507   5.693   4.920   4.937 -0.0959 -0.4133  0.1244
 1508PRX     CX 1508   3.269   5.699   4.770  0.2660  0.0432 -0.0749
 1509PRX     CX 1509   2.913   3.805   2.043 -0.3692  0.2518 -0.1637
 1510PRX     CX 1510   0.462   5.774   0.710 -0.2704 -0.0753  0.0809
 1511PRX     CX 1511   1.595   3.507   3.463 -0.3021 -0.0661  0.0688
 1512PRX     CX 1512   0.152   5.710   6.093  0.0344  0.2244  0.1693
 1513PRX     CX 1513   1.265   2.438   1.498  0.0458 -0.0724 -0.1304
 1514PRX     CX 1514   3.275   6.363   0.640 -0.1064  0.2656 -0.2630
 1515PRX     CX 1515   5.085   4.946   2.778  0.1090 -0.6166  0.0747
 1516PRX     CX 1516   0.825   0.601   0.394 -0.2444  0.1327 -0.0667
 1517PRX     CX 1517   3.785   2.068   2.976 -0.0131 -0.0278  0.1605
 1518PRX     CX 1518   2.241   0.427   0.904 -0.0902 -0.1039 -0.2204
 1519PRX     CX 1519   2.972   1.576   1.899  0.0657  0.1717 -0.1233
 1520PRX     CX 1520   6.243   6.033   2.094  0.0715  0.0461  0.0962
 1521PRX     CX 1521   0.538   1.831   0.809  0.1923  0.0262 -0.2290
 1522PRX     CX 1522   4.068   0.823   3.564 -0.0516  0.0429  0.2944
 1523PRX     CX 1523   6.484   0.514   2.513 -0.1269 -0.3551 -0.0504
 1524PRX     CX 1524   6.186   1.106   3.036 -0.0904  0.0034  0.3639
 1525PRX     CX 1525   4.498   0.839   3.802 -0.0708  0.0325 -0.1728
 1526PRX     CX 1526   5.318   1.563   5.894  0.0106 -0.1423  0.2178
 1527PRX     CX 1527   2.395   3.492   3.396  0.0531 -0.2691 -0.1241
 1528PRX     CX 1528   5.878   2.779   0.716 -0.2412  0.1275  0.1029
 1529PRX     CX 1529   4.369   3.308   4.514 -0.1914  0.1298 -0.1364
 1530PRX     CX 1530   1.420   0.277   2.413  0.1428 -0.0741  0.2919
 1531PRX     CX 1531   5.997   2.278   1.425  0.2521 -0.1017 -0.1931
 1532PRX     CX 1532   6.568   2.260   5.564 -0.0709  0.0527  0.2944
 1533PRX     CX 1533   5.896   0.776   3.311 -0.0981  0.0060 -0.0411
 1534PRX     CX 1534   4.584   3.970   5.832 -0.0806 -0.0785 -0.0472
 1535PRX     CX 1535   3.221   1.575   4.235  0.1192 -0.2146  0.1031
 1536PRX     CX 1536   6.411   4.196   0.819  0.0890 -0.4792 -0.1920
 1537PRX     CX 1537   2.976   5.187   3.498  0.0087 -0.0995  0.0834
 1538PRX     CX 1538   5.074   0.435   2.809  0.0817  0.3990 -0.0319
 1539PRX     CX 1539   3.856   0.278   1.701 -0.0227 -0.0829 -0.1819
 1540PRX     CX 1540   3.413   6.556   1.849  0.0046  0.1526  0.2751
 1541PRX     CX 1541   4.210   5.868   0.512 -0.0171 -0.0477 -0.1455
 1542PRX     CX 1542   6.297   4.128   2.582 -0.0516  0.2705  0.2367
 1543PRX     CX 1543   0.960   6.330   3.100 -0.0829 -0.1521 -0.0937
 1544PRX     CX 1544   5.308   3.482   1.234  0.1476  0.2399  0.3167
 1545PRX     CX 1545   6.268   1.623   6.425 -0.0261  0.3025 -0.2669
 1546PRX     CX 1546   4.104   3.793   5.035  0.4161  0.3167  0.0863
 1547PRX     CX 1547   6.185   3.931   3.142  0.3069 -0.0144  0.0717
 1548PRX     CX 1548   4.439   2.217   6.179 -0.0801 -0.1609  0.1622
 1549PRX     CX 1549   2.815   0.980   1.806  0.1438  0.2265  0.4334
 1550PRX     CX 1550   2.410   5.115   1.740  0.1250 -0.1012  0.1478
 1551PRX     CX 1551   0.041   2.911   2.050  0.1953 -0.1522  0.3076
 1552PRX     CX 1552   3.173   2.995   6.028  0.2591  0.1429  0.2416
 1553PRX     CX 1553   3.930   0.772   1.840  0.0301 -0.1192  0.0142
 1554PRX     CX 1554   2.178   3.736   0.757  0.1296  0.2271 -0.1143
 1555PRX     CX 1555   5.907   1.707   5.854 -0.1938 -0.1536  0.1947
 1556PRX     CX 1556   2.419   4.938   0.816  0.3115 -0.0672  0.1987
 1557PRX     CX 1557   5.867   1.453   5.437 -0.2970  0.2268  0.2786
 1558PRX     CX 1558   0.965   4.689   3.868  0.1496 -0.0154 -0.0723
 1559PRX     CX 1559   6.322   0.029   1.936 -0.0255  0.0297  0.0912
 1560PRX     CX 1560   4.022   0.423   0.762  0.1351  0.1593 -0.1834
 1561PRX     CX 1561   3.531   2.266   3.335 -0.0090 -0.0025 -0.1829
 1562PRX     CX 1562   1.297   3.552   5.535  0.3066  0.0351 -0.2018
 1563PRX     CX 1563   0.189   5.109   3.327  0.2096  0.1929  0.0960
 1564PRX     CX 1564   6.451   2.103   5.025 -0.3912 -0.2147 -0.0569
 1565PRX     CX 1565   6.175   0.149   2.710  0.1178  0.0491  0.0869
 1566PRX     CX 1566   3.680   3.869   5.342  0.0700  0.1756  0.1429
 1567PRX     CX 1567   3.872   6.097   2.470 -0.0181  0.3306  0.0228
 1568PRX     CX 1568   1.631   1.967   1.736  0.1302 -0.0341 -0.1457
 1569PRX     CX 1569   5.615   5.624   1.487  0.0180  0.0813  0.1421
 1570PRX     CX 1570   2.519   0.194   2.175  0.4741  0.0057  0.4532
 1571PRX     CX 1571   5.298   5.437   4.215 -0.1594  0.1745 -0.2983
 1572PRX     CX 1572   5.479   4.491   2.009  0.2714 -0.0212 -0.2225
 1573PRX     CX 1573   2.162   4.518   2.789  0.0251  0.2582  0.2092
 1574PRX     CX 1574   5.736   0.344   0.937 -0.2493  0.0537  0.2456
 1575PRX     CX 1575   1.581   5.882   2.354  0.1481 -0.0071 -0.0890
 1576PRX     CX 1576   3.589   2.700   5.947  0.1690  0.0787  0.0992
 1577PRX     CX 1577   4.275   2.666   4.070  0.3270 -0.1407 -0.2372
 1578PRX     CX 1578   5.075   6.073   2.760 -0.0778  0.2896 -0.0472
 1579PRX     CX 1579   3.070   5.885   5.900 -0.0062  0.1236 -0.4363
 1580PRX     CX 1580   4.571   2.901   5.415 -0.1131 -0.3268 -0.0595
 1581PRX     CX 1581   6.576   5.182   2.004  0.2246 -0.2350  0.2363
 1582PRX     CX 1582   2.929   3.674   3.327 -0.1411  0.2647  0.3189
 1583PRX     CX 1583   2.006   0.167   3.157  0.0983  0.1102 -0.2050
 1584PRX     CX 1584   2.712   3.327   1.268  0.2724 -0.0278 -0.0429
 1585PRX     CX 1585   1.439   6.300   5.570  0.2395 -0.0791  0.2042
 1586PRX     CX 1586   4.474   4.116   4.289 -0.0864  0.3783 -0.0431
 1587PRX     CX 1587   1.566   4.487   1.143 -0.1055 -0.5457 -0.1571
 1588PRX     CX 1588   1.834   4.005   6.216  0.1882 -0.3610  0.2311
 1589PRX     CX 1589   2.968   6.065   3.098  0.1026 -0.3193  0.1107
 1590PRX     CX 1590   3.180   5.051   6.023  0.3708  0.2641 -0.1140
 1591PRX     CX 1591   1.533   2.095   1.280  0.2109  0.0763  0.0860
 1592PRX     CX 1592   4.371   0.047   1.714 -0.3969 -0.3262 -0.1022
 1593PRX     CX 1593   2.183   0.155   0.400  0.1097  0.0701  0.1744
 1594PRX     CX 1594   0.064   5.205   3.771  0.0024 -0.1440 -0.0062
 1595PRX     CX 1595   3.282   0.153   0.265 -0.0281  0.1776 -0.2747
 1596PRX     CX 1596   1.296   6.399   0.356  0.1781 -0.2818  0.2779
 1597PRX     CX 1597   3.188   4.538   1.420 -0.3127 -0.0394 -0.0323
 1598PRX     CX 1598   1.716   0.526   2.895 -0.4160 -0.2867 -0.1989
 1599PRX     CX 1599   4.882   0.109   3.247  0.1349  0.2120  0.1358
 1600PRX     CX 1600   5.248   6.498   3.020  0.1365 -0.1189  0.2048
 1601PRX     CX 1601   4.712   0.856   6.065  0.0099 -0.1718  0.2066
 1602PRX     CX 1602   0.912   2.041   1.734 -0.2374  0.1304 -0.1492
 1603PRX     CX 1603   5.338   1.369   3.173 -0.0749  0.2242  0.0002
 1604PRX     CX 1604   0.339   1.224   1.698  0.2175 -0.0999  0.2145
 1605PRX     CX 1605   0.009   6.195   1.784  0.0740  0.3373 -0.0199
 1606PRX     CX 1606   1.666   2.735   0.507  0.0543  0.4342  0.0631
 1607PRX     CX 1607   4.882   2.506   1.771 -0.1145 -0.1253  0.0676
 1608PRX     CX 1608   5.617   2.707   5.755 -0.0957 -0.1129 -0.1117
 1609PRX     CX 1609   0.755   2.294   0.627  0.0069 -0.1363 -0.2348
 1610PRX     CX 1610   3.178   2.185   6.580 -0.3481  0.0072 -0.3198
 1611PRX     CX 1611   3.089   0.871   0.036  0.1914 -0.0130 -0.1752
 1612PRX     CX 1612   5.173   5.111   4.848 -0.0331 -0.1379  0.3822
 1613PRX     CX 1613   4.343   5.386   1.602 -0.2142 -0.1787 -0.0122
 1614PRX     CX 1614   0.666   5.192   3.579  0.2792 -0.0890 -0.1796
 1615PRX     CX 1615   3.992   5.822   6.237 -0.0648 -0.0006 -0.2445
 1616PRX     CX 1616   4.649   2.070   5.138 -0.2626 -0.0646  0.0380
 1617PRX     CX 1617   1.428   4.815   0.719 -0.1209  0.0298  0.2993
 1618PRX     CX 1618   1.840   3.737   4.555  0.2052 -0.0217  0.0852
 1619PRX     CX 1619   3.165   2.671   6.507 -0.1986  0.2362  0.0632
 1620PRX     CX 1620   6.365   2.882   0.935 -0.1116 -0.0833  0.2260
 1621PRX     CX 1621   6.330   5.462   6.055  0.1051 -0.0949  0.1040
 1622PRX     CX 1622   2.004   2.774   4.437  0.1949 -0.0955  0.1381
 1623PRX     CX 1623   5.151   1.244   4.054  0.1423 -0.1569 -0.1378
 1624PRX     CX 1624   4.781   2.613   6.165 -0.0550 -0.2309 -0.0351
 1625PRX     CX 1625   5.342   2.126   1.012 -0.1148 -0.0155  0.2244
 1626PRX     CX 1626   6.420   1.439   3.450  0.1486  0.1164 -0.0047
 1627PRX     CX 1627   3.042   4.443   1.871 -0.0581  0.0589  0.0397
 1628PRX     CX 1628   6.199   1.972   3.587 -0.1933  0.0928  0.3562
 1629PRX     CX 1629   3.164   2.313   4.776 -0.1684  0.1388 -0.3150
 1630PRX     CX 1630   3.628   0.767   5.366 -0.0618  0.2252 -0.3418
 1631PRX     CX 1631   5.942   5.805   5.029 -0.0209  0.1163  0.2358
 1632PRX     CX 1632   3.006   2.045   5.525 -0.3305 -0.2295 -0.2971
 1633PRX     CX 1633   0.306   4.472   6.095 -0.0461 -0.0932 -0.1813
 1634PRX     CX 1634   3.153   5.222   3.986 -0.0488 -0.1254  0.1941
 1635PRX     CX 1635   5.465   4.618   0.026  0.1512 -0.3085 -0.2319
 1636PRX     CX 1636   1.090   1.449   4.132  0.0146  0.0709 -0.1016
 1637PRX     CX 1637   1.154   3.688   3.609 -0.3464 -0.0868 -0.1568
 1638PRX     CX 1638   5.427   0.878   2.940 -0.0907 -0.0938 -0.3390
 1639PRX     CX 1639   4.262   4.157   0.558  0.1257  0.1446  0.0831
 1640PRX     CX 1640   1.446   1.782   5.369  0.2588  0.1102 -0.3299
 1641PRX     CX 1641   4.594   4.634   3.128  0.1342 -0.3985  0.0643
 1642PRX     CX 1642   2.315   5.639   6.145 -0.1685 -0.0330 -0.0047
 1643PRX     CX 1643   0.687   2.883   0.523 -0.1727  0.1160 -0.0893
 1644PRX     CX 1644   3.063   0.029   6.434  0.0822  0.1153 -0.0635
 1645PRX     CX 1645   2.976   6.614   1.567  0.2379 -0.1715 -0.1248
 1646PRX     CX 1646   0.546   1.446   1.201 -0.0887 -0.1251  0.0205
 1647PRX     CX 1647   0.999   4.970   5.609 -0.2241  0.1249 -0.3841
 1648PRX     CX 1648   5.822   6.315   1.919  0.0179  0.2795  0.2243
 1649PRX     CX 1649   1.364   2.289   5.501  0.1362  0.2172 -0.0539
 1650PRX     CX 1650   5.884   4.170   0.928 -0.1767  0.0266 -0.1814
 1651PRX     CX 1651   6.136   5.493   1.117 -0.2037  0.0487 -0.0937
 1652PRX     CX 1652   1.552   1.547   2.706 -0.0552 -0.0073 -0.0395
 1653PRX     CX 1653   4.314   2.606   3.524  0.2291  0.2666 -0.1462
 1654PRX     CX 1654   1.053   5.708   4.295 -0.3613 -0.0041  0.0177
 1655PRX     CX 1655   3.618   4.591   5.193  0.0470 -0.0690 -0.0395
 1656PRX     CX 1656   5.974   1.049   1.510 -0.3850  0.1452 -0.2990
 1657PRX     CX 1657   4.346   0.083   5.547 -0.3319  0.1150  0.1201
 1658PRX     CX 1658   6.456   5.149   0.817  0.0839 -0.1028  0.0642
 1659PRX     CX 1659   3.705   5.641   5.053  0.1797 -0.0387 -0.1442
 1660PRX     CX 1660   2.823   5.655   3.482  0.1085  0.0826 -0.0895
 1661PRX     CX 1661   4.230   0.336   2.124  0.0586 -0.0672 -0.1173
 1662PRX     CX 1662   2.347   1.436   1.811  0.2800 -0.2697 -0.0468
 1663PRX     CX 1663   1.529   5.350   2.386 -0.1526  0.0054 -0.1227
 1664PRX     CX 1664   1.391   2.492   3.909  0.1739  0.0525  0.0313
 1665PRX     CX 1665   0.452   6.080   3.616 -0.2018 -0.1745  0.4449
 1666PRX     CX 1666   5.564   2.198   1.764  0.0764 -0.0162  0.0280
 1667PRX     CX 1667   5.307   0.465   4.827 -0.1074 -0.1559  0.2421
 1668PRX     CX 1668   2.128   4.527   4.293  0.1722 -0.1360 -0.1197
 1669PRX     CX 1669   5.777   0.012   3.582 -0.1148  0.3454 -0.1793
 1670PRX     CX 1670   0.050   6.377   6.579 -0.0395 -0.1084  0.2886
 1671PRX     CX 1671   6.505   2.897   3.991 -0.2442  0.1392  0.1994
 1672PRX     CX 1672   6.260   5.682   5.514  0.5339 -0.1809  0.1239
 1673PRX     CX 1673   2.227   2.590   4.973  0.0458 -0.1429  0.1831
 1674PRX     CX 1674   3.821   5.703   0.835  0.1708  0.0707 -0.1498
 1675PRX     CX 1675   0.791   4.685   4.410  0.0477 -0.0061 -0.0241
 1676PRX     CX 1676   6.252   1.124   0.223  0.3475 -0.2860  0.2321
 1677PRX     CX 1677   0.721   5.350   0.650 -0.0932  0.1569 -0.2338
 1678PRX     CX 1678   6.311   4.487   4.203  0.1237  0.1525  0.3656
 1679PRX     CX 1679   1.014   5.015   1.045 -0.2816 -0.1187  0.4569
 1680PRX     CX 1680   1.370   3.231   0.476 -0.0846 -0.2146  0.2873
 1681PRX     CX 1681   2.757   6.011   5.527 -0.1710 -0.0716  0.2191
 1682PRX     CX 1682   4.038   4.855   1.890 -0.0929  0.1173  0.1263
 1683PRX     CX 1683   3.577   3.895   3.223  0.2588 -0.2298  0.0213
 1684PRX     CX 1684   3.957   4.897   4.419 -0.0644  0.1661  0.1859
 1685PRX     CX 1685   6.171   2.265   3.053  0.2360 -0.0142  0.0212
 1686PRX     CX 1686   0.232   0.527   5.020  0.0920 -0.0848  0.1777
 1687PRX     CX 1687   2.743   3.970   0.412  0.0281  0.0600  0.1965
 1688PRX     CX 1688   1.468   1.476   0.104 -0.0947  0.1770  0.0781
 1689PRX     CX 1689   2.959   0.826   4.050 -0.2128  0.1375  0.0128
 1690PRX     CX 1690   4.601   6.546   0.849  0.0236  0.0338 -0.3500
 1691PRX     CX 1691   2.786   2.989   0.312  0.0464  0.0439 -0.2431
 1692PRX     CX 1692   4.241   4.235   4.687  0.1413 -0.1356 -0.2556
 1693PRX     CX 1693   3.404   3.917   5.754 -0.1030  0.2024  0.0865
 1694PRX     CX 1694   0.896   6.599   2.653 -0.6179 -0.3176 -0.0620
 1695PRX     CX 1695   6.559   5.830   1.281 -0.1895 -0.0562 -0.1297
 1696PRX     CX 1696   3.557   0.859   2.253  0.2239 -0.0769 -0.1164
 1697PRX     CX 1697   1.695   4.259   4.233 -0.1286 -0.1017  0.3750
 1698PRX     CX 1698   3.269   0.418   5.229 -0.0654 -0.1035  0.3663
 1699PRX     CX 1699   4.108   5.667   4.703 -0.0491 -0.2521 -0.0476
 1700PRX     CX 1700   6.399   0.604   0.818  0.2288 -0.0400 -0.0180
 1701PRX     CX 1701   2.450   4.467   6.608 -0.1997 -0.1665  0.0583
 1702PRX     CX 1702   6.516   0.971   1.261  0.0818  0.3022 -0.2123
 1703PRX     CX 1703   5.004   4.303   1.989  0.0033 -0.1469  0.1293
 1704PRX     CX 1704   6.188   5.556   2.179  0.0028  0.1086 -0.3782
 1705PRX     CX 1705   2.489   5.736   1.287  0.2178  0.1551  0.3482
 1706PRX     CX 1706   4.844   3.374   4.825 -0.0121  0.4647 -0.0677
 1707PRX     CX 1707   4.956   1.754   4.853 -0.0469 -0.3704 -0.1472
 1708PRX     CX 1708   2.517   5.689   5.106 -0.1749 -0.1178 -0.1804
 1709PRX     CX 1709   1.936   1.053   5.171 -0.0158  0.0168  0.0601
 1710PRX     CX 1710   5.205   2.142   5.006 -0.0558 -0.1544 -0.0684
 1711PRX     CX 1711   4.637   2.938   4.807 -0.1634 -0.0148 -0.1611
 1712PRX     CX 1712   3.224   5.364   3.087  0.2575 -0.2111  0.0629
 1713PRX     CX 1713   0.752   6.090   4.707  0.0042  0.0966 -0.1224
 1714PRX     CX 1714   0.250   5.461   1.525 -0.0095 -0.5618  0.0755
 1715PRX     CX 1715   4.688   2.445   2.278  0.3460 -0.1580 -0.0934
 1716PRX     CX 1716   3.893   1.940   0.093  0.2089  0.1102 -0.0743
 1717PRX     CX 1717   3.424   6.232   0.216  0.1861 -0.1720 -0.1079
 1718PRX     CX 1718   5.390   6.136   1.641  0.0130  0.0933  0.1838
 1719PRX     CX 1719   5.420   1.773   0.275  0.1529 -0.0053  0.1043
 1720PRX     CX 1720   1.603   1.845   0.456 -0.1519  0.1819  0.0410
 1721PRX     CX 1721   6.455   5.495   3.452 -0.0363 -0.0901 -0.0878
 1722PRX     CX 1722   1.831   5.569   2.735  0.2282  0.1364  0.1524
 1723PRX     CX 1723   3.992   3.757   0.696  0.0495 -0.0753 -0.0187
 1724PRX     CX 1724   1.666   0.125   0.261  0.0149  0.0792 -0.0567
 1725PRX     CX 1725   2.253   6.015   1.996  0.3417 -0.1625 -0.2101
 1726PRX     CX 1726   0.221   5.718   1.959 -0.0881  0.1744 -0.2834
 1727PRX     CX 1727   5.891   3.561   3.692 -0.2533 -0.2807 -0.0146
 1728PRX     CX 1728   4.150   0.420   3.022  0.1181 -0.1104  0.1391
 1729PRX     CX 1729   5.084   0.207   1.659 -0.1823 -0.2481 -0.2558
 1730PRX     CX 1730   4.458   2.315   1.211  0.0950  0.0066  0.1235
 1731PRX     CX 1731   3.263   6.460   3.173  0.0681  0.1343 -0.0206
 1732PRX     CX 1732   1.224   5.240   0.672  0.0359  0.0533  0.1908
 1733PRX     CX 1733   6.237   4.764   6.102  0.1774  0.1016  0.1369
 1734PRX     CX 1734   5.692   1.334   1.130 -0.1925  0.0771  0.3048
 1735PRX     CX 1735   2.356   3.226   1.586 -0.1130  0.1848 -0.0178
 1736PRX     CX 1736   0.450   1.619   2.512 -0.0133  0.0689 -0.1494
 1737PRX     CX 1737   6.602   5.398   6.488  0.2766  0.1824 -0.2724
 1738PRX     CX 1738   3.734   5.425   6.346 -0.0694  0.2512 -0.2664
 1739PRX     CX 1739   4.013   2.656   1.150  0.2761  0.0596 -0.0492
 1740PRX     CX 1740   2.590   1.939   5.304  0.0878 -0.2617 -0.2447
 1741PRX     CX 1741   0.903   6.376   5.234 -0.0377  0.0339  0.1282
 1742PRX     CX 1742   6.058   0.634   2.871 -0.0657 -0.2008  0.0210
 1743PRX     CX 1743   4.692   0.435   0.025 -0.0269 -0.2320 -0.0417
 1744PRX     CX 1744   1.208   3.020   2.809  0.1567 -0.3120 -0.0719
 1745PRX     CX 1745   0.251   2.316   0.190  0.2438  0.1888 -0.0172
 1746PRX     CX 1746   1.729   2.482   1.512 -0.0416 -0.2682 -0.0655
 1747PRX     CX 1747   5.813   5.177   5.395  0.1864  0.2391 -0.0905
 1748PRX     CX 1748   2.755   4.866   5.618 -0.1106 -0.2350 -0.2806
 1749PRX     CX 1749   3.961   1.056   5.799  0.1428  0.1146  0.3684
 1750PRX     CX 1750   3.886   5.870   2.031 -0.1058  0.1109  0.0931
 1751PRX     CX 1751   5.561   5.587   3.722 -0.1012  0.2290  0.0408
 1752PRX     CX 1752   2.986   3.224   1.703  0.0247 -0.3181 -0.0380
 1753PRX     CX 1753   3.061   4.176   3.122 -0.0924  0.1485 -0.0485
 1754PRX     CX 1754   2.864   6.525   0.309 -0.0252 -0.2130 -0.2914
 1755PRX     CX 1755   5.280   1.390   4.576 -0.1138 -0.1311 -0.1121
 1756PRX     CX 1756   0.146   4.873   5.265  0.2147 -0.2720  0.0072
 1757PRX     CX 1757   1.488   1.859   6.328 -0.2351  0.0579 -0.0551
 1758PRX     CX 1758   0.304   1.458   0.541  0.0676 -0.1784 -0.1943
 1759PRX     CX 1759   4.920   5.933   1.871  0.0511 -0.1716  0.0667
 1760PRX     CX 1760   4.382   4.081   6.252  0.0675  0.3653  0.3518
 1761PRX     CX 1761   6.096   4.784   5.593  0.2230 -0.1368 -0.1277
 1762PRX     CX 1762   4.271   2.388   1.987 -0.0448  0.0910  0.2523
 1763PRX     CX 1763   5.186   0.780   2.459  0.3994  0.0735  0.1059
 1764PRX     CX 1764   2.497   1.637   2.768  0.1573 -0.0123  0.0974
 1765PRX     CX 1765   2.202   3.420   4.434  0.1154  0.1623 -0.1252
 1766PRX     CX 1766   0.766   5.733   3.860  0.0222  0.0841 -0.1492
 1767PRX     CX 1767   4.267   0.932   6.180 -0.2509  0.1444 -0.2767
 1768PRX     CX 1768   5.750   5.864   2.048  0.3320  0.0125 -0.0660
 1769PRX     CX 1769   6.440   1.251   3.960  0.1644  0.0310  0.4198
 1770PRX     CX 1770   1.284   0.257   4.181 -0.3111  0.0109 -0.2117
 1771PRX     CX 1771   0.017   1.104   5.107 -0.0446 -0.2155 -0.1098
 1772PRX     CX 1772   4.766   0.161   4.209  0.1595  0.0080  0.0130
 1773PRX     CX 1773   5.518   1.990   5.428 -0.1174  0.0113 -0.2800
 1774PRX     CX 1774   0.219   4.056   5.766  0.0325  0.1856  0.2581
 1775PRX     CX 1775   6.015   2.280   2.598  0.0604  0.0625 -0.0780
 1776PRX     CX 1776   5.802   2.503   2.179  0.1220  0.0422  0.0393
 1777PRX     CX 1777   2.988   2.358   3.912  0.0939 -0.2536  0.1603
 1778PRX     CX 1778   5.167   3.471   1.978  0.0408 -0.0180 -0.0778
 1779PRX     CX 1779   3.083   0.589   0.453 -0.0380  0.1593  0.2088
 1780PRX     CX 1780   2.051   5.181   6.343 -0.0581 -0.0347  0.0490
 1781PRX     CX 1781   1.755   1.370   1.745  0.2307  0.0083  0.1945
 1782PRX     CX 1782   0.485   6.030   5.382 -0.1735  0.3075 -0.2235
 1783PRX     CX 1783   3.530   0.556   6.580  0.0094 -0.0102  0.4481
 1784PRX     CX 1784   4.432   4.607   2.462  0.0250 -0.0165  0.1708
 1785PRX     CX 1785   6.426   4.857   2.879  0.0572  0.3913 -0.0023
 1786PRX     CX 1786   4.147   2.885   5.672  0.0358 -0.2174  0.2155
 1787PRX     CX 1787   2.900   0.471   4.923  0.0466 -0.1812 -0.0052
 1788PRX     CX 1788   2.753   5.244   5.269 -0.0624 -0.2761 -0.0533
 1789PRX     CX 1789   1.242   3.047   5.722  0.1071  0.1184 -0.0333
 1790PRX     CX 1790   0.124   3.886   1.946  0.0592  0.1005 -0.0917
 1791PRX     CX 1791   0.262   1.204   3.623 -0.0103 -0.1066 -0.0641
 1792PRX     CX 1792   4.383   1.888   0.988 -0.1655 -0.0330 -0.3765
 1793PRX     CX 1793   1.189   2.705   5.322  0.0007  0.1261  0.1136
 1794PRX     CX 1794   1.333   5.494   1.944  0.0122  0.0794 -0.0754
 1795PRX     CX 1795   2.208   3.903   5.702 -0.2333 -0.1014 -0.0043
 1796PRX     CX 1796   3.901   2.749   4.950 -0.0048 -0.1209  0.1773
 1797PRX     CX 1797   3.464   4.812   4.684  0.0314 -0.4787  0.0074
 1798PRX     CX 1798   5.807   0.399   4.074  0.0119  0.1904  0.2909
 1799PRX     CX 1799   4.240   3.680   4.128 -0.0324  0.1022 -0.4080
 1800PRX     CX 1800   5.434   3.071   2.214  0.0709  0.1736 -0.1569
 1801PRX     CX 1801   3.627   2.102   3.786  0.3970  0.0399 -0.2073
 1802PRX     CX 1802   2.744   2.647   3.017 -0.0658 -0.1702 -0.1930
 1803PRX     CX 1803   1.052   4.893   3.373 -0.2749  0.3327 -0.0670
 1804PRX     CX 1804   0.067   3.737   0.794 -0.1223  0.0410 -0.3235
 1805PRX     CX 1805   2.291   2.938   4.085  0.0003  0.0873  0.1488
 1806PRX     CX 1806   2.132   4.393   6.210 -0.0807  0.0269  0.0938
 1807PRX     CX 1807   0.572   2.329   2.580  0.0009 -0.0592 -0.0933
 1808PRX     CX 1808   5.583   0.276   6.372  0.1982  0.1751  0.0014
 1809PRX     CX 1809   5.288   5.477   1.882 -0.4987  0.0639  0.1627
 1810PRX     CX 1810   1.279   5.305   4.728 -0.1219 -0.2081  0.0144
 1811PRX     CX 1811   3.838   6.286   6.300  0.2813  0.0614  0.0600
 1812PRX     CX 1812   2.970   3.908   1.517  0.2174 -0.2112 -0.2358
 1813PRX     CX 1813   4.754   4.906   5.100  0.0706  0.2372  0.2424
 1814PRX     CX 1814   4.974   4.891   5.831 -0.0522 -0.2627  0.0812
 1815PRX     CX 1815   0.550   0.924   5.155 -0.1659  0.1117 -0.0085
 1816PRX     CX 1816   5.903   6.363   5.045  0.0126 -0.0818  0.3507
 1817PRX     CX 1817   2.702   6.255   1.257  0.0887 -0.2057  0.0950
 1818PRX     CX 1818   2.358   6.037   0.855 -0.0375 -0.0509  0.1778
 1819PRX     CX 1819   0.769   4.047   4.515 -0.1651  0.0251 -0.2362
 1820PRX     CX 1820   0.413   3.985   2.670 -0.0892 -0.2031 -0.0638
 1821PRX     CX 1821   4.562   3.626   3.765 -0.4852 -0.0500  0.0280
 1822PRX     CX 1822   2.537   3.404   3.974 -0.0685 -0.0090 -0.0756
 1823PRX     CX 1823   1.674   2.871   1.866  0.1037  0.0988  0.2402
 1824PRX     CX 1824   3.012   6.087   1.953  0.0214  0.3555  0.1246
 1825PRX     CX 1825   2.283   3.278   5.472 -0.1070 -0.2123  0.1734
 1826PRX     CX 1826   0.003   0.114   2.877  0.1894 -0.0667 -0.0359
 1827PRX     CX 1827   3.170   2.003   3.539  0.0582 -0.0824 -0.0391
 1828PRX     CX 1828   4.740   0.930   4.190  0.1487  0.2732 -0.1246
 1829PRX     CX 1829   6.598   3.309   4.655  0.0094  0.1100 -0.2079
 1830PRX     CX 1830   4.582   3.571   3.262  0.1911 -0.0659 -0.1165
 1831PRX     CX 1831   5.333   2.936   2.758  0.1194  0.2327 -0.1958
 1832PRX     CX 1832   1.500   5.969   6.554  0.0310 -0.0846  0.0839
 1833PRX     CX 1833   4.625   0.555   4.750 -0.3370 -0.3618 -0.0059
 1834PRX     CX 1834   1.685   1.897   4.953  0.1921 -0.0659  0.0204
 1835PRX     CX 1835   0.890   4.120   3.551 -0.1919 -0.0809 -0.3061
 1836PRX     CX 1836   0.677   1.769   6.095 -0.0257 -0.0461  0.1216
 1837PRX     CX 1837   2.895   6.218   6.426 -0.0865  0.1871 -0.0610
 1838PRX     CX 1838   1.509   3.087   3.768 -0.0196  0.2103 -0.0040
 1839PRX     CX 1839   1.827   6.575   1.560  0.1553  0.0385 -0.1116
 1840PRX     CX 1840   5.168   5.187   0.397  0.0857  0.1100  0.0788
 1841PRX     CX 1841   5.932   6.445   0.243  0.1376  0.0685  0.1898
 1842PRX     CX 1842   6.291   2.006   1.073 -0.0213 -0.1551 -0.1482
 1843PRX     CX 1843   5.195   3.937   5.977  0.1817 -0.1561 -0.1036
 1844PRX     CX 1844   0.969   0.309   1.290 -0.3231 -0.1412 -0.4827
 1845PRX     CX 1845   5.875   6.438   0.735 -0.0758  0.0452 -0.2108
 1846PRX     CX 1846   6.241   6.290   5.416  0.4121  0.2396  0.4558
 1847PRX     CX 1847   4.858   0.472   3.792 -0.0367 -0.1861 -0.0312
 1848PRX     CX 1848   2.035   6.087   3.385 -0.1528  0.1233 -0.0681
 1849PRX     CX 1849   4.427   1.118   0.159 -0.2282  0.0560 -0.2148
 1850PRX     CX 1850   1.022   4.493   1.007 -0.0999 -0.0140 -0.0630
 1851PRX     CX 1851   1.565   1.130   1.343  0.1355  0.0156 -0.1776
 1852PRX     CX 1852   1.151   4.878   2.865  0.0988 -0.1796 -0.4358
 1853PRX     CX 1853   0.844   0.167   6.363  0.0034  0.0283 -0.0078
 1854PRX     CX 1854   5.792   5.180   2.308 -0.0501 -0.1479 -0.1433
 1855PRX     CX 1855   5.105   5.693   4.720  0.0393 -0.0786  0.0196
 1856PRX     CX 1856   4.668   6.215   4.376 -0.0509  0.2501  0.0352
 1857PRX     CX 1857   3.624   4.492   1.266 -0.2431 -0.0838  0.2845
 1858PRX     CX 1858   4.859   2.687   0.519 -0.0604  0.1589 -0.1185
 1859PRX     CX 1859   5.310   1.837   2.122 -0.1972  0.0866  0.2976
 1860PRX     CX 1860   6.563   2.255   1.682 -0.2992  0.0839 -0.0812
 1861PRX     CX 1861   1.292   1.544   1.688  0.0084  0.1945 -0.0731
 1862PRX     CX 1862   3.558   3.151   4.384 -0.3365 -0.0191 -0.3381
 1863PRX     CX 1863   3.368   0.183   5.626 -0.1808  0.1425  0.0139
 1864PRX     CX 1864   0.652   1.914   1.323  0.1354  0.0895  0.0520
 1865PRX     CX 1865   0.588   4.720   5.159 -0.2236  0.0237  0.2281
 1866PRX     CX 1866   5.521   0.369   5.523 -0.0733 -0.1263 -0.1191
 1867PRX     CX 1867   5.633   3.404   4.116 -0.0594 -0.1394 -0.1214
 1868PRX     CX 1868   6.260   4.189   1.389 -0.1266 -0.0305 -0.0708
 1869PRX     CX 1869   3.083   1.823   0.729 -0.1046 -0.1057 -0.0981
 1870PRX     CX 1870   0.621   5.188   0.121  0.0328  0.4964 -0.1754
 1871PRX     CX 1871   2.292   1.647   0.935  0.0320  0.0025 -0.1174
 1872PRX     CX 1872   5.849   6.584   5.616  0.0234 -0.0122 -0.1876
 1873PRX     CX 1873   0.310   5.837   4.919  0.0855 -0.3107  0.0493
 1874PRX     CX 1874   5.874   1.096   2.004 -0.4639  0.1511 -0.0555
 1875PRX     CX 1875   1.154   4.462   5.692  0.2726 -0.0331 -0.4384
 1876PRX     CX 1876   1.004   2.023   5.080  0.2792 -0.0107 -0.0516
 1877PRX     CX 1877   4.058   5.773   1.505  0.0178 -0.0584 -0.0204
 1878PRX     CX 1878   0.503   2.306   5.832 -0.1965 -0.0721 -0.1771
 1879PRX     CX 1879   1.519   6.519   4.964  0.2049  0.0722 -0.0327
 1880PRX     CX 1880   3.830   3.222   4.887 -0.2531 -0.1729  0.0459
 1881PRX     CX 1881   6.234   2.461   5.271  0.1113 -0.1714 -0.1687
 1882PRX     CX 1882   3.640   1.746   3.330 -0.0708 -0.0543  0.1723
 1883PRX     CX 1883   4.202   5.039   3.927 -0.0654  0.1164 -0.0409
 1884PRX     CX 1884   3.227   4.939   5.511  0.2180  0.1083  0.1100
 1885PRX     CX 1885   6.182   4.419   3.180 -0.0126  0.1054 -0.0598
 1886PRX     CX 1886   5.622   4.194   4.763 -0.0071 -0.0519  0.1008
 1887PRX     CX 1887   3.387   3.320   2.485  0.3798 -0.0257  0.2626
 1888PRX     CX 1888   4.095   3.324   6.024  0.2827  0.1546 -0.2273
 1889PRX     CX 1889   4.155   3.017   0.122  0.1091  0.0013 -0.3766
 1890PRX     CX 1890   0.159   5.232   5.894  0.3878 -0.1205  0.1311
 1891PRX     CX 1891   6.034   3.049   1.854  0.0711 -0.2649  0.1137
 1892PRX     CX 1892   3.012   0.178   4.470  0.2042  0.3246  0.0653
 1893PRX     CX 1893   0.214   3.191   4.221 -0.0863  0.0579  0.0723
 1894PRX     CX 1894   4.651   2.789   0.981 -0.0834 -0.1472 -0.1924
 1895PRX     CX 1895   3.767   0.898   0.498 -0.3974 -0.1001 -0.2168
 1896PRX     CX 1896   0.430   6.545   5.771  0.2226 -0.3070 -0.1803
 1897PRX     CX 1897   2.912   3.474   5.272 -0.0737  0.2062 -0.2464
 1898PRX     CX 1898   3.744   3.624   2.852  0.0351  0.3158 -0.0024
 1899PRX     CX 1899   5.489   5.933   4.014  0.0036 -0.0046  0.0662
 1900PRX     CX 1900   4.292   0.919   3.040  0.0019 -0.2946 -0.1983
 1901PRX     CX 1901   3.426   3.008   5.602 -0.1631  0.2199 -0.0619
 1902PRX     CX 1902   4.293   0.147   6.539 -0.1986  0.2679  0.1771
 1903PRX     CX 1903   3.762   2.586   5.464  0.0162 -0.0522 -0.3182
 1904PRX     CX 1904   1.289   4.231   2.482 -0.0837 -0.1813  0.0376
 1905PRX     CX 1905   0.164   4.427   5.085  0.3089 -0.0109 -0.0246
 1906PRX     CX 1906   4.374   3.342   5.011  0.1187 -0.0151 -0.2660
 1907PRX     CX 1907   3.155   4.643   3.168  0.1577 -0.2910 -0.1883
 1908PRX     CX 1908   1.182   6.026   6.085  0.2264  0.2625 -0.0042
 1909PRX     CX 1909   5.407   0.797   5.285 -0.0219  0.1499 -0.1332
 1910PRX     CX 1910   4.630   0.747   2.674 -0.0488 -0.3174  0.1712
 1911PRX     CX 1911   0.282   0.207   2.379 -0.0097  0.0484 -0.0629
 1912PRX     CX 1912   4.223   5.018   2.754  0.0561 -0.2441 -0.0148
 1913PRX     CX 1913   4.676   3.380   1.156  0.0571 -0.1728  0.0677
 1914PRX     CX 1914   1.575   2.337   3.332  0.1591 -0.2049  0.0612
 1915PRX     CX 1915   5.448   5.161   5.846 -0.0727  0.0943 -0.1067
 1916PRX     CX 1916   6.603   5.876   6.568  0.1644 -0.3652  0.0004
 1917PRX     CX 1917   1.878   0.711   4.814  0.2594  0.1658 -0.0404
 1918PRX     CX 1918   2.759   0.286   1.259 -0.1392 -0.0137  0.2207
 1919PRX     CX 1919   4.015   3.106   0.649 -0.0434 -0.2410  0.0104
 1920PRX     CX 1920   2.422   1.625   3.649  0.0503  0.0943  0.0613
 1921PRX     CX 1921   5.356   5.781   6.123  0.2616  0.0519  0.3327
 1922PRX     CX 1922   2.216   3.337   0.368  0.1679 -0.1561 -0.1679
 1923PRX     CX 1923   1.623   2.951   3.158  0.2181 -0.0891  0.3072
 1924PRX     CX 1924   5.992   2.802   1.197 -0.0186 -0.3679 -0.0048
 1925PRX     CX 1925   5.205   1.272   0.172  0.0320 -0.1525  0.1284
 1926PRX     CX 1926   4.436   3.207   6.378 -0.1144 -0.0777  0.0637
 1927PRX     CX 1927   0.727   2.926   3.359  0.0861  0.1481  0.0464
 1928PRX     CX 1928   2.285   2.303   5.575  0.1050 -0.0187  0.0660
 1929PRX     CX 1929   1.843   4.782   6.489 -0.2684 -0.0517 -0.1150
 1930PRX     CX 1930   1.991   1.414   2.272 -0.0451  0.3706  0.0261
 1931PRX     CX 1931   5.488   3.688   6.508 -0.1391  0.1696 -0.2628
 1932PRX     CX 1932   1.854   1.100   0.640  0.3219  0.4426 -0.3764
 1933PRX     CX 1933   3.422   5.396   5.568  0.2456 -0.0370  0.0124
 1934PRX     CX 1934   3.778   4.131   0.322  0.0053 -0.2570 -0.0020
 1935PRX     CX 1935   1.108   4.746   5.187 -0.0330  0.0553  0.0912
 1936PRX     CX 1936   3.517   6.617   2.356  0.1531  0.0777 -0.3872
 1937PRX     CX 1937   0.652   1.969   2.173 -0.2591  0.1344  0.0815
 1938PRX     CX 1938   5.467   6.012   5.063 -0.1780 -0.2535 -0.0011
 1939PRX     CX 1939   5.066   2.838   5.644 -0.1297  0.0961  0.0666
 1940PRX     CX 1940   4.261   0.691   6.616  0.4147  0.2601 -0.0478
 1941PRX     CX 1941   1.299   3.186   4.276  0.0938 -0.0724  0.1997
 1942PRX     CX 1942   4.797   6.608   3.701 -0.1199 -0.1022  0.0938
 1943PRX     CX 1943   0.541   4.325   3.144 -0.1297  0.3297 -0.0051
 1944PRX     CX 1944   6.217   1.334   1.181  0.0573 -0.2575  0.0050
 1945PRX     CX 1945   2.424   2.369   3.286 -0.0438  0.2871  0.1267
 1946PRX     CX 1946   2.391   6.226   0.360 -0.2187  0.1338  0.1662
 1947PRX     CX 1947   1.056   1.392   4.590  0.1458 -0.1608 -0.2304
 1948PRX     CX 1948   5.034   2.494   1.225  0.0134  0.0186  0.1441
 1949PRX     CX 1949   6.435   6.042   5.031  0.1511  0.2787 -0.3465
 1950PRX     CX 1950   0.278   1.394   4.691  0.0557 -0.3117 -0.2498
 1951PRX     CX 1951   0.076   2.399   3.815  0.0875 -0.0523 -0.0782
 1952PRX     CX 1952   3.823   5.256   2.823  0.1079 -0.0173 -0.0739
 1953PRX     CX 1953   0.736   2.871   6.608 -0.1567 -0.1233 -0.1905
 1954PRX     CX 1954   1.999   6.414   0.071  0.1987 -0.2077  0.4765
 1955PRX     CX 1955   6.344   1.852   5.438  0.0198 -0.1186  0.0922
 1956PRX     CX 1956   4.445   4.587   5.950  0.0932 -0.0357  0.1985
 1957PRX     CX 1957   6.337   0.693   1.848 -0.0420 -0.2640 -0.0458
 1958PRX     CX 1958   4.451   1.154   4.885  0.1610 -0.0674 -0.2143
 1959PRX     CX 1959   0.581   0.093   3.540  0.4671 -0.0705  0.2405
 1960PRX     CX 1960   4.317   5.658   1.084 -0.3946 -0.0145  0.2059
 1961PRX     CX 1961   2.303   0.878   0.102 -0.0789  0.0699 -0.1621
 1962PRX     CX 1962   6.432   1.278   1.668  0.0326 -0.2832  0.2690
 1963PRX     CX 1963   5.408   3.274   3.611 -0.0912 -0.0453 -0.3266
 1964PRX     CX 1964   0.100   3.096   5.846 -0.4070 -0.3770  0.0526
 1965PRX     CX 1965   6.141   5.980   1.589 -0.0889 -0.0608 -0.0173
 1966PRX     CX 1966   0.148   2.465   3.010  0.1306  0.1670 -0.0171
 1967PRX     CX 1967   3.289   2.239   4.241 -0.0489  0.0403  0.1760
 1968PRX     CX 1968   4.372   0.236   0.434 -0.5174  0.0643 -0.0424
 1969PRX     CX 1969   4.963   1.253   4.992 -0.1292  0.0135  0.0458
 1970PRX     CX 1970   5.859   2.251   0.982  0.0941  0.0505 -0.0279
 1971PRX     CX 1971   1.263   0.232   0.059 -0.1229  0.0029  0.1402
 1972PRX     CX 1972   0.272   1.743   1.783 -0.3192  0.2689 -0.2846
 1973PRX     CX 1973   4.817   3.184   4.279 -0.0260  0.1482 -0.2474
 1974PRX     CX 1974   0.586   1.202   2.279 -0.1733  0.1100 -0.0588
 1975PRX     CX 1975   0.539   0.260   5.307  0.2172  0.0844 -0.2094
 1976PRX     CX 1976   0.913   4.011   2.916 -0.0627 -0.0833  0.0635
 1977PRX     CX 1977   3.830   0.555   4.077 -0.1618  0.0781  0.2603
 1978PRX     CX 1978   0.377   3.643   5.326  0.1150  0.2137 -0.2081
 1979PRX     CX 1979   4.649   1.529   5.305  0.1894 -0.0400  0.2601
 1980PRX     CX 1980   1.927   5.040   2.567  0.1726  0.1813  0.1263
 1981PRX     CX 1981   5.911   5.304   3.391 -0.1677  0.1984  0.0701
 1982PRX     CX 1982   4.781   2.079   5.763 -0.1680  0.3063 -0.1264
 1983PRX     CX 1983   4.775   3.695   2.808  0.1429 -0.0493  0.0863
 1984PRX     CX 1984   4.555   1.728   1.486 -0.1951 -0.1424  0.2499
 1985PRX     CX 1985   4.898   5.044   1.698 -0.4538 -0.1412 -0.0697
 1986PRX     CX 1986   2.343   6.581   5.637 -0.0520  0.2596 -0.3737
 1987PRX     CX 1987   5.029   6.149   3.795  0.0845  0.2325  0.1150
 1988PRX     CX 1988   2.302   4.500   5.677  0.2386 -0.0967  0.0675
 1989PRX     CX 1989   0.873   6.055   1.331 -0.1559 -0.0393 -0.4011
 1990PRX     CX 1990   2.500   6.482   6.596  0.1171 -0.1928  0.0987
 1991PRX     CX 1991   6.361   3.035   5.480 -0.2221 -0.1517 -0.1906
 1992PRX     CX 1992   3.441   3.093   0.907 -0.0621  0.0265  0.0920
 1993PRX     CX 1993   1.800   3.084   1.486  0.1342 -0.1046  0.0705
 1994PRX     CX 1994   3.526   5.299   4.510  0.3279  0.2902  0.0676
 1995PRX     CX 1995   3.774   3.285   0.112  0.3411  0.3687  0.3214
 1996PRX     CX 1996   4.993   1.404   6.302 -0.1264  0.2639  0.0152
 1997PRX     CX 1997   5.278   4.215   2.459 -0.0078  0.0767 -0.2351
 1998PRX     CX 1998   3.490   3.162   1.415  0.0270 -0.2709 -0.0106
 1999PRX     CX 1999   4.941   3.093   6.451  0.1991  0.0993  0.2037
 2000PRX     CX 2000   6.136   0.965   5.076 -0.2554 -0.1328  0.3634
 2001PRX     CX 2001   3.969   3.755   4.553 -0.2349  0.0517 -0.3058
 2002PRX     CX 2002   5.062   3.459   5.718 -0.1027  0.1756 -0.0156
 2003PRX     CX 2003   6.366   5.172   0.320  0.0844  0.2234 -0.0293
 2004PRX     CX 2004   6.100   6.018   3.945  0.0879 -0.2612 -0.1431
 2005PRX     CX 2005   0.790   6.413   0.749 -0.0479  0.1427 -0.0868
 2006PRX     CX 2006   5.447   0.024   0.206  0.0898  0.0544  0.0236
 2007PRX     CX 2007   1.971   5.622   2.212 -0.3597  0.0115 -0.1860
 2008PRX     CX 2008   0.547   3.672   3.220 -0.1120 -0.3309 -0.0893
 2009PRX     CX 2009   0.893   3.304   4.571  0.1192  0.0353  0.2987
 2010PRX     CX 2010   0.675   1.300   5.551 -0.2499 -0.0118  0.1742
 2011PRX     CX 2011   2.309   5.495   0.800 -0.0278  0.0321 -0.1161
 2012PRX     CX 2012   3.175   2.271   2.958 -0.0715  0.0063  0.0490
 2013PRX     CX 2013   4.873   6.354   1.539 -0.2581  0.1646  0.0376
 2014PRX     CX 2014   2.901   1.743   0.027 -0.4687  0.2680  0.3039
 2015PRX     CX 2015   5.638   6.569   4.077  0.2061  0.0911  0.0580
 2016PRX     CX 2016   1.193   4.918   1.567 -0.2660 -0.3154 -0.0523
 2017PRX     CX 2017   6.499   2.612   5.971 -0.3194 -0.0194  0.0459
 2018PRX     CX 2018   0.738   4.105   1.253 -0.1762  0.1469  0.1947
 2019PRX     CX 2019   0.128   6.256   6.136  0.0111  0.0687 -0.2181
 2020PRX     CX 2020   1.991   0.913   2.230 -0.0628 -0.0226 -0.0792
 2021PRX     CX 2021   0.011   3.567   3.870 -0.0131 -0.0732 -0.1897
 2022PRX     CX 2022   1.979   3.220   3.681  0.0613  0.0787 -0.0383
 2023PRX     CX 2023   4.193   3.710   2.812 -0.2746  0.0789 -0.0949
 2024PRX     CX 2024   0.384   0.376   0.155  0.0541  0.0535  0.0164
 2025PRX     CX 2025   2.626   0.162   0.664  0.1437  0.0731 -0.0464
 2026PRX     CX 2026   0.893   1.185   5.973  0.0332  0.1101  0.2155
 2027PRX     CX 2027   2.170   6.449   6.212  0.0677 -0.0783  0.0429
 2028PRX     CX 2028   3.517   2.714   1.201 -0.2358  0.0275  0.1135
 2029PRX     CX 2029   1.587   6.010   3.154  0.1034  0.1291  0.3335
 2030PRX     CX 2030   5.286   2.959   6.142  0.0741 -0.0389 -0.0546
 2031PRX     CX 2031   1.359   6.342   4.533  0.0728  0.0292  0.3906
 2032PRX     CX 2032   2.521   4.336   1.816 -0.1377  0.0872  0.0951
 2033PRX     CX 2033   5.745   3.692   0.702 -0.1584  0.0192 -0.2969
 2034PRX     CX 2034   3.704   3.566   4.116 -0.0578  0.1301  0.1042
 2035PRX     CX 2035   4.954   5.876   5.321  0.1404 -0.4774  0.0653
 2036PRX     CX 2036   4.155   1.766   5.184 -0.2528  0.4232 -0.2411
 2037PRX     CX 2037   1.996   1.836   6.593  0.2610  0.0885  0.1906
 2038PRX     CX 2038   2.986   3.554   3.812  0.2937  0.1917 -0.0286
 2039PRX     CX 2039   5.413   4.873   4.350 -0.4630 -0.2677 -0.1683
 2040PRX     CX 2040   2.229   1.756   5.620  0.1745  0.1896  0.1696
 2041PRX     CX 2041   5.506   4.162   5.262  0.3917 -0.0263 -0.0222
 2042PRX     CX 2042   2.868   6.596   4.904  0.0073 -0.1816  0.2157
 2043PRX     CX 2043   2.791   6.541   3.417  0.0464  0.0770 -0.5813
 2044PRX     CX 2044   1.836   4.122   4.869  0.0483 -0.4468 -0.0179
 2045PRX     CX 2045   3.522   2.436   2.087 -0.1413 -0.1495 -0.1018
 2046PRX     CX 2046   5.359   4.649   4.756  0.2337 -0.1167  0.0626
 2047PRX     CX 2047   0.323   2.344   2.106 -0.0104 -0.0229 -0.0488
 2048PRX     CX 2048   2.535   4.893   2.524 -0.0935 -0.1500  0.0707
 2049PRX     CX 2049   3.871   3.955   3.875 -0.4077  0.0390  0.0159
 2050PRX     CX 2050   3.783   0.401   2.254  0.0084 -0.0301  0.3445
 2051PRX     CX 2051   2.874   2.780   4.783 -0.1003 -0.0279 -0.1755
 2052PRX     CX 2052   3.284   2.763   3.947 -0.2774 -0.2442 -0.0544
 2053PRX     CX 2053   2.789   6.363   5.932  0.2249  0.1853 -0.1258
 2054PRX     CX 2054   3.445   5.167   5.097  0.0305  0.1024 -0.0504
 2055PRX     CX 2055   5.527   2.973   3.269 -0.0496  0.0238  0.2305
 2056PRX     CX 2056   4.698   0.179   1.404  0.2540  0.2036 -0.0769
 2057PRX     CX 2057   5.233   4.688   1.533  0.1092  0.3327  0.0908
 2058PRX     CX 2058   5.418   3.740   2.367  0.1371  0.1915 -0.0096
 2059PRX     CX 2059   3.324   5.864   0.678  0.1403 -0.2005  0.0457
 2060PRX     CX 2060   5.269   0.759   1.874 -0.3363 -0.1096  0.3148
 2061PRX     CX 2061   0.696   0.309   5.909 -0.2074  0.0785  0.1556
 2062PRX     CX 2062   6.410   4.359   4.705 -0.1586  0.0180 -0.0937
 2063PRX     CX 2063   1.272   3.942   4.583  0.1628  0.2668  0.2701
 2064PRX     CX 2064   0.776   0.123   0.228  0.2021 -0.1089 -0.1402
 2065PRX     CX 2065   2.547   3.138   2.892  0.1967 -0.1138  0.1163
 2066PRX     CX 2066   1.840   6.135   4.288 -0.1676  0.0885 -0.1917
 2067PRX     CX 2067   0.651   1.118   0.343  0.1048 -0.1341 -0.3585
 2068PRX     CX 2068   3.916   2.900   2.052 -0.0935 -0.1941 -0.0729
 2069PRX     CX 2069   4.241   0.446   2.577 -0.0188  0.0860 -0.1124
 2070PRX     CX 2070   3.975   4.258   5.146  0.0285  0.3018 -0.3726
 2071PRX     CX 2071   2.674   5.280   1.190 -0.2544  0.0353 -0.1105
 2072PRX     CX 2072   1.369   0.735   5.564 -0.1841  0.4330  0.1183
 2073PRX     CX 2073   0.896   6.359   3.679 -0.0530 -0.0086  0.0033
 2074PRX     CX 2074   3.400   5.029   6.544  0.3654  0.3174 -0.1581
 2075PRX     CX 2075   5.308   2.511   2.067 -0.0940  0.3030 -0.0470
 2076PRX     CX 2076   6.314   5.920   5.975  0.1824 -0.0223 -0.1025
 2077PRX     CX 2077   2.049   2.970   5.158  0.0119 -0.1583  0.2078
 2078PRX     CX 2078   5.700   5.608   5.719 -0.3917 -0.1351 -0.1238
 2079PRX     CX 2079   0.873   3.677   4.921 -0.1475 -0.0141  0.1336
 2080PRX     CX 2080   5.957   5.169   5.901 -0.1043 -0.2052 -0.0013
 2081PRX     CX 2081   4.325   5.910   2.446  0.1423  0.1959  0.0580
 2082PRX     CX 2082   6.052   1.109   4.302 -0.1818  0.4995 -0.2594
 2083PRX     CX 2083   1.777   2.346   1.984  0.0092 -0.4091  0.0456
 2084PRX     CX 2084   2.715   3.050   5.694 -0.3365 -0.0313  0.1128
 2085PRX     CX 2085   6.400   1.650   0.379 -0.1175 -0.0615  0.2427
 2086PRX     CX 2086   0.099   1.144   2.796 -0.0106  0.2447  0.3726
 2087PRX     CX 2087   1.418   3.829   5.104 -0.0504  0.0694  0.0101
 2088PRX     CX 2088   6.077   1.216   5.919 -0.0262  0.0723  0.2237
 2089PRX     CX 2089   3.902   2.493   2.408 -0.4738 -0.2271 -0.1510
 2090PRX     CX 2090   3.318   1.807   0.245 -0.0148  0.1919  0.0894
 2091PRX     CX 2091   1.960   2.189   3.621 -0.0576  0.1877  0.0768
 2092PRX     CX 2092   2.420   0.743   1.930  0.0934  0.3464 -0.0679
 2093PRX     CX 2093   2.482   3.524   5.863 -0.1168  0.1234  0.1801
 2094PRX     CX 2094   3.891   3.852   6.139  0.0877 -0.0330 -0.3038
 2095PRX     CX 2095   2.181   1.911   3.145 -0.0421 -0.0250 -0.5324
 2096PRX     CX 2096   3.900   0.565   1.281 -0.0504  0.3891 -0.3840
 2097PRX     CX 2097   3.980   2.943   4.484 -0.2416 -0.0102 -0.0179
 2098PRX     CX 2098   0.955   2.274   1.104 -0.0995  0.1265  0.1410
 2099PRX     CX 2099   6.482   0.309   4.734 -0.1881 -0.1037 -0.4409
 2100PRX     CX 2100   6.210   2.130   4.587  0.0036  0.2125 -0.0582
 2101PRX     CX 2101   3.584   0.098   0.787  0.0921  0.0585  0.1045
 2102PRX     CX 2102   1.399   0.562   0.356  0.3898  0.3227  0.1982
 2103PRX     CX 2103   5.955   4.603   2.619 -0.0640  0.3177  0.0838
 2104PRX     CX 2104   6.452   3.398   1.113  0.2285 -0.1354  0.1796
 2105PRX     CX 2105   5.889   3.881   6.177  0.1304  0.0140 -0.0978
 2106PRX     CX 2106   1.017   4.515   0.049 -0.0710 -0.1211 -0.0789
 2107PRX     CX 2107   2.173   1.728   1.453  0.0726  0.1767 -0.1065
 2108PRX     CX 2108   0.712   3.342   0.331  0.4778 -0.1425 -0.0814
 2109PRX     CX 2109   0.393   6.382   2.040 -0.0715  0.0304  0.1346
 2110PRX     CX 2110   5.277   2.671   0.772  0.2033  0.0714  0.0211
 2111PRX     CX 2111   6.559   4.445   1.712  0.0383 -0.0428  0.0153
 2112PRX     CX 2112   4.994   4.028   4.003  0.2322  0.0780  0.2573
 2113PRX     CX 2113   2.296   0.986   0.877 -0.0148 -0.0488 -0.0237
 2114PRX     CX 2114   2.970   3.165   3.120 -0.2542  0.0250 -0.0869
 2115PRX     CX 2115   0.103   0.120   1.060  0.2370  0.0970 -0.2442
 2116PRX     CX 2116   3.684   4.062   4.340  0.2668  0.2100 -0.0566
 2117PRX     CX 2117   4.304   1.577   0.183 -0.1037  0.0971 -0.2031
 2118PRX     CX 2118   3.563   2.255   0.283 -0.1158 -0.1519 -0.3165
 2119PRX     CX 2119   6.616   6.334   3.857 -0.0411  0.3756  0.0164
 2120PRX     CX 2120   2.750   6.220   0.649 -0.0924 -0.1373  0.0470
 2121PRX     CX 2121   2.118   2.069   1.111  0.0444 -0.0577 -0.0514
 2122PRX     CX 2122   0.391   3.511   4.700 -0.1896 -0.0184  0.2662
 2123PRX     CX 2123   3.869   5.948   0.087  0.3715  0.2588 -0.0039
 2124PRX     CX 2124   1.412   3.707   0.716  0.0940 -0.0760  0.0154
 2125PRX     CX 2125   1.745   4.205   2.283  0.0897 -0.1533  0.0661
 2126PRX     CX 2126   6.393   4.539   5.300  0.0419 -0.0419 -0.1100
 2127PRX     CX 2127   5.058   3.634   3.420  0.1094  0.0001 -0.0322
 2128PRX     CX 2128   3.501   2.177   0.767 -0.0120  0.1735 -0.0450
 2129PRX     CX 2129   2.571   3.099   5.116 -0.1484  0.1027 -0.0890
 2130PRX     CX 2130   0.198   0.935   0.328  0.0858  0.2719  0.0916
 2131PRX     CX 2131   2.724   1.735   5.776 -0.1045  0.3937  0.1734
 2132PRX     CX 2132   1.612   2.194   0.133  0.3140  0.3301 -0.0418
 2133PRX     CX 2133   5.079   6.157   3.316 -0.1143 -0.2475 -0.0265
 2134PRX     CX 2134   3.913   4.885   5.016  0.0775 -0.3141 -0.0336
 2135PRX     CX 2135   1.191   2.434   0.358  0.1924 -0.0925 -0.0332
 2136PRX     CX 2136   2.243   2.225   0.147  0.0970 -0.0233  0.0224
 2137PRX     CX 2137   2.292   3.044   6.045 -0.0966 -0.1157  0.1278
 2138PRX     CX 2138   2.543   5.812   4.487 -0.0583  0.0651 -0.0112
 2139PRX     CX 2139   5.842   5.373   4.876  0.1201 -0.0150  0.0400
 2140PRX     CX 2140   3.873   5.171   0.502 -0.0071 -0.1302 -0.1803
 2141PRX     CX 2141   4.901   0.018   2.587  0.1706 -0.3791  0.1621
 2142PRX     CX 2142   2.806   4.551   4.608  0.1473  0.1375  0.3467
 2143PRX     CX 2143   2.629   4.362   4.189 -0.4340 -0.1568 -0.0273
 2144PRX     CX 2144   2.746   3.189   4.377  0.1561 -0.1752 -0.1280
 2145PRX     CX 2145   5.505   5.672   3.250 -0.1575  0.2235  0.1046
 2146PRX     CX 2146   0.085   1.704   0.885 -0.0079 -0.0614 -0.2078
 2147PRX     CX 2147   5.706   4.882   3.925 -0.4643 -0.2903 -0.0754
 2148PRX     CX 2148   1.846   5.858   6.108  0.2138  0.0710 -0.1035
 2149PRX     CX 2149   0.256   3.525   1.646  0.3130  0.1949  0.0511
 2150PRX     CX 2150   2.970   3.967   4.652  0.2670 -0.3150 -0.1276
 2151PRX     CX 2151   3.408   6.453   4.672  0.1174 -0.3992  0.0587
 2152PRX     CX 2152   2.510   6.099   3.499 -0.1583  0.1514  0.1539
 2153PRX     CX 2153   0.128   0.147   1.603  0.0850  0.1490  0.3123
 2154PRX     CX 2154   0.622   0.081   4.108 -0.1424  0.0481 -0.0251
 2155PRX     CX 2155   2.416   1.069   2.831  0.0149  0.1673 -0.1553
 2156PRX     CX 2156   5.706   1.191   0.119 -0.0156  0.3256 -0.2959
 2157PRX     CX 2157   2.262   4.038   0.227  0.2073 -0.0032  0.1200
 2158PRX     CX 2158   2.818   2.819   1.445 -0.1020  0.0035  0.2654
 2159PRX     CX 2159   6.273   0.248   3.839 -0.3740  0.4661  0.1957
 2160PRX     CX 2160   0.734   5.551   1.090 -0.0225 -0.1131 -0.3617
 2161PRX     CX 2161   4.442   3.142   3.981  0.0182  0.1382 -0.2011
 2162PRX     CX 2162   2.851   4.848   1.637  0.1657 -0.0730  0.1307
 2163PRX     CX 2163   1.971   0.674   0.422  0.2653  0.1952 -0.0757
 2164PRX     CX 2164   0.749   3.290   2.971 -0.0953  0.1232  0.2439
 2165PRX     CX 2165   4.814   2.719   2.618  0.2629 -0.0419  0.1408
 2166PRX     CX 2166   0.316   4.967   1.649 -0.2874 -0.0219  0.1688
 2167PRX     CX 2167   5.882   5.617   4.153  0.1963  0.1538 -0.2829
 2168PRX     CX 2168   0.171   2.685   1.591 -0.0413 -0.1797  0.0380
 2169PRX     CX 2169   4.169   5.084   3.335  0.4822 -0.0433 -0.4150
 2170PRX     CX 2170   5.922   1.958   4.162 -0.0009  0.1377 -0.0584
 2171PRX     CX 2171   1.916   5.201   1.744  0.2957 -0.0340  0.0717
 2172PRX     CX 2172   4.907   3.888   2.267 -0.1234  0.3145  0.0387
 2173PRX     CX 2173   4.350   6.305   0.266 -0.1460  0.3734  0.0555
 2174PRX     CX 2174   3.626   3.989   4.843  0.0325  0.1934  0.1368
 2175PRX     CX 2175   0.281   5.077   4.478 -0.1893 -0.0701  0.2755
 2176PRX     CX 2176   0.231   4.502   0.743 -0.0310 -0.3028 -0.1796
 2177PRX     CX 2177   0.338   5.445   4.142 -0.0674 -0.0319  0.1040
 2178PRX     CX 2178   2.576   5.131   0.386 -0.1143  0.0266  0.0215
 2179PRX     CX 2179   4.386   5.467   3.217 -0.5152 -0.3754  0.0242
 2180PRX     CX 2180   5.482   6.214   0.479 -0.1582 -0.1147 -0.0090
 2181PRX     CX 2181   1.020   0.301   5.059 -0.1001 -0.1591  0.2279
 2182PRX     CX 2182   3.184   2.494   2.473  0.1419  0.2747 -0.1955
 2183PRX     CX 2183   0.228   2.710   0.575  0.0721 -0.1632 -0.0770
 2184PRX     CX 2184   5.807   5.638   2.547  0.2502  0.1289 -0.1116
 2185PRX     CX 2185   2.738   0.664   6.338  0.0369  0.0693  0.3259
 2186PRX     CX 2186   6.208   6.494   4.137 -0.0115  0.1344 -0.0787
 2187PRX     CX 2187   4.804   1.669   3.748  0.0626  0.2842  0.0406
 2188PRX     CX 2188   0.723   0.652   4.752 -0.1017 -0.1649  0.1089
 2189PRX     CX 2189   4.602   4.267   0.065  0.0428 -0.2444  0.1935
 2190PRX     CX 2190   3.320   1.065   1.861 -0.1702 -0.0976  0.4933
 2191PRX     CX 2191   6.143   0.396   5.647  0.5671  0.5216  0.2338
 2192PRX     CX 2192   0.245   4.855   2.236 -0.0286 -0.0861 -0.1844
 2193PRX     CX 2193   0.620   4.957   3.062 -0.0614 -0.1863  0.0368
 2194PRX     CX 2194   1.992   1.354   0.019 -0.0925 -0.1492 -0.2343
 2195PRX     CX 2195   4.170   1.132   2.113  0.2003  0.1071  0.2628
 2196PRX     CX 2196   0.849   1.554   0.260 -0.5003 -0.1944  0.2677
 2197PRX     CX 2197   2.874   0.115   5.605 -0.2640  0.0753  0.1688
   6.62170   6.62170   6.62170
