Split from step5_input.gro (molecule=DPPC)
130
    1DPPC     N    1   3.222   2.310   2.811
    1DPPC   C13    2   3.357   2.253   2.783
    1DPPC  H13A    3   3.426   2.270   2.867
    1DPPC  H13B    4   3.403   2.299   2.696
    1DPPC  H13C    5   3.354   2.145   2.771
    1DPPC   C14    6   3.138   2.309   2.688
    1DPPC  H14A    7   3.174   2.379   2.615
    1DPPC  H14B    8   3.034   2.336   2.711
    1DPPC  H14C    9   3.135   2.208   2.648
    1DPPC   C15   10   3.154   2.222   2.909
    1DPPC  H15A   11   3.063   2.266   2.951
    1DPPC  H15B   12   3.218   2.209   2.995
    1DPPC  H15C   13   3.131   2.123   2.870
    1DPPC   C12   14   3.237   2.450   2.867
    1DPPC  H12A   15   3.305   2.504   2.801
    1DPPC  H12B   16   3.283   2.444   2.965
    1DPPC   C11   17   3.112   2.538   2.885
    1DPPC  H11A   18   3.064   2.558   2.788
    1DPPC  H11B   19   3.149   2.635   2.928
    1DPPC     P   20   2.888   2.563   3.004
    1DPPC   O13   21   2.788   2.526   2.902
    1DPPC   O14   22   2.923   2.706   3.014
    1DPPC   O11   23   2.847   2.509   3.147
    1DPPC   O12   24   3.020   2.478   2.975
    1DPPC    C1   25   2.898   2.386   3.197
    1DPPC    HA   26   2.930   2.315   3.117
    1DPPC    HB   27   2.816   2.337   3.253
    1DPPC    C2   28   3.009   2.402   3.302
    1DPPC    HS   29   3.020   2.304   3.355
    1DPPC   O21   30   2.979   2.509   3.394
    1DPPC   C21   31   2.909   2.481   3.501
    1DPPC   O22   32   2.868   2.371   3.534
    1DPPC   C22   33   2.898   2.609   3.583
    1DPPC   H2R   34   2.792   2.629   3.607
    1DPPC   H2S   35   2.936   2.694   3.522
    1DPPC    C3   36   3.143   2.432   3.233
    1DPPC    HX   37   3.137   2.536   3.194
    1DPPC    HY   38   3.165   2.366   3.148
    1DPPC   O31   39   3.248   2.429   3.327
    1DPPC   C31   40   3.311   2.329   3.367
    1DPPC   O32   41   3.306   2.215   3.331
    1DPPC   C32   42   3.409   2.371   3.470
    1DPPC   H2X   43   3.424   2.477   3.486
    1DPPC   H2Y   44   3.498   2.341   3.416
    1DPPC   C23   45   2.981   2.596   3.712
    1DPPC   H3R   46   3.079   2.550   3.688
    1DPPC   H3S   47   2.930   2.530   3.785
    1DPPC   C24   48   3.011   2.731   3.778
    1DPPC   H4R   49   2.919   2.790   3.795
    1DPPC   H4S   50   3.067   2.789   3.702
    1DPPC   C25   51   3.088   2.716   3.911
    1DPPC   H5R   52   3.035   2.658   3.987
    1DPPC   H5S   53   3.097   2.814   3.956
    1DPPC   C26   54   3.228   2.660   3.896
    1DPPC   H6R   55   3.259   2.695   3.798
    1DPPC   H6S   56   3.223   2.553   3.872
    1DPPC   C27   57   3.325   2.682   4.015
    1DPPC   H7R   58   3.357   2.785   4.042
    1DPPC   H7S   59   3.420   2.636   3.980
    1DPPC   C28   60   3.267   2.631   4.146
    1DPPC   H8R   61   3.218   2.534   4.122
    1DPPC   H8S   62   3.189   2.700   4.183
    1DPPC   C29   63   3.361   2.608   4.264
    1DPPC   H9R   64   3.443   2.682   4.277
    1DPPC   H9S   65   3.406   2.516   4.239
    1DPPC  C210   66   3.291   2.540   4.382
    1DPPC  H10R   67   3.235   2.453   4.343
    1DPPC  H10S   68   3.238   2.626   4.424
    1DPPC  C211   69   3.371   2.490   4.499
    1DPPC  H11R   70   3.442   2.557   4.474
    1DPPC  H11S   71   3.459   2.432   4.504
    1DPPC  C212   72   3.332   2.408   4.618
    1DPPC  H12R   73   3.319   2.483   4.698
    1DPPC  H12S   74   3.407   2.333   4.658
    1DPPC  C213   75   3.215   2.330   4.581
    1DPPC  H13R   76   3.149   2.383   4.515
    1DPPC  H13S   77   3.175   2.321   4.679
    1DPPC  C214   78   3.219   2.199   4.511
    1DPPC  H14R   79   3.255   2.124   4.584
    1DPPC  H14S   80   3.263   2.197   4.411
    1DPPC  C215   81   3.082   2.160   4.487
    1DPPC  H15R   82   3.065   2.063   4.439
    1DPPC  H15S   83   3.028   2.234   4.426
    1DPPC  C216   84   3.044   2.144   4.629
    1DPPC  H16R   85   2.990   2.057   4.613
    1DPPC  H16S   86   2.995   2.233   4.673
    1DPPC  H16T   87   3.113   2.091   4.698
    1DPPC   C33   88   3.384   2.295   3.600
    1DPPC   H3X   89   3.462   2.336   3.667
    1DPPC   H3Y   90   3.388   2.184   3.589
    1DPPC   C34   91   3.258   2.332   3.674
    1DPPC   H4X   92   3.172   2.286   3.619
    1DPPC   H4Y   93   3.252   2.443   3.670
    1DPPC   C35   94   3.255   2.290   3.821
    1DPPC   H5X   95   3.301   2.368   3.885
    1DPPC   H5Y   96   3.311   2.196   3.841
    1DPPC   C36   97   3.111   2.268   3.864
    1DPPC   H6X   98   3.090   2.159   3.865
    1DPPC   H6Y   99   3.042   2.312   3.786
    1DPPC   C37  100   3.083   2.335   3.999
    1DPPC   H7X  101   3.079   2.445   3.981
    1DPPC   H7Y  102   3.157   2.311   4.078
    1DPPC   C38  103   2.949   2.291   4.051
    1DPPC   H8X  104   2.945   2.180   4.048
    1DPPC   H8Y  105   2.890   2.334   3.967
    1DPPC   C39  106   2.891   2.347   4.182
    1DPPC   H9X  107   2.952   2.316   4.266
    1DPPC   H9Y  108   2.791   2.308   4.213
    1DPPC  C310  109   2.866   2.496   4.169
    1DPPC  H10X  110   2.801   2.520   4.081
    1DPPC  H10Y  111   2.966   2.543   4.155
    1DPPC  C311  112   2.798   2.552   4.291
    1DPPC  H11X  113   2.697   2.508   4.311
    1DPPC  H11Y  114   2.787   2.663   4.283
    1DPPC  C312  115   2.885   2.523   4.408
    1DPPC  H12X  116   2.991   2.537   4.382
    1DPPC  H12Y  117   2.870   2.419   4.447
    1DPPC  C313  118   2.844   2.619   4.512
    1DPPC  H13X  119   2.739   2.598   4.512
    1DPPC  H13Y  120   2.846   2.728   4.498
    1DPPC  C314  121   2.918   2.572   4.631
    1DPPC  H14X  122   2.890   2.467   4.652
    1DPPC  H14Y  123   2.888   2.632   4.721
    1DPPC  C315  124   3.066   2.587   4.610
    1DPPC  H15X  125   3.109   2.553   4.523
    1DPPC  H15Y  126   3.149   2.575   4.682
    1DPPC  C316  127   3.080   2.716   4.629
    1DPPC  H16X  128   3.039   2.735   4.729
    1DPPC  H16Y  129   3.005   2.774   4.578
    1DPPC  H16Z  130   3.185   2.755   4.619
  10.00000  10.00000  10.00000
