Butanol box
 2197
    1BOL    COH    1   6.307   6.209   0.695  0.0796  0.0990  0.1738
    2BOL    COH    2   2.659   2.573   2.611  0.1829 -0.4647  0.3886
    3BOL    COH    3   0.386   0.461   0.857  0.1518  0.1234  0.0012
    4BOL    COH    4   3.469   4.617   0.390  0.0444 -0.3282 -0.1547
    5BOL    COH    5   0.379   2.032   0.542 -0.0206  0.1479 -0.2876
    6BOL    COH    6   3.317   0.418   3.704 -0.1440 -0.1039 -0.0094
    7BOL    COH    7   1.990   0.962   1.980  0.0399  0.3705  0.0132
    8BOL    COH    8   1.392   0.939   4.222 -0.3620 -0.0646  0.0115
    9BOL    COH    9   3.639   1.914   1.523  0.4681  0.0185  0.0666
   10BOL    COH   10   4.723   1.089   2.246 -0.1963  0.0102 -0.0581
   11BOL    COH   11   3.136   6.380   2.258 -0.0437 -0.2046 -0.0282
   12BOL    COH   12   3.667   5.015   0.108  0.0489 -0.0684  0.0276
   13BOL    COH   13   4.341   5.361   5.752 -0.1493  0.1217 -0.3649
   14BOL    COH   14   1.466   6.213   0.726  0.0687 -0.1944  0.3394
   15BOL    COH   15   3.440   3.632   0.957  0.0701 -0.2378 -0.1966
   16BOL    COH   16   1.822   3.239   3.251  0.3856 -0.2813 -0.2155
   17BOL    COH   17   0.549   4.924   2.780 -0.0549 -0.0376 -0.0300
   18BOL    COH   18   4.823   4.418   1.039 -0.0496  0.0082  0.3081
   19BOL    COH   19   5.532   1.307   1.988  0.1700  0.0686 -0.2407
   20BOL    COH   20   1.151   4.423   2.403  0.0889 -0.2051 -0.1382
   21BOL    COH   21   4.730   3.654   1.355  0.0997  0.1552  0.4659
   22BOL    COH   22   5.139   4.622   3.676  0.2376 -0.1578  0.0740
   23BOL    COH   23   5.853   2.494   2.323 -0.0878 -0.1222 -0.2619
   24BOL    COH   24   5.396   3.211   4.656 -0.2428  0.1530  0.0228
   25BOL    COH   25   6.007   1.644   1.084  0.1216  0.1032  0.2484
   26BOL    COH   26   3.955   3.245   2.404  0.0425  0.1597  0.2224
   27BOL    COH   27   0.340   0.804   2.555  0.1586 -0.3407  0.1157
   28BOL    COH   28   2.976   1.490   0.047  0.4486 -0.1857  0.0453
   29BOL    COH   29   4.503   3.752   2.822  0.2921 -0.3059  0.0679
   30BOL    COH   30   0.092   6.204   2.371 -0.0300 -0.0110 -0.4259
   31BOL    COH   31   6.275   2.771   2.134  0.0117 -0.1728  0.0475
   32BOL    COH   32   4.416   4.593   5.051  0.0584 -0.1727  0.0531
   33BOL    COH   33   4.334   3.474   5.059 -0.2876  0.1408 -0.0791
   34BOL    COH   34   0.858   5.314   4.884 -0.0471  0.1374  0.3407
   35BOL    COH   35   0.705   3.300   5.412 -0.1222  0.0458  0.0017
   36BOL    COH   36   5.730   1.765   0.537 -0.0032 -0.0340  0.0788
   37BOL    COH   37   5.282   3.873   6.173  0.0251 -0.2567  0.0048
   38BOL    COH   38   0.589   4.243   0.151 -0.2053 -0.1819  0.1645
   39BOL    COH   39   2.446   4.782   0.639  0.2399 -0.1640  0.0482
   40BOL    COH   40   5.535   3.329   3.681 -0.0649 -0.2610 -0.0907
   41BOL    COH   41   6.128   4.567   5.501  0.1046  0.0625  0.1429
   42BOL    COH   42   2.536   2.668   1.697  0.0386  0.1431 -0.0188
   43BOL    COH   43   0.320   6.392   0.395  0.0823 -0.3155 -0.0607
   44BOL    COH   44   3.544   4.977   0.879  0.0406  0.1919  0.1478
   45BOL    COH   45   3.336   2.435   3.996  0.2733  0.0541  0.1516
   46BOL    COH   46   4.902   0.137   6.407 -0.0340  0.3428  0.0421
   47BOL    COH   47   2.305   5.154   1.798  0.3065 -0.1782 -0.0711
   48BOL    COH   48   0.891   3.014   4.952 -0.1481 -0.1320 -0.1051
   49BOL    COH   49   3.667   2.608   0.154 -0.0174 -0.2134 -0.4274
   50BOL    COH   50   3.845   1.456   5.272  0.0230  0.0113 -0.2571
   51BOL    COH   51   5.927   6.249   3.025  0.1264 -0.1594 -0.1672
   52BOL    COH   52   0.513   6.304   1.688  0.0334 -0.2883 -0.0075
   53BOL    COH   53   0.357   2.993   3.380 -0.1274 -0.0946  0.1176
   54BOL    COH   54   5.514   4.637   4.801  0.0451 -0.3847  0.1652
   55BOL    COH   55   3.048   5.151   5.661  0.3565  0.1150  0.0807
   56BOL    COH   56   3.010   1.999   4.918  0.1915 -0.2942 -0.2166
   57BOL    COH   57   4.130   0.963   6.360 -0.1854  0.0139 -0.1226
   58BOL    COH   58   0.679   3.163   1.697  0.0814  0.1389 -0.3436
   59BOL    COH   59   4.603   1.974   3.727  0.2579 -0.2320  0.1059
   60BOL    COH   60   0.042   1.807   0.215 -0.3187  0.2466  0.1731
   61BOL    COH   61   2.689   3.317   1.609 -0.0887  0.3995 -0.0922
   62BOL    COH   62   6.370   0.973   4.154 -0.1568  0.1632 -0.1808
   63BOL    COH   63   5.317   1.216   0.075  0.3338 -0.4166 -0.2440
   64BOL    COH   64   3.789   4.515   0.850  0.2753  0.0891 -0.1712
   65BOL    COH   65   3.632   5.514   4.419 -0.0224 -0.0414 -0.0316
   66BOL    COH   66   3.719   1.262   0.333  0.0823 -0.3640 -0.1827
   67BOL    COH   67   1.684   5.624   1.367  0.0051  0.2921  0.0478
   68BOL    COH   68   0.119   0.856   0.731 -0.0728 -0.1253  0.2236
   69BOL    COH   69   2.826   6.059   3.880 -0.0191  0.3103 -0.0108
   70BOL    COH   70   4.975   1.262   4.693 -0.2024 -0.1399  0.0210
   71BOL    COH   71   5.189   0.810   1.240  0.0755 -0.0662  0.0601
   72BOL    COH   72   5.912   5.622   0.205  0.1821 -0.0892  0.0148
   73BOL    COH   73   1.168   5.810   1.310  0.2156 -0.0548  0.4581
   74BOL    COH   74   3.741   3.101   0.044  0.2450  0.0193  0.0114
   75BOL    COH   75   3.020   4.391   3.066 -0.2735 -0.3215  0.0006
   76BOL    COH   76   4.335   3.293   4.107 -0.3712 -0.4481  0.1649
   77BOL    COH   77   5.144   0.452   1.978 -0.1644 -0.1997 -0.1132
   78BOL    COH   78   0.299   3.227   5.690  0.3151  0.2608  0.1599
   79BOL    COH   79   2.785   5.769   4.966  0.0265  0.1630  0.1680
   80BOL    COH   80   5.953   3.523   4.041  0.2955 -0.1427 -0.0610
   81BOL    COH   81   2.211   0.000   2.265 -0.2280  0.0389 -0.1301
   82BOL    COH   82   5.890   6.144   0.446 -0.0241  0.3214 -0.1761
   83BOL    COH   83   0.916   6.247   1.352 -0.0038 -0.1735 -0.0235
   84BOL    COH   84   5.792   5.220   0.949  0.1623  0.0879 -0.0198
   85BOL    COH   85   5.947   5.717   1.760 -0.1884  0.2277 -0.0982
   86BOL    COH   86   3.871   1.906   2.579 -0.2159 -0.0033 -0.2789
   87BOL    COH   87   1.985   0.408   2.062 -0.0571  0.0629 -0.1909
   88BOL    COH   88   0.200   5.826   3.967 -0.3549 -0.3360 -0.1085
   89BOL    COH   89   2.053   5.750   5.466 -0.0547  0.0256 -0.1139
   90BOL    COH   90   1.247   5.037   5.390  0.2858 -0.4394 -0.1276
   91BOL    COH   91   0.606   2.647   3.835  0.0484 -0.1641  0.1181
   92BOL    COH   92   6.161   6.121   6.264  0.1690 -0.2207 -0.0360
   93BOL    COH   93   1.146   1.529   0.278  0.0031  0.1466  0.1884
   94BOL    COH   94   0.658   1.914   5.512  0.2093 -0.0251 -0.1296
   95BOL    COH   95   2.227   1.330   2.828 -0.0968  0.0359  0.1791
   96BOL    COH   96   2.305   1.692   3.335  0.1841  0.1074 -0.0189
   97BOL    COH   97   1.944   3.755   6.347 -0.1495 -0.1116 -0.0153
   98BOL    COH   98   4.308   1.709   2.477  0.0953 -0.3794 -0.2142
   99BOL    COH   99   4.955   2.588   4.479 -0.0511  0.1180 -0.0400
  100BOL    COH  100   4.552   5.015   1.224 -0.3104 -0.0180  0.0399
  101BOL    COH  101   3.181   2.763   4.531 -0.1987 -0.3285 -0.2100
  102BOL    COH  102   0.447   6.015   0.081 -0.2186 -0.2653 -0.0907
  103BOL    COH  103   2.661   1.764   0.344 -0.0725  0.3187  0.1844
  104BOL    COH  104   2.418   5.112   4.849 -0.0329 -0.3601 -0.1974
  105BOL    COH  105   4.930   0.230   2.846  0.0251 -0.4453 -0.0561
  106BOL    COH  106   5.436   6.254   2.943 -0.1246 -0.1194 -0.1125
  107BOL    COH  107   0.337   4.915   4.889  0.2443 -0.0241 -0.0141
  108BOL    COH  108   4.346   0.032   4.197  0.0946 -0.0801 -0.0052
  109BOL    COH  109   0.399   3.171   0.779 -0.2526  0.4020  0.0015
  110BOL    COH  110   5.951   4.126   5.673  0.1413 -0.3886 -0.0144
  111BOL    COH  111   3.542   2.994   2.197 -0.0467  0.2941 -0.0769
  112BOL    COH  112   2.515   2.181   2.948  0.1503 -0.0674 -0.0014
  113BOL    COH  113   2.287   2.492   4.205 -0.2372  0.1596  0.0069
  114BOL    COH  114   3.269   2.844   6.338 -0.0957 -0.0394  0.0581
  115BOL    COH  115   1.153   2.376   2.081 -0.0728 -0.1836  0.1574
  116BOL    COH  116   3.677   4.815   1.712 -0.1436  0.1814  0.2779
  117BOL    COH  117   2.981   5.051   3.939 -0.3630 -0.1989 -0.2732
  118BOL    COH  118   3.583   6.188   2.547 -0.2182  0.0076  0.1255
  119BOL    COH  119   6.356   3.628   4.972  0.0082 -0.0827  0.0655
  120BOL    COH  120   4.178   2.811   2.427  0.4054  0.0781  0.1163
  121BOL    COH  121   5.192   1.380   2.404 -0.0245 -0.1143  0.1242
  122BOL    COH  122   0.871   0.605   6.403 -0.0910  0.1007 -0.2204
  123BOL    COH  123   4.153   0.653   5.013  0.2777 -0.0190  0.1477
  124BOL    COH  124   3.377   0.213   0.251  0.1576  0.3292 -0.1697
  125BOL    COH  125   3.051   2.964   1.878 -0.1397 -0.0732 -0.0151
  126BOL    COH  126   3.533   2.567   3.062  0.4040 -0.0990  0.1912
  127BOL    COH  127   4.777   2.040   2.541  0.0690  0.3083 -0.2776
  128BOL    COH  128   4.610   2.095   5.298 -0.0032 -0.0382 -0.0796
  129BOL    COH  129   6.177   4.316   1.191 -0.3529  0.0822  0.0598
  130BOL    COH  130   1.608   3.008   2.609 -0.0304 -0.2912 -0.2416
  131BOL    COH  131   2.462   6.035   4.399  0.0761  0.1013 -0.1989
  132BOL    COH  132   1.626   2.859   5.292  0.0767  0.3762 -0.2768
  133BOL    COH  133   3.253   3.474   0.192  0.1203 -0.2205  0.0143
  134BOL    COH  134   4.362   3.132   0.075 -0.0264 -0.3165 -0.0066
  135BOL    COH  135   1.623   2.143   6.381 -0.1089  0.0798  0.1136
  136BOL    COH  136   2.451   5.215   0.147  0.3705  0.1248  0.1688
  137BOL    COH  137   3.404   1.162   2.237  0.5170  0.0987  0.4412
  138BOL    COH  138   4.284   2.687   6.277  0.2584  0.1931  0.2186
  139BOL    COH  139   0.660   2.914   0.473  0.1006 -0.0526  0.0155
  140BOL    COH  140   1.930   0.456   5.780  0.0270 -0.2690  0.2147
  141BOL    COH  141   4.564   2.002   5.801 -0.4280 -0.0382 -0.0603
  142BOL    COH  142   5.916   1.964   3.861  0.1870 -0.4688  0.0097
  143BOL    COH  143   3.621   2.699   2.591 -0.1773 -0.0439  0.0770
  144BOL    COH  144   4.139   5.279   1.625  0.2255  0.2236  0.0814
  145BOL    COH  145   6.351   1.459   3.113  0.3828  0.0117  0.3020
  146BOL    COH  146   4.494   5.037   0.700  0.0731 -0.2242 -0.0598
  147BOL    COH  147   3.112   3.385   0.731 -0.2449  0.2808 -0.0921
  148BOL    COH  148   2.792   3.979   0.025  0.1367  0.2214 -0.0694
  149BOL    COH  149   3.456   0.886   3.844  0.0043 -0.3912  0.0869
  150BOL    COH  150   0.260   0.278   3.773 -0.4257 -0.1267  0.0993
  151BOL    COH  151   2.958   2.514   3.587 -0.3647 -0.2571  0.0305
  152BOL    COH  152   3.934   0.138   0.317  0.1203  0.1773  0.1163
  153BOL    COH  153   3.625   5.997   4.680  0.0947  0.1980 -0.3480
  154BOL    COH  154   3.787   1.711   5.921  0.2690 -0.1385  0.0797
  155BOL    COH  155   5.534   4.938   2.330 -0.1348 -0.1418 -0.3695
  156BOL    COH  156   2.770   2.115   1.334 -0.2216 -0.1726 -0.4130
  157BOL    COH  157   4.774   4.238   2.742  0.1132  0.1531  0.0412
  158BOL    COH  158   6.107   1.500   4.018 -0.0267  0.2323 -0.4122
  159BOL    COH  159   3.821   1.640   4.328 -0.1080 -0.1086  0.4584
  160BOL    COH  160   6.081   5.104   6.210  0.1810  0.0442 -0.0738
  161BOL    COH  161   4.662   1.428   3.879  0.1049  0.1379  0.0212
  162BOL    COH  162   3.880   6.001   3.521  0.0809  0.3416  0.4702
  163BOL    COH  163   0.646   3.749   6.378  0.2876 -0.1846 -0.1112
  164BOL    COH  164   2.552   1.548   2.441  0.1714  0.0601 -0.0239
  165BOL    COH  165   1.235   1.216   4.564 -0.0871 -0.0867 -0.2649
  166BOL    COH  166   5.933   0.911   4.955 -0.3591 -0.0180 -0.1771
  167BOL    COH  167   3.075   0.601   2.949  0.0430 -0.1018  0.0571
  168BOL    COH  168   4.910   5.593   2.483  0.0363  0.3516  0.0215
  169BOL    COH  169   4.724   1.590   2.781  0.3049  0.2364 -0.0315
  170BOL    COH  170   3.814   3.419   4.933 -0.2491 -0.0263 -0.3653
  171BOL    COH  171   0.426   1.499   3.139 -0.4145 -0.0344  0.0180
  172BOL    COH  172   2.760   0.284   5.989 -0.4733 -0.0079 -0.0606
  173BOL    COH  173   5.935   5.249   1.562 -0.0966 -0.2992 -0.1656
  174BOL    COH  174   1.780   4.988   5.824 -0.3029  0.0734 -0.0252
  175BOL    COH  175   1.797   5.479   5.975 -0.2323  0.1704 -0.2697
  176BOL    COH  176   4.085   3.773   2.559 -0.1070 -0.2011  0.3044
  177BOL    COH  177   3.035   3.546   6.163  0.3123 -0.1252 -0.1186
  178BOL    COH  178   3.523   2.017   6.265  0.1628  0.1475  0.0438
  179BOL    COH  179   1.107   3.885   2.378  0.2102  0.0796 -0.0045
  180BOL    COH  180   2.132   2.269   1.595  0.0551 -0.1454 -0.1180
  181BOL    COH  181   2.006   5.971   5.943 -0.0682  0.1541  0.0332
  182BOL    COH  182   5.591   0.984   4.054  0.0643 -0.1174  0.1731
  183BOL    COH  183   1.513   4.428   1.522  0.2137 -0.2079 -0.2009
  184BOL    COH  184   2.507   0.715   5.052 -0.2617 -0.0184  0.1495
  185BOL    COH  185   0.522   5.548   6.301 -0.1067 -0.0116 -0.0983
  186BOL    COH  186   2.744   2.014   4.370 -0.0695 -0.0753 -0.4060
  187BOL    COH  187   4.175   3.215   5.500  0.1945  0.1658  0.1161
  188BOL    COH  188   4.890   2.870   1.771  0.0388 -0.0749 -0.1038
  189BOL    COH  189   3.759   1.169   0.812 -0.1438  0.2261  0.0376
  190BOL    COH  190   5.131   0.294   2.434  0.0088 -0.1522 -0.0956
  191BOL    COH  191   5.529   2.331   1.954 -0.2830 -0.0179  0.0749
  192BOL    COH  192   4.348   3.424   1.602 -0.2971 -0.0168  0.1394
  193BOL    COH  193   1.560   4.521   0.285 -0.1631 -0.3743  0.1977
  194BOL    COH  194   4.861   3.871   3.194 -0.1365 -0.1842 -0.1136
  195BOL    COH  195   4.792   3.315   6.374  0.1350  0.3911 -0.3762
  196BOL    COH  196   2.736   4.734   1.168 -0.0364 -0.4099  0.3150
  197BOL    COH  197   2.245   4.640   2.006 -0.1441 -0.2785  0.2118
  198BOL    COH  198   5.929   3.843   1.974 -0.1554 -0.1486 -0.0128
  199BOL    COH  199   4.775   3.166   1.394  0.0366  0.2083 -0.0888
  200BOL    COH  200   2.567   4.650   2.946  0.5425 -0.1194 -0.2683
  201BOL    COH  201   2.966   5.209   4.948  0.1237 -0.2391  0.0769
  202BOL    COH  202   0.837   3.990   5.384  0.0915  0.1948  0.0596
  203BOL    COH  203   3.016   4.589   5.914  0.0680  0.0424  0.0091
  204BOL    COH  204   1.800   4.956   0.520 -0.1996  0.1782 -0.0850
  205BOL    COH  205   4.937   2.312   2.088 -0.3101 -0.0188 -0.1808
  206BOL    COH  206   5.832   1.534   1.615  0.1890 -0.0270 -0.3381
  207BOL    COH  207   2.630   0.787   3.156  0.1621  0.1766 -0.0494
  208BOL    COH  208   4.817   4.475   5.733  0.0455 -0.1268 -0.0563
  209BOL    COH  209   6.256   3.292   6.253 -0.0912  0.0401 -0.1802
  210BOL    COH  210   1.607   4.899   6.259 -0.0558 -0.3832 -0.0464
  211BOL    COH  211   1.737   1.396   6.152  0.0731 -0.0243 -0.1950
  212BOL    COH  212   2.476   3.335   3.237  0.2365 -0.3021 -0.2779
  213BOL    COH  213   2.562   5.487   4.549  0.0557  0.0581 -0.0914
  214BOL    COH  214   5.177   5.904   2.116  0.2265 -0.1718 -0.1842
  215BOL    COH  215   4.056   0.966   1.135  0.2254 -0.2055 -0.0244
  216BOL    COH  216   0.699   4.237   0.664  0.0153  0.0247 -0.2162
  217BOL    COH  217   3.953   6.073   5.032  0.0239 -0.3806 -0.1176
  218BOL    COH  218   0.481   5.702   1.658 -0.1659  0.0414  0.1388
  219BOL    COH  219   2.180   5.816   4.782  0.0490  0.1867 -0.1423
  220BOL    COH  220   1.835   4.062   0.420 -0.0298 -0.0998  0.2378
  221BOL    COH  221   2.058   1.416   3.707 -0.2035 -0.1712  0.2291
  222BOL    COH  222   3.317   0.523   1.457  0.1768  0.0860 -0.3252
  223BOL    COH  223   4.243   1.128   4.037  0.0586 -0.0445  0.0110
  224BOL    COH  224   4.266   1.542   6.034 -0.3591  0.1992  0.1049
  225BOL    COH  225   1.634   4.491   5.851  0.0167  0.0985 -0.2758
  226BOL    COH  226   0.845   0.564   2.682  0.3003  0.1471 -0.2579
  227BOL    COH  227   0.077   3.678   5.425  0.1782  0.0353  0.0961
  228BOL    COH  228   5.456   4.992   4.389  0.1352 -0.0812 -0.0508
  229BOL    COH  229   0.501   3.193   2.848 -0.3166 -0.0894 -0.0604
  230BOL    COH  230   6.141   5.604   1.229  0.1870 -0.0926  0.2776
  231BOL    COH  231   4.605   0.610   1.272 -0.0119  0.1018  0.2499
  232BOL    COH  232   5.459   2.100   4.809  0.2385  0.1085 -0.0667
  233BOL    COH  233   1.557   2.992   4.211  0.4518  0.2335  0.0057
  234BOL    COH  234   4.136   2.336   4.944  0.3602  0.0922  0.0394
  235BOL    COH  235   2.836   0.557   5.528 -0.1482 -0.0163 -0.0866
  236BOL    COH  236   0.709   2.374   0.381 -0.0064  0.0815 -0.1115
  237BOL    COH  237   4.383   1.394   0.054 -0.0019 -0.1971  0.0833
  238BOL    COH  238   5.037   0.776   4.699  0.1778  0.2085  0.1577
  239BOL    COH  239   5.014   5.855   5.116  0.4168 -0.2508  0.2316
  240BOL    COH  240   5.987   5.048   4.102  0.0813  0.2429 -0.0120
  241BOL    COH  241   3.287   4.515   1.656  0.1419  0.0697  0.0902
  242BOL    COH  242   2.717   1.473   4.459 -0.1631  0.0282  0.0722
  243BOL    COH  243   2.974   0.605   4.801  0.2249 -0.2680  0.0127
  244BOL    COH  244   4.942   3.025   0.786 -0.0098  0.2415  0.3010
  245BOL    COH  245   5.920   5.274   3.172 -0.1511 -0.4658 -0.3671
  246BOL    COH  246   1.806   0.092   3.666 -0.1251 -0.3562  0.0343
  247BOL    COH  247   5.449   2.744   4.484  0.3616  0.2299 -0.2181
  248BOL    COH  248   0.223   2.730   2.495 -0.0453  0.4059 -0.2543
  249BOL    COH  249   2.375   4.812   2.539 -0.0282 -0.1834 -0.0024
  250BOL    COH  250   5.122   4.561   1.816 -0.0052  0.0125 -0.3156
  251BOL    COH  251   2.505   0.666   1.045 -0.0082 -0.0940 -0.1491
  252BOL    COH  252   5.262   3.554   3.161  0.1394 -0.3061  0.1817
  253BOL    COH  253   1.120   3.949   3.906 -0.3983 -0.2265  0.0049
  254BOL    COH  254   3.608   1.049   1.253  0.1186 -0.0328  0.0545
  255BOL    COH  255   4.960   2.388   0.759  0.0934  0.0005 -0.0205
  256BOL    COH  256   0.081   3.410   1.113  0.1859 -0.1409  0.0146
  257BOL    COH  257   5.963   6.067   5.288 -0.0375 -0.1783 -0.0825
  258BOL    COH  258   2.303   1.085   4.556 -0.0355 -0.1216  0.2691
  259BOL    COH  259   1.931   3.939   0.912 -0.1461  0.1587 -0.2495
  260BOL    COH  260   4.015   1.071   5.863 -0.1561  0.0971  0.0094
  261BOL    COH  261   1.320   0.800   3.640  0.0984 -0.1744  0.2167
  262BOL    COH  262   3.074   2.983   4.989 -0.0321 -0.4055 -0.1039
  263BOL    COH  263   4.435   3.316   2.584  0.0885  0.0418  0.3599
  264BOL    COH  264   1.861   3.057   5.772  0.1513 -0.0389 -0.0804
  265BOL    COH  265   5.570   2.754   3.981  0.0107 -0.2034 -0.0147
  266BOL    COH  266   3.940   5.913   2.945 -0.1028  0.0466 -0.3705
  267BOL    COH  267   1.221   4.763   5.906 -0.1917  0.1843  0.0031
  268BOL    COH  268   1.321   0.665   0.870 -0.1964  0.1307  0.1737
  269BOL    COH  269   4.111   0.517   1.220  0.0322  0.3207  0.2634
  270BOL    COH  270   3.757   1.218   2.762 -0.2342  0.0025 -0.3139
  271BOL    COH  271   5.499   0.491   4.716 -0.2635 -0.0724  0.1557
  272BOL    COH  272   6.023   2.176   1.052 -0.0097 -0.1029  0.1174
  273BOL    COH  273   1.176   2.599   4.139  0.1026  0.3916  0.2147
  274BOL    COH  274   0.353   2.338   4.672  0.0448 -0.0357 -0.0896
  275BOL    COH  275   5.578   1.340   2.862  0.1187 -0.2135  0.0548
  276BOL    COH  276   6.087   5.613   5.600 -0.1789  0.1412 -0.0158
  277BOL    COH  277   6.338   1.911   4.150 -0.1488  0.0773  0.2881
  278BOL    COH  278   3.209   2.069   5.880  0.2279  0.1086 -0.0204
  279BOL    COH  279   2.171   2.583   4.957 -0.4619 -0.1625  0.2752
  280BOL    COH  280   0.628   3.313   3.778  0.1625 -0.2150  0.0020
  281BOL    COH  281   4.249   0.344   4.615 -0.4483  0.2245 -0.0464
  282BOL    COH  282   5.785   3.524   2.397 -0.2026 -0.2082  0.1968
  283BOL    COH  283   2.247   4.163   0.046  0.0375  0.1497 -0.1099
  284BOL    COH  284   3.163   1.676   4.557  0.1769 -0.3805 -0.0237
  285BOL    COH  285   4.813   4.440   2.220 -0.0113 -0.0854 -0.1766
  286BOL    COH  286   4.278   2.435   1.400 -0.2055 -0.1856 -0.0493
  287BOL    COH  287   5.538   4.290   5.746 -0.2491 -0.1250  0.0426
  288BOL    COH  288   0.546   1.158   3.461 -0.0354 -0.2006 -0.1788
  289BOL    COH  289   1.004   5.024   2.300 -0.2182  0.1609 -0.0555
  290BOL    COH  290   4.262   4.682   0.994  0.0412 -0.0166  0.1180
  291BOL    COH  291   4.941   4.435   3.129 -0.1833 -0.3953 -0.1203
  292BOL    COH  292   1.864   6.101   4.039 -0.1544  0.0233 -0.0635
  293BOL    COH  293   3.371   3.820   0.529 -0.1871 -0.3251  0.0261
  294BOL    COH  294   5.866   5.338   4.777  0.4818  0.0900 -0.0749
  295BOL    COH  295   3.374   4.720   5.296 -0.0357 -0.1314  0.3075
  296BOL    COH  296   3.491   5.243   2.155  0.3588  0.1073 -0.2059
  297BOL    COH  297   1.616   2.401   3.274 -0.1494  0.1122  0.0016
  298BOL    COH  298   0.203   6.330   5.614  0.0795  0.0226 -0.0051
  299BOL    COH  299   5.183   3.207   2.417  0.0634  0.0008  0.2466
  300BOL    COH  300   1.766   2.163   2.878  0.0867 -0.0041  0.2037
  301BOL    COH  301   1.420   3.332   1.839  0.0617  0.0867  0.0377
  302BOL    COH  302   4.124   3.901   1.587 -0.3457 -0.2190 -0.1190
  303BOL    COH  303   1.189   2.486   6.241 -0.0357 -0.1917  0.3289
  304BOL    COH  304   5.664   0.961   1.186  0.1245 -0.0242  0.1347
  305BOL    COH  305   1.944   2.760   3.944  0.2785 -0.0318 -0.2218
  306BOL    COH  306   5.409   4.144   1.712 -0.0052  0.0493  0.0842
  307BOL    COH  307   5.447   4.850   6.059 -0.2598  0.0083 -0.1443
  308BOL    COH  308   3.046   5.958   3.148  0.2093  0.1784  0.2238
  309BOL    COH  309   3.653   2.176   0.298  0.2021  0.0530 -0.1941
  310BOL    COH  310   3.123   5.712   2.092  0.3946  0.0859 -0.2367
  311BOL    COH  311   2.760   2.266   0.261  0.2755 -0.0550 -0.3264
  312BOL    COH  312   1.307   4.055   3.409 -0.2810 -0.1420 -0.0803
  313BOL    COH  313   1.675   0.659   0.494 -0.0414  0.0865 -0.3441
  314BOL    COH  314   6.086   3.311   5.163  0.1931  0.0529 -0.0513
  315BOL    COH  315   3.908   5.162   3.410  0.0073  0.0190  0.1521
  316BOL    COH  316   4.261   5.531   6.322  0.0709  0.1675 -0.2650
  317BOL    COH  317   5.216   5.698   3.667 -0.2863 -0.0629 -0.3317
  318BOL    COH  318   0.142   0.929   0.162 -0.0427  0.0960 -0.1264
  319BOL    COH  319   0.952   6.085   2.929 -0.0117  0.1055 -0.0809
  320BOL    COH  320   4.260   3.134   1.205  0.0544  0.1363 -0.0588
  321BOL    COH  321   0.279   1.282   0.522  0.1705  0.0915 -0.0966
  322BOL    COH  322   3.897   2.708   3.372  0.3723 -0.1811  0.0477
  323BOL    COH  323   4.296   4.034   5.630 -0.0946 -0.0114 -0.1741
  324BOL    COH  324   6.281   2.783   3.356  0.0326  0.1146  0.2592
  325BOL    COH  325   4.872   4.785   0.417 -0.1167 -0.2215  0.1222
  326BOL    COH  326   5.621   5.821   4.909 -0.1599  0.2443  0.2275
  327BOL    COH  327   0.846   0.643   3.208 -0.1117 -0.2133 -0.0312
  328BOL    COH  328   2.470   1.232   3.388 -0.0970  0.3368  0.3728
  329BOL    COH  329   4.300   0.072   5.039  0.0133  0.0798 -0.3761
  330BOL    COH  330   6.352   2.896   5.835 -0.2523 -0.5957 -0.2372
  331BOL    COH  331   6.046   2.951   5.478  0.1631  0.0747 -0.2825
  332BOL    COH  332   0.332   1.970   3.864 -0.0616  0.1321 -0.0795
  333BOL    COH  333   5.047   2.128   3.494 -0.0923  0.2372 -0.0467
  334BOL    COH  334   5.729   0.153   4.473  0.1698 -0.2642  0.0163
  335BOL    COH  335   0.298   5.713   2.515  0.1472 -0.0333 -0.2312
  336BOL    COH  336   0.648   2.690   4.441  0.0106 -0.0526  0.2035
  337BOL    COH  337   0.667   2.054   1.033  0.1802  0.0973 -0.0219
  338BOL    COH  338   3.901   3.098   3.847 -0.1008  0.0601  0.2275
  339BOL    COH  339   1.560   5.756   0.865 -0.2189  0.0872  0.1350
  340BOL    COH  340   1.139   1.587   4.173  0.0382  0.0417  0.2588
  341BOL    COH  341   3.843   1.426   2.347  0.1311 -0.2337 -0.0218
  342BOL    COH  342   3.886   3.218   1.889 -0.3953  0.2262 -0.2696
  343BOL    COH  343   3.818   5.203   2.491 -0.0055  0.1379  0.3064
  344BOL    COH  344   4.003   5.049   2.046  0.1402  0.1875 -0.0702
  345BOL    COH  345   0.950   4.322   5.991  0.0629 -0.1399  0.0890
  346BOL    COH  346   2.448   4.105   1.772  0.0937  0.0289 -0.2579
  347BOL    COH  347   0.383   0.437   5.278  0.3995 -0.2835  0.2877
  348BOL    COH  348   4.550   2.460   5.643 -0.6009 -0.2062 -0.0119
  349BOL    COH  349   3.790   5.547   3.811 -0.2029  0.0474  0.0845
  350BOL    COH  350   4.813   0.917   5.230  0.1817  0.2106 -0.1982
  351BOL    COH  351   2.904   0.786   0.817 -0.3566 -0.1262  0.3653
  352BOL    COH  352   0.101   2.814   0.579  0.3047 -0.1122 -0.1572
  353BOL    COH  353   2.558   6.250   4.910  0.0358 -0.2859  0.0283
  354BOL    COH  354   0.451   4.129   6.062  0.1397 -0.4096  0.1253
  355BOL    COH  355   3.653   3.392   3.538  0.1695 -0.1735  0.3328
  356BOL    COH  356   2.777   4.194   2.118 -0.1397  0.1940 -0.1083
  357BOL    COH  357   3.923   6.045   1.743 -0.2658 -0.1310 -0.0043
  358BOL    COH  358   3.128   4.391   1.240  0.0470 -0.1116  0.2611
  359BOL    COH  359   6.119   4.915   4.583 -0.0646  0.0142  0.1630
  360BOL    COH  360   4.253   0.570   2.442 -0.0108 -0.0433 -0.1656
  361BOL    COH  361   4.273   5.017   2.515 -0.0096 -0.3406 -0.1814
  362BOL    COH  362   2.889   4.045   5.964  0.0956  0.4915  0.1067
  363BOL    COH  363   0.147   5.250   2.455 -0.2003  0.1884  0.0928
  364BOL    COH  364   5.784   4.363   2.026  0.2108 -0.2288 -0.0988
  365BOL    COH  365   5.827   4.616   4.377  0.0685  0.3108  0.1000
  366BOL    COH  366   3.440   2.189   1.887 -0.1268 -0.0531 -0.1024
  367BOL    COH  367   5.283   2.580   3.459  0.1050 -0.2705  0.0789
  368BOL    COH  368   5.104   5.943   4.608 -0.0837  0.1934  0.1456
  369BOL    COH  369   3.237   4.635   3.728  0.0005 -0.1516 -0.0460
  370BOL    COH  370   2.642   1.212   6.116  0.0122 -0.1900 -0.0280
  371BOL    COH  371   5.234   5.842   1.108  0.2949  0.2360 -0.0479
  372BOL    COH  372   1.916   1.042   1.377 -0.1004 -0.1603 -0.4080
  373BOL    COH  373   4.769   0.459   3.656 -0.2149  0.1306  0.1508
  374BOL    COH  374   0.738   5.158   0.372 -0.1153 -0.1578 -0.0274
  375BOL    COH  375   6.320   2.290   4.458  0.2351  0.1787 -0.2409
  376BOL    COH  376   0.866   2.103   1.502 -0.1023 -0.0167  0.0686
  377BOL    COH  377   3.409   3.720   2.849  0.0470  0.1973  0.2461
  378BOL    COH  378   4.092   2.821   4.272  0.1438  0.1709  0.0051
  379BOL    COH  379   3.940   5.931   6.346 -0.1768 -0.0416  0.2079
  380BOL    COH  380   0.052   4.207   6.357  0.2709 -0.0361 -0.0594
  381BOL    COH  381   3.597   2.692   1.179 -0.1864  0.0528 -0.0551
  382BOL    COH  382   1.346   2.072   4.219 -0.1505  0.0839 -0.0160
  383BOL    COH  383   4.604   1.240   4.347  0.2225  0.0603 -0.0185
  384BOL    COH  384   2.625   2.828   4.943  0.0095  0.1690  0.2225
  385BOL    COH  385   5.738   3.592   3.253  0.0042 -0.0663 -0.0323
  386BOL    COH  386   0.904   0.208   4.535  0.0743 -0.3182 -0.0958
  387BOL    COH  387   4.673   2.132   1.159 -0.1734  0.0670 -0.0817
  388BOL    COH  388   4.779   4.478   4.163 -0.1404 -0.0548  0.0189
  389BOL    COH  389   1.852   3.404   0.290  0.4063 -0.0591 -0.0410
  390BOL    COH  390   4.640   0.939   3.862 -0.3342 -0.0663 -0.0511
  391BOL    COH  391   4.256   0.419   6.385 -0.0799 -0.0209 -0.0815
  392BOL    COH  392   3.760   1.044   4.295  0.1636 -0.2267  0.4214
  393BOL    COH  393   2.804   0.140   3.843 -0.0472  0.0666  0.2098
  394BOL    COH  394   5.249   1.818   2.765 -0.2345  0.2943  0.0465
  395BOL    COH  395   1.280   1.147   5.538  0.1169 -0.0888 -0.0796
  396BOL    COH  396   3.581   0.999   6.078 -0.1101  0.0354 -0.1476
  397BOL    COH  397   0.583   2.438   5.952 -0.0508 -0.1987 -0.1189
  398BOL    COH  398   2.455   4.987   3.891 -0.1634 -0.0221  0.3841
  399BOL    COH  399   3.898   3.429   0.950  0.1839  0.2021  0.0481
  400BOL    COH  400   0.577   4.218   1.609  0.0023  0.0212 -0.0097
  401BOL    COH  401   3.727   0.323   6.281  0.0992 -0.0452 -0.0661
  402BOL    COH  402   3.112   6.131   1.757  0.0558 -0.1286  0.2453
  403BOL    COH  403   4.297   5.119   3.091  0.0094 -0.0059 -0.2047
  404BOL    COH  404   1.686   2.170   5.869  0.1414  0.0002 -0.3334
  405BOL    COH  405   3.213   2.205   4.471 -0.0855  0.0886  0.0425
  406BOL    COH  406   0.679   4.414   1.126  0.1885 -0.2393  0.0625
  407BOL    COH  407   0.822   3.811   0.492  0.1620 -0.2406 -0.1421
  408BOL    COH  408   5.353   2.101   0.897 -0.1518  0.0468 -0.0093
  409BOL    COH  409   0.097   5.906   5.968 -0.2791  0.2249 -0.0617
  410BOL    COH  410   4.287   4.227   2.867  0.0314 -0.4085  0.0619
  411BOL    COH  411   6.233   1.590   4.505  0.2952  0.3850  0.2668
  412BOL    COH  412   2.690   3.778   1.427 -0.1948 -0.1054  0.1155
  413BOL    COH  413   2.541   6.242   3.468 -0.0861  0.1195 -0.0150
  414BOL    COH  414   1.770   4.091   4.379  0.3049 -0.1590 -0.1772
  415BOL    COH  415   5.535   0.526   3.236  0.1195  0.1397 -0.1538
  416BOL    COH  416   2.455   2.458   1.125 -0.1517 -0.1581  0.4333
  417BOL    COH  417   4.290   5.469   4.514 -0.0933 -0.4572  0.0803
  418BOL    COH  418   5.551   3.261   4.220  0.3778  0.2994  0.1481
  419BOL    COH  419   5.228   5.343   5.539 -0.0674  0.0477 -0.1399
  420BOL    COH  420   3.861   1.391   6.306  0.0142 -0.1669  0.2968
  421BOL    COH  421   4.724   0.333   5.493  0.0929 -0.0759 -0.2467
  422BOL    COH  422   4.289   4.478   2.454  0.0683  0.0748 -0.0092
  423BOL    COH  423   2.740   1.603   1.264 -0.0839  0.1099 -0.2708
  424BOL    COH  424   3.194   4.499   2.190 -0.0153 -0.0115  0.0676
  425BOL    COH  425   5.539   2.059   6.412  0.1009 -0.2379  0.0313
  426BOL    COH  426   3.742   4.186   6.335  0.1088 -0.1858  0.2284
  427BOL    COH  427   2.841   1.211   3.726 -0.1125  0.1172  0.2614
  428BOL    COH  428   4.188   5.534   2.583 -0.2269 -0.1871 -0.3970
  429BOL    COH  429   5.368   2.230   2.454 -0.1955  0.0438 -0.0744
  430BOL    COH  430   2.181   2.409   2.078  0.1784  0.3437  0.1974
  431BOL    COH  431   5.763   4.239   5.248 -0.2341 -0.1690 -0.1215
  432BOL    COH  432   3.064   3.860   4.952 -0.2706 -0.1308 -0.0428
  433BOL    COH  433   6.172   0.255   6.015  0.2479  0.0247  0.2016
  434BOL    COH  434   0.949   4.777   4.149 -0.1611  0.1324  0.0872
  435BOL    COH  435   0.268   3.359   1.546 -0.0844  0.0801  0.0395
  436BOL    COH  436   5.030   4.917   4.113  0.3208 -0.0695  0.1923
  437BOL    COH  437   0.980   2.286   4.555  0.0325  0.0810 -0.1034
  438BOL    COH  438   1.094   2.520   3.604 -0.2570  0.0090  0.1721
  439BOL    COH  439   5.712   5.790   3.029  0.1958  0.1429 -0.0847
  440BOL    COH  440   0.842   1.867   0.568  0.2234  0.0630 -0.0901
  441BOL    COH  441   0.751   0.112   2.694 -0.2405  0.5463  0.1500
  442BOL    COH  442   4.633   3.790   1.838 -0.1149  0.0696  0.0143
  443BOL    COH  443   3.290   4.920   1.404 -0.0056 -0.0544  0.0520
  444BOL    COH  444   1.434   4.635   4.977 -0.3122 -0.1172 -0.3030
  445BOL    COH  445   0.360   5.502   2.073  0.1562  0.3223  0.2193
  446BOL    COH  446   5.435   6.228   0.583 -0.1929  0.1095 -0.0412
  447BOL    COH  447   1.666   4.931   3.054  0.0005 -0.2152 -0.2414
  448BOL    COH  448   0.084   5.970   1.916  0.1745 -0.0069  0.2917
  449BOL    COH  449   6.059   1.958   1.495 -0.2461 -0.2455  0.1242
  450BOL    COH  450   0.342   4.087   4.313 -0.0604 -0.2907 -0.1616
  451BOL    COH  451   3.770   5.509   4.848 -0.1555  0.1467 -0.1221
  452BOL    COH  452   0.893   2.277   2.584  0.1312 -0.1498 -0.2695
  453BOL    COH  453   5.637   1.047   2.484  0.0843  0.1083  0.0181
  454BOL    COH  454   5.469   4.507   3.082 -0.1460 -0.1179 -0.3207
  455BOL    COH  455   5.800   3.195   0.101  0.0683 -0.1098 -0.4877
  456BOL    COH  456   1.188   4.506   0.912  0.1077 -0.1260  0.2198
  457BOL    COH  457   2.704   3.273   4.221 -0.2768  0.3648 -0.0604
  458BOL    COH  458   6.191   5.950   2.743 -0.0367  0.0428  0.0880
  459BOL    COH  459   0.888   1.711   6.239 -0.0526 -0.2361 -0.1002
  460BOL    COH  460   2.186   1.286   6.268 -0.0047  0.0380 -0.0637
  461BOL    COH  461   5.238   2.222   5.277  0.0145 -0.0830 -0.0494
  462BOL    COH  462   1.005   2.898   5.868  0.1777 -0.1956  0.1814
  463BOL    COH  463   0.221   4.415   0.403  0.0869 -0.1857 -0.3904
  464BOL    COH  464   1.255   5.472   3.175 -0.2058  0.0315  0.3145
  465BOL    COH  465   6.037   4.783   2.231 -0.1405  0.3288 -0.0158
  466BOL    COH  466   1.347   0.298   3.531  0.1826  0.2283  0.1422
  467BOL    COH  467   2.040   0.149   1.332  0.1374 -0.0337  0.0279
  468BOL    COH  468   3.898   4.364   3.167 -0.0077  0.0012 -0.1338
  469BOL    COH  469   3.943   0.083   3.409  0.2669  0.0453  0.0645
  470BOL    COH  470   0.519   3.781   4.651 -0.3226 -0.0822 -0.3691
  471BOL    COH  471   4.266   3.002   0.758 -0.1252 -0.0599  0.3565
  472BOL    COH  472   0.594   0.597   4.140  0.0840  0.2217  0.1846
  473BOL    COH  473   4.056   6.287   5.986  0.0487 -0.3727  0.3116
  474BOL    COH  474   4.129   0.436   3.129  0.1397 -0.2091 -0.0302
  475BOL    COH  475   1.398   2.578   5.616 -0.0246 -0.1916  0.3768
  476BOL    COH  476   3.351   1.529   6.093  0.3816  0.1735  0.4516
  477BOL    COH  477   5.717   4.852   0.186 -0.1082 -0.0823  0.1229
  478BOL    COH  478   4.479   3.309   6.018 -0.0714 -0.0295  0.1215
  479BOL    COH  479   1.618   3.030   1.499  0.2100  0.0523 -0.0205
  480BOL    COH  480   4.277   6.130   2.626 -0.1152 -0.1467  0.1982
  481BOL    COH  481   2.910   1.928   2.636  0.0229  0.4126  0.4190
  482BOL    COH  482   5.174   3.700   3.791 -0.3078 -0.0889  0.0813
  483BOL    COH  483   6.395   4.314   5.887 -0.3393 -0.0901 -0.0616
  484BOL    COH  484   2.456   1.727   6.185 -0.0629  0.0675  0.2576
  485BOL    COH  485   0.181   3.895   3.451 -0.0851  0.1183 -0.0975
  486BOL    COH  486   1.824   5.171   2.050  0.3258 -0.0061  0.0146
  487BOL    COH  487   2.608   0.816   5.851  0.3212 -0.1372 -0.0173
  488BOL    COH  488   5.645   6.115   1.876 -0.0290  0.5985  0.2477
  489BOL    COH  489   1.415   0.058   4.024 -0.1028  0.1469 -0.2419
  490BOL    COH  490   2.299   4.765   1.448  0.0567 -0.1533 -0.1192
  491BOL    COH  491   2.188   5.161   4.288 -0.2883 -0.0064  0.0583
  492BOL    COH  492   5.389   1.568   4.704  0.0334 -0.1387 -0.1496
  493BOL    COH  493   0.819   1.458   4.968  0.0118  0.3788 -0.2221
  494BOL    COH  494   3.447   4.161   3.174  0.2245  0.3526 -0.0469
  495BOL    COH  495   4.954   2.729   1.250 -0.1707  0.2029  0.1360
  496BOL    COH  496   2.006   2.697   1.278  0.1151 -0.1131  0.0051
  497BOL    COH  497   3.048   2.871   3.970  0.1706 -0.1047 -0.4618
  498BOL    COH  498   1.248   1.823   4.768 -0.1290 -0.0791  0.2844
  499BOL    COH  499   4.848   1.975   1.670 -0.0304 -0.1280  0.0957
  500BOL    COH  500   4.527   2.560   5.168  0.1637  0.1969  0.1430
  501BOL    COH  501   4.318   6.157   3.229  0.0707 -0.1246 -0.3385
  502BOL    COH  502   0.972   2.133   5.948 -0.2635  0.0756  0.0825
  503BOL    COH  503   1.418   2.093   2.462  0.1284 -0.0320  0.2131
  504BOL    COH  504   1.764   1.095   2.784 -0.0307 -0.0184 -0.2179
  505BOL    COH  505   2.983   1.085   4.164 -0.2310 -0.2517  0.0898
  506BOL    COH  506   0.713   2.642   3.294 -0.2743  0.0471 -0.3503
  507BOL    COH  507   3.855   0.925   2.388 -0.0413 -0.0469  0.2728
  508BOL    COH  508   2.211   2.057   0.195  0.1625  0.4184  0.2489
  509BOL    COH  509   0.868   4.745   4.919 -0.0638 -0.5186  0.4686
  510BOL    COH  510   0.569   1.954   4.909  0.1224 -0.1102 -0.1655
  511BOL    COH  511   2.671   5.733   3.404  0.0527  0.0134  0.1816
  512BOL    COH  512   2.981   5.865   0.301 -0.1978  0.1025  0.0859
  513BOL    COH  513   0.040   2.738   5.320 -0.1210 -0.0517 -0.1404
  514BOL    COH  514   1.031   2.444   0.752 -0.1312  0.0131 -0.0003
  515BOL    COH  515   4.111   2.695   1.946  0.2884  0.1570  0.1162
  516BOL    COH  516   4.042   4.558   2.041 -0.0741  0.0257 -0.1972
  517BOL    COH  517   0.336   0.576   3.003  0.1731  0.1102  0.1634
  518BOL    COH  518   4.564   4.241   4.697  0.1548 -0.0952 -0.0886
  519BOL    COH  519   5.959   0.110   2.058 -0.1813  0.3350 -0.0333
  520BOL    COH  520   5.790   5.426   3.733 -0.2085 -0.4295 -0.2047
  521BOL    COH  521   4.388   6.260   5.556 -0.0745  0.0416  0.0543
  522BOL    COH  522   0.567   2.885   1.312 -0.0445 -0.0697 -0.0057
  523BOL    COH  523   1.522   0.747   5.781  0.0347  0.3812 -0.1230
  524BOL    COH  524   0.378   5.564   5.170  0.0239  0.1188 -0.2095
  525BOL    COH  525   3.083   6.294   6.416 -0.1642  0.1963  0.1189
  526BOL    COH  526   0.343   5.166   0.772  0.1410 -0.0339  0.4608
  527BOL    COH  527   3.467   0.836   4.925 -0.0833  0.4475 -0.3477
  528BOL    COH  528   1.707   1.595   0.657 -0.2850  0.1291  0.0332
  529BOL    COH  529   0.353   0.747   3.562  0.3884 -0.1861  0.0055
  530BOL    COH  530   4.134   6.247   4.596 -0.3773 -0.2846 -0.2990
  531BOL    COH  531   2.399   2.030   5.802  0.1529  0.0480  0.1190
  532BOL    COH  532   1.918   6.083   2.045  0.1950 -0.0309  0.2231
  533BOL    COH  533   3.295   1.329   3.698  0.0925 -0.0252  0.1218
  534BOL    COH  534   1.148   3.568   1.436 -0.0228  0.0204  0.0444
  535BOL    COH  535   0.946   6.242   2.263 -0.3429  0.0327  0.0655
  536BOL    COH  536   4.090   2.796   0.344  0.3682  0.2463 -0.4583
  537BOL    COH  537   3.620   5.718   5.311  0.0734 -0.3780 -0.2846
  538BOL    COH  538   3.519   3.318   6.093 -0.0268  0.0841  0.0960
  539BOL    COH  539   4.212   2.227   2.426 -0.0949 -0.2005 -0.0385
  540BOL    COH  540   4.481   2.266   0.679 -0.2071  0.0643  0.5390
  541BOL    COH  541   0.454   1.105   3.970 -0.2132 -0.0040  0.0014
  542BOL    COH  542   3.413   5.645   2.955  0.0294 -0.0433  0.1164
  543BOL    COH  543   5.264   4.594   0.886 -0.2570  0.2371 -0.1879
  544BOL    COH  544   0.782   2.796   2.832 -0.1313 -0.0611  0.0643
  545BOL    COH  545   4.187   1.437   4.628 -0.0490 -0.1048  0.0479
  546BOL    COH  546   5.723   5.926   1.358 -0.2136 -0.0269  0.1861
  547BOL    COH  547   5.070   4.964   2.136 -0.0055 -0.2512 -0.0675
  548BOL    COH  548   0.543   6.201   6.003  0.0994  0.2701 -0.0937
  549BOL    COH  549   3.572   0.008   5.886  0.5076  0.2253 -0.0162
  550BOL    COH  550   3.591   3.501   4.069  0.0191 -0.2470 -0.0661
  551BOL    COH  551   2.469   4.184   2.912 -0.0709  0.0688 -0.1463
  552BOL    COH  552   3.236   0.363   0.674  0.1685 -0.0823  0.0695
  553BOL    COH  553   4.774   5.230   3.812  0.1837 -0.1282  0.2240
  554BOL    COH  554   1.658   2.818   4.708  0.0470 -0.0834  0.2558
  555BOL    COH  555   3.055   5.342   3.143  0.2149  0.2202 -0.0488
  556BOL    COH  556   1.996   5.380   4.768  0.4919 -0.0826  0.3962
  557BOL    COH  557   4.839   2.946   3.269 -0.0401  0.0729  0.0171
  558BOL    COH  558   0.418   5.181   3.552 -0.2001 -0.2350 -0.2454
  559BOL    COH  559   3.964   2.146   0.667 -0.0592  0.0999  0.0457
  560BOL    COH  560   0.343   4.259   5.552 -0.3676 -0.0021  0.2335
  561BOL    COH  561   0.256   2.628   3.017 -0.1796 -0.0958  0.0793
  562BOL    COH  562   2.046   2.281   3.826  0.1034  0.0505 -0.1935
  563BOL    COH  563   5.391   2.612   0.642 -0.3274 -0.1454 -0.3247
  564BOL    COH  564   1.155   5.437   0.744 -0.1819  0.0331  0.1026
  565BOL    COH  565   4.226   1.687   3.958 -0.1202 -0.2451  0.1419
  566BOL    COH  566   3.324   0.274   4.664  0.1452 -0.1122  0.4647
  567BOL    COH  567   1.698   4.264   2.382 -0.4450 -0.3940 -0.4564
  568BOL    COH  568   0.539   4.441   4.045  0.3878  0.2820 -0.1481
  569BOL    COH  569   6.093   1.195   2.708 -0.1465  0.2613  0.0737
  570BOL    COH  570   4.155   3.644   2.020 -0.0890  0.0232 -0.0099
  571BOL    COH  571   1.285   5.703   4.669 -0.1944 -0.2700  0.0905
  572BOL    COH  572   2.622   5.198   2.710  0.1054 -0.2307 -0.2853
  573BOL    COH  573   0.842   2.491   1.211 -0.0532 -0.2269  0.0220
  574BOL    COH  574   3.835   2.387   1.659 -0.2404  0.2010  0.1720
  575BOL    COH  575   3.167   3.262   4.379  0.1973  0.2514 -0.0855
  576BOL    COH  576   1.838   6.111   0.371  0.1438 -0.2290  0.0418
  577BOL    COH  577   0.157   3.400   3.699  0.0521  0.2491  0.0382
  578BOL    COH  578   4.735   6.202   0.389  0.1334  0.0750 -0.2282
  579BOL    COH  579   5.795   4.458   1.526 -0.2134 -0.1639 -0.1304
  580BOL    COH  580   6.359   1.619   0.684  0.2012 -0.0451  0.1431
  581BOL    COH  581   0.472   5.120   5.315  0.1751 -0.1370 -0.0602
  582BOL    COH  582   4.302   5.580   3.301 -0.0494 -0.3883 -0.0819
  583BOL    COH  583   5.453   1.772   5.170  0.2044  0.0098 -0.0432
  584BOL    COH  584   0.033   1.890   1.134  0.0413 -0.0716  0.2911
  585BOL    COH  585   2.013   3.596   5.850  0.2633 -0.3569  0.0510
  586BOL    COH  586   5.357   3.601   1.032  0.1632 -0.0011  0.1044
  587BOL    COH  587   0.198   0.382   0.178  0.0215  0.2393  0.1167
  588BOL    COH  588   1.957   2.551   5.641  0.1928 -0.2080  0.0095
  589BOL    COH  589   2.780   4.484   1.721  0.0435  0.0268  0.1241
  590BOL    COH  590   0.364   0.891   1.820  0.1719  0.1238 -0.0031
  591BOL    COH  591   4.756   2.460   1.677  0.1831  0.0018 -0.1392
  592BOL    COH  592   2.323   2.704   3.058 -0.0893  0.1067 -0.0070
  593BOL    COH  593   0.045   2.791   4.400  0.1090  0.1166  0.2206
  594BOL    COH  594   0.000   2.997   2.837  0.1112 -0.3279 -0.0122
  595BOL    COH  595   5.317   5.331   4.012 -0.0012 -0.0469  0.2460
  596BOL    COH  596   1.871   2.944   0.536 -0.1657  0.1756 -0.0564
  597BOL    COH  597   1.468   3.123   0.424 -0.1437 -0.1879 -0.2192
  598BOL    COH  598   4.845   3.412   5.153  0.1031  0.0853 -0.1441
  599BOL    COH  599   3.792   4.293   2.645 -0.0009 -0.0433  0.0334
  600BOL    COH  600   0.486   6.145   2.736 -0.0674  0.2147 -0.3597
  601BOL    COH  601   0.155   1.147   2.260 -0.1852 -0.3087 -0.0042
  602BOL    COH  602   1.834   0.936   3.725  0.1347 -0.1836  0.1660
  603BOL    COH  603   1.781   5.797   6.386  0.2902  0.0147 -0.1088
  604BOL    COH  604   4.045   3.716   5.339  0.1155  0.0404 -0.1539
  605BOL    COH  605   6.177   5.788   3.787  0.2260  0.0362 -0.3223
  606BOL    COH  606   0.427   1.654   0.855 -0.2313 -0.1601  0.3199
  607BOL    COH  607   5.961   4.707   3.184  0.2489  0.2993 -0.3901
  608BOL    COH  608   4.922   5.336   4.424 -0.3161  0.1261 -0.0521
  609BOL    COH  609   4.269   0.656   3.528 -0.4628  0.0165 -0.1072
  610BOL    COH  610   6.112   1.266   5.776 -0.0660  0.2235 -0.1767
  611BOL    COH  611   0.118   2.412   5.740  0.2324 -0.3211  0.0068
  612BOL    COH  612   2.289   0.156   0.128  0.0673 -0.0606 -0.0498
  613BOL    COH  613   5.103   2.946   2.876  0.0181  0.0959  0.3355
  614BOL    COH  614   1.688   5.678   5.034  0.0295  0.2460  0.1481
  615BOL    COH  615   0.361   1.925   4.432  0.0197  0.3531  0.1467
  616BOL    COH  616   2.742   3.874   3.190 -0.0983  0.0968  0.3857
  617BOL    COH  617   5.354   1.072   3.248  0.0760 -0.0748 -0.0458
  618BOL    COH  618   3.530   1.879   3.449 -0.0542 -0.0061  0.0313
  619BOL    COH  619   0.917   3.671   4.353  0.0199 -0.2858  0.1534
  620BOL    COH  620   3.744   5.172   5.263  0.2458 -0.1061  0.2450
  621BOL    COH  621   1.208   6.035   5.065  0.3033 -0.0465 -0.1124
  622BOL    COH  622   1.754   5.701   4.385  0.2406 -0.0590  0.2525
  623BOL    COH  623   2.835   6.383   4.374 -0.2367  0.1815  0.0519
  624BOL    COH  624   5.675   1.252   5.971  0.2341  0.0863  0.0350
  625BOL    COH  625   1.868   1.600   2.502  0.1576  0.0338  0.0334
  626BOL    COH  626   0.872   5.046   0.903  0.0851 -0.0826  0.0678
  627BOL    COH  627   2.463   2.041   3.884 -0.1052 -0.0220 -0.0561
  628BOL    COH  628   4.493   4.825   3.767 -0.0595  0.1652  0.1240
  629BOL    COH  629   1.177   0.589   4.939  0.0306 -0.1650  0.0555
  630BOL    COH  630   3.590   5.907   0.416 -0.1645  0.0530 -0.0096
  631BOL    COH  631   5.353   1.619   0.818  0.0837  0.1014  0.1715
  632BOL    COH  632   0.725   1.248   5.448 -0.4030 -0.3050 -0.0517
  633BOL    COH  633   2.929   0.930   2.350 -0.2865  0.1307  0.0083
  634BOL    COH  634   4.704   4.277   0.005 -0.2992 -0.2037  0.0400
  635BOL    COH  635   2.684   4.483   4.431 -0.0085  0.0995  0.2266
  636BOL    COH  636   2.655   3.388   0.989  0.2203  0.1702  0.3156
  637BOL    COH  637   2.177   4.198   5.084  0.0879  0.1495  0.0227
  638BOL    COH  638   3.202   3.988   1.896 -0.1001 -0.2987 -0.0179
  639BOL    COH  639   5.489   0.112   2.156 -0.0752  0.0885  0.1651
  640BOL    COH  640   1.458   6.141   4.365 -0.2137  0.0962  0.3831
  641BOL    COH  641   4.149   1.061   0.458 -0.2253 -0.2327  0.0194
  642BOL    COH  642   1.046   6.280   3.643 -0.1689 -0.3370  0.0536
  643BOL    COH  643   3.532   3.049   0.854 -0.2650 -0.0756  0.0473
  644BOL    COH  644   6.126   0.700   3.217 -0.2775 -0.0893 -0.2543
  645BOL    COH  645   1.299   2.778   3.203  0.3593 -0.2609 -0.1735
  646BOL    COH  646   5.699   5.830   0.861  0.1861  0.0997 -0.0983
  647BOL    COH  647   4.524   0.245   0.299 -0.0240  0.0929 -0.4382
  648BOL    COH  648   5.623   5.975   0.018  0.0412 -0.0977 -0.0957
  649BOL    COH  649   2.616   5.946   5.925 -0.1505 -0.5772  0.2413
  650BOL    COH  650   3.605   1.253   5.685  0.1893  0.1550 -0.1045
  651BOL    COH  651   0.840   0.387   0.468  0.1142  0.1201 -0.1951
  652BOL    COH  652   0.990   3.006   3.654  0.2938  0.1188 -0.0182
  653BOL    COH  653   1.048   3.241   2.756  0.1101 -0.0452 -0.2173
  654BOL    COH  654   1.555   5.082   2.530 -0.0872  0.2378  0.1905
  655BOL    COH  655   0.968   0.121   3.211 -0.0081  0.0435 -0.2297
  656BOL    COH  656   5.954   3.923   4.410  0.2972 -0.0026  0.0510
  657BOL    COH  657   1.536   4.807   1.201 -0.0882 -0.0104 -0.0675
  658BOL    COH  658   1.865   0.148   0.493 -0.0098 -0.1158  0.2945
  659BOL    COH  659   3.961   3.380   2.885 -0.1160  0.3138  0.1258
  660BOL    COH  660   6.392   3.800   3.955 -0.4778  0.2576 -0.0879
  661BOL    COH  661   2.891   0.794   1.338 -0.1849  0.1718  0.1821
  662BOL    COH  662   6.124   3.620   3.543 -0.0109 -0.1667 -0.3022
  663BOL    COH  663   2.194   0.015   6.061 -0.0758 -0.0376  0.0903
  664BOL    COH  664   5.352   3.093   3.278  0.0783 -0.1031 -0.2194
  665BOL    COH  665   3.734   2.139   5.689 -0.0754  0.1628  0.1099
  666BOL    COH  666   1.433   6.309   2.126 -0.1396 -0.1054 -0.0986
  667BOL    COH  667   2.097   2.852   4.503 -0.1717 -0.0351  0.1685
  668BOL    COH  668   0.133   5.344   5.719  0.1755  0.1420 -0.0719
  669BOL    COH  669   0.821   1.729   1.802 -0.0685  0.2247  0.0111
  670BOL    COH  670   3.899   1.089   4.847 -0.3331 -0.0752  0.1532
  671BOL    COH  671   3.423   4.175   0.875 -0.0383 -0.0367 -0.0516
  672BOL    COH  672   4.822   3.788   0.178 -0.2722  0.1065  0.2632
  673BOL    COH  673   2.222   5.250   5.632  0.2316 -0.1887 -0.3695
  674BOL    COH  674   2.161   2.277   3.272  0.1078 -0.6501 -0.1211
  675BOL    COH  675   4.780   2.667   0.045  0.1578  0.0876  0.1434
  676BOL    COH  676   3.959   1.861   2.069  0.2346  0.0873  0.2307
  677BOL    COH  677   3.562   1.461   1.560 -0.0954  0.2381  0.0019
  678BOL    COH  678   1.553   0.307   2.523 -0.1910 -0.0999 -0.1960
  679BOL    COH  679   4.202   1.945   2.963  0.0200  0.1734 -0.0179
  680BOL    COH  680   3.771   2.454   2.147  0.1035  0.1483 -0.0051
  681BOL    COH  681   2.160   0.611   5.399  0.3954  0.0229  0.0636
  682BOL    COH  682   1.958   4.129   1.829  0.0839 -0.1856  0.0236
  683BOL    COH  683   0.956   3.821   5.973  0.2018  0.1915  0.1986
  684BOL    COH  684   5.985   4.386   4.764 -0.0486 -0.1058  0.0826
  685BOL    COH  685   1.589   1.899   1.008  0.0038 -0.1086  0.1241
  686BOL    COH  686   0.546   0.189   1.291 -0.2402  0.2201  0.2235
  687BOL    COH  687   2.140   3.549   0.682 -0.2108 -0.3743 -0.0154
  688BOL    COH  688   5.105   0.169   3.343 -0.1233 -0.2638  0.1154
  689BOL    COH  689   4.600   2.765   0.485  0.0458 -0.3816 -0.1411
  690BOL    COH  690   2.189   5.481   2.701 -0.1582 -0.3106  0.3988
  691BOL    COH  691   4.297   1.143   2.532  0.1181 -0.2023 -0.1742
  692BOL    COH  692   5.488   0.769   6.097 -0.2597  0.2230  0.2079
  693BOL    COH  693   1.328   0.461   2.983 -0.0720 -0.3489 -0.0041
  694BOL    COH  694   0.744   4.150   2.655  0.0852  0.1177 -0.0678
  695BOL    COH  695   2.731   0.184   5.194 -0.2711  0.0292  0.1160
  696BOL    COH  696   6.225   5.551   5.124 -0.1413 -0.0332  0.1735
  697BOL    COH  697   2.047   4.517   2.763  0.1110 -0.0174  0.2658
  698BOL    COH  698   4.295   1.297   3.524  0.2083  0.0015  0.2604
  699BOL    COH  699   3.206   4.213   5.487  0.1515 -0.0181 -0.1234
  700BOL    COH  700   1.390   0.406   4.487 -0.0792 -0.0095  0.1687
  701BOL    COH  701   3.329   0.852   0.522  0.1582  0.3440  0.0883
  702BOL    COH  702   0.567   2.096   2.001  0.4274  0.2446 -0.0753
  703BOL    COH  703   5.209   3.958   1.303  0.0285 -0.1305  0.1651
  704BOL    COH  704   0.813   6.132   4.651 -0.1466  0.0808 -0.0781
  705BOL    COH  705   3.919   0.014   2.935 -0.0826 -0.2626 -0.0360
  706BOL    COH  706   5.257   4.111   3.463  0.2728 -0.1070  0.0117
  707BOL    COH  707   1.723   6.083   2.522  0.3742  0.0587  0.0859
  708BOL    COH  708   6.156   2.352   1.883  0.3439 -0.3218 -0.0429
  709BOL    COH  709   0.713   4.186   4.821  0.0707 -0.1032 -0.2704
  710BOL    COH  710   1.786   0.526   2.857 -0.3179  0.4188  0.1725
  711BOL    COH  711   0.725   2.221   4.111 -0.2201  0.0638  0.0274
  712BOL    COH  712   1.619   0.577   3.945 -0.0992 -0.0431 -0.0819
  713BOL    COH  713   1.373   3.401   2.357  0.0489  0.1165 -0.2242
  714BOL    COH  714   2.004   4.699   4.983  0.3298 -0.3694 -0.4263
  715BOL    COH  715   2.072   4.319   4.659 -0.0084  0.2680 -0.0176
  716BOL    COH  716   2.381   3.978   0.521 -0.0799  0.0397 -0.0521
  717BOL    COH  717   3.924   5.901   0.850 -0.2381  0.1406  0.1019
  718BOL    COH  718   1.841   1.089   5.603 -0.0124  0.0326  0.0610
  719BOL    COH  719   3.920   4.460   5.882 -0.1248 -0.2803  0.1006
  720BOL    COH  720   4.309   4.576   5.545 -0.0047 -0.3137  0.0793
  721BOL    COH  721   1.493   6.019   1.681 -0.4122 -0.0448 -0.0554
  722BOL    COH  722   0.575   4.808   3.270 -0.5159  0.0473 -0.2908
  723BOL    COH  723   5.334   0.017   0.198  0.1745 -0.0513 -0.0755
  724BOL    COH  724   3.211   2.552   2.290  0.0404  0.1386  0.0403
  725BOL    COH  725   0.563   6.066   3.204 -0.1653 -0.1405  0.0885
  726BOL    COH  726   0.550   0.396   6.081  0.0330 -0.4030  0.1928
  727BOL    COH  727   6.099   4.047   0.236  0.1124 -0.0381 -0.0661
  728BOL    COH  728   2.676   5.700   5.487  0.2745  0.0507  0.1230
  729BOL    COH  729   2.284   6.284   0.578  0.0460 -0.1812 -0.1664
  730BOL    COH  730   1.896   2.050   2.314 -0.0563 -0.1271 -0.2047
  731BOL    COH  731   2.528   0.408   1.629  0.1416  0.2054 -0.0021
  732BOL    COH  732   6.278   5.477   4.238  0.0756  0.1342 -0.3197
  733BOL    COH  733   5.848   1.967   4.431 -0.3937  0.0687  0.0228
  734BOL    COH  734   0.769   0.738   5.349  0.2410 -0.3129  0.0142
  735BOL    COH  735   0.465   5.224   1.714 -0.0947  0.3104  0.0622
  736BOL    COH  736   4.941   4.243   0.529 -0.1115 -0.3034 -0.0610
  737BOL    COH  737   4.533   5.165   4.803 -0.2182 -0.0040 -0.1679
  738BOL    COH  738   3.338   2.098   5.328 -0.0722  0.1580  0.1880
  739BOL    COH  739   3.786   3.901   1.157 -0.1468 -0.0117 -0.1976
  740BOL    COH  740   5.462   0.644   1.628  0.0415  0.2255  0.2515
  741BOL    COH  741   3.455   4.627   6.218 -0.0235  0.0960 -0.0684
  742BOL    COH  742   2.415   0.998   0.652 -0.1164  0.2813  0.1614
  743BOL    COH  743   5.375   0.330   6.166 -0.3584 -0.1453 -0.0254
  744BOL    COH  744   1.955   4.407   1.291  0.1412 -0.1517  0.0920
  745BOL    COH  745   6.021   3.779   5.345 -0.0103  0.0920 -0.1256
  746BOL    COH  746   5.276   0.277   3.825 -0.0355 -0.6220  0.1166
  747BOL    COH  747   0.000   6.099   5.039 -0.1022 -0.0202 -0.0025
  748BOL    COH  748   5.350   0.793   5.103  0.2674  0.2039 -0.0723
  749BOL    COH  749   4.258   5.300   3.726 -0.4052  0.0062 -0.2279
  750BOL    COH  750   2.479   1.107   5.458 -0.1531 -0.3205  0.0131
  751BOL    COH  751   3.269   2.557   5.523 -0.0516 -0.1969 -0.0045
  752BOL    COH  752   0.168   4.735   5.470 -0.3071  0.2675  0.1803
  753BOL    COH  753   3.212   0.309   5.148  0.1736  0.3765  0.2914
  754BOL    COH  754   4.842   3.390   2.923 -0.0274 -0.3657 -0.0462
  755BOL    COH  755   1.914   2.100   0.567  0.2003  0.0563 -0.0632
  756BOL    COH  756   1.373   1.178   0.598 -0.0742  0.2512 -0.0874
  757BOL    COH  757   1.904   3.591   4.951 -0.3066 -0.2222 -0.1670
  758BOL    COH  758   0.301   3.441   6.174 -0.1142  0.2029  0.3399
  759BOL    COH  759   2.573   4.076   4.749 -0.0034 -0.1767  0.2044
  760BOL    COH  760   3.321   0.838   4.436 -0.2750 -0.1643 -0.1345
  761BOL    COH  761   1.655   2.274   1.952 -0.2358  0.1783  0.4028
  762BOL    COH  762   5.946   2.916   4.258 -0.1280 -0.0281  0.1796
  763BOL    COH  763   4.159   1.808   5.589 -0.0568 -0.0175 -0.1384
  764BOL    COH  764   4.709   3.175   4.481 -0.2933 -0.0296 -0.0833
  765BOL    COH  765   4.296   4.034   5.045 -0.0119  0.1828  0.0637
  766BOL    COH  766   3.138   1.245   1.222  0.0489 -0.1043 -0.2336
  767BOL    COH  767   0.570   6.136   3.733  0.3716 -0.6735 -0.3837
  768BOL    COH  768   0.075   5.804   0.898  0.1815 -0.0587 -0.1824
  769BOL    COH  769   0.493   2.136   0.006  0.0267  0.0303 -0.1429
  770BOL    COH  770   4.731   3.542   2.301 -0.0346  0.1620 -0.0727
  771BOL    COH  771   5.478   1.555   3.299 -0.1009 -0.2569 -0.1877
  772BOL    COH  772   0.067   5.434   4.699  0.2504  0.0835  0.2144
  773BOL    COH  773   3.725   0.624   3.404 -0.2007  0.0113 -0.0410
  774BOL    COH  774   4.562   5.548   4.092  0.1350 -0.0744 -0.0540
  775BOL    COH  775   4.103   4.454   4.634 -0.1312 -0.1285 -0.4751
  776BOL    COH  776   0.061   4.575   4.660 -0.0086  0.1776 -0.1360
  777BOL    COH  777   5.352   5.213   1.749 -0.0621 -0.2495 -0.0221
  778BOL    COH  778   3.187   2.635   0.968 -0.1297 -0.1869 -0.0781
  779BOL    COH  779   5.860   3.880   4.896  0.2623 -0.0661 -0.1547
  780BOL    COH  780   5.627   0.279   2.766  0.2855 -0.1805 -0.0218
  781BOL    COH  781   2.794   5.987   0.730 -0.0029  0.0955 -0.2342
  782BOL    COH  782   5.129   3.770   1.702 -0.1470  0.2915  0.2273
  783BOL    COH  783   1.589   0.017   3.156  0.3828 -0.2965 -0.0489
  784BOL    COH  784   5.946   0.667   5.980 -0.1582 -0.0291  0.1205
  785BOL    COH  785   2.533   3.853   0.957 -0.2280 -0.2186  0.0193
  786BOL    COH  786   3.246   3.792   5.802 -0.2307  0.1922  0.2409
  787BOL    COH  787   2.358   2.819   5.357 -0.1162 -0.2718  0.1966
  788BOL    COH  788   1.910   5.146   1.327 -0.1325 -0.0662 -0.0744
  789BOL    COH  789   4.350   5.840   5.924 -0.3265  0.3016  0.1518
  790BOL    COH  790   2.940   0.807   6.196 -0.4885 -0.1171 -0.0162
  791BOL    COH  791   0.072   3.723   6.422 -0.2105 -0.0991  0.2354
  792BOL    COH  792   1.335   2.744   1.070  0.0896 -0.0875 -0.0313
  793BOL    COH  793   4.743   6.182   5.952  0.1191  0.1472  0.3706
  794BOL    COH  794   6.254   4.674   0.058 -0.0677  0.0369 -0.0898
  795BOL    COH  795   4.447   1.914   6.311 -0.0179 -0.0956  0.1555
  796BOL    COH  796   5.006   2.542   5.828 -0.0193 -0.1714  0.1513
  797BOL    COH  797   4.181   2.280   0.231 -0.2249 -0.2330  0.0407
  798BOL    COH  798   1.114   3.809   0.937 -0.1972  0.0711  0.1759
  799BOL    COH  799   5.704   3.800   0.071 -0.3560 -0.2442 -0.1011
  800BOL    COH  800   3.461   1.657   2.644 -0.0551 -0.0481 -0.1014
  801BOL    COH  801   4.366   3.183   2.057  0.0893  0.1352  0.0109
  802BOL    COH  802   2.442   2.941   1.320  0.1678  0.0853  0.0253
  803BOL    COH  803   5.941   0.379   4.940 -0.0965  0.3066 -0.1109
  804BOL    COH  804   3.124   2.570   0.465  0.0111 -0.0551  0.2706
  805BOL    COH  805   2.448   3.889   5.664  0.3490  0.2201  0.1833
  806BOL    COH  806   2.166   4.969   2.991  0.3885  0.0266  0.3240
  807BOL    COH  807   1.166   5.397   2.651 -0.0290 -0.1024  0.4345
  808BOL    COH  808   1.458   0.204   5.211 -0.0293  0.0843  0.2099
  809BOL    COH  809   1.272   6.375   2.700 -0.1247  0.0937  0.1066
  810BOL    COH  810   4.297   2.687   3.816 -0.0077  0.3129 -0.1047
  811BOL    COH  811   4.593   1.171   6.033  0.2117  0.0384 -0.1083
  812BOL    COH  812   0.988   0.860   5.858  0.1144 -0.0546  0.1119
  813BOL    COH  813   2.180   3.687   4.559  0.1759 -0.3474  0.1764
  814BOL    COH  814   0.379   2.251   2.459  0.0127 -0.3228  0.1386
  815BOL    COH  815   3.635   2.061   4.727 -0.1939 -0.0459 -0.0131
  816BOL    COH  816   0.589   4.718   0.720  0.1789 -0.0140  0.3531
  817BOL    COH  817   1.462   3.775   5.207  0.0601  0.1548  0.0238
  818BOL    COH  818   4.112   3.544   3.729  0.1614 -0.0250 -0.2040
  819BOL    COH  819   1.940   0.901   4.280  0.0496 -0.1417  0.1256
  820BOL    COH  820   6.207   4.327   0.656  0.0545  0.0410  0.0744
  821BOL    COH  821   5.069   6.055   0.022 -0.2033 -0.1474  0.0825
  822BOL    COH  822   1.141   0.017   1.762 -0.3830 -0.0522  0.1000
  823BOL    COH  823   1.407   5.057   3.455 -0.1265  0.4666  0.0906
  824BOL    COH  824   0.497   4.860   1.182 -0.1266  0.2071  0.1444
  825BOL    COH  825   4.483   3.949   2.309 -0.0639  0.2883  0.0826
  826BOL    COH  826   3.035   4.848   3.037  0.2286 -0.1725 -0.3846
  827BOL    COH  827   5.915   1.713   5.397 -0.6168 -0.2036 -0.1603
  828BOL    COH  828   4.672   4.632   1.494  0.1641 -0.3096 -0.0459
  829BOL    COH  829   5.663   2.618   3.131  0.1267  0.0678  0.3999
  830BOL    COH  830   5.664   0.811   0.144  0.2834  0.0811 -0.2871
  831BOL    COH  831   4.902   5.898   4.011 -0.0474  0.2030 -0.0529
  832BOL    COH  832   2.815   0.308   0.090  0.2565 -0.1077  0.0668
  833BOL    COH  833   3.533   2.106   2.932  0.3233 -0.0464 -0.0445
  834BOL    COH  834   6.351   5.838   0.324  0.1056  0.0054  0.1527
  835BOL    COH  835   6.361   0.571   2.030  0.3313  0.3118 -0.0707
  836BOL    COH  836   6.089   6.295   3.618 -0.0528  0.1440 -0.0897
  837BOL    COH  837   4.736   6.214   3.523  0.0497  0.2029  0.2898
  838BOL    COH  838   4.864   5.944   1.734 -0.0755  0.1396 -0.3228
  839BOL    COH  839   5.796   0.756   2.822  0.3350  0.2923 -0.0444
  840BOL    COH  840   1.030   3.379   0.629  0.0594  0.0825  0.2943
  841BOL    COH  841   4.456   2.910   5.785 -0.2028  0.1269  0.1748
  842BOL    COH  842   4.127   3.608   5.856 -0.2808  0.2311 -0.2151
  843BOL    COH  843   1.926   5.191   3.449  0.2513  0.0047  0.1025
  844BOL    COH  844   3.801   3.907   4.869 -0.0949  0.1238  0.3639
  845BOL    COH  845   1.042   0.374   5.993  0.1484  0.0847  0.1946
  846BOL    COH  846   1.402   1.544   2.635 -0.0744  0.1571  0.3172
  847BOL    COH  847   1.348   5.233   5.878  0.0727 -0.0906  0.1547
  848BOL    COH  848   4.097   3.171   3.310  0.0898  0.0464  0.2344
  849BOL    COH  849   3.767   0.447   2.640  0.1908  0.0468 -0.5026
  850BOL    COH  850   2.419   6.007   1.084 -0.0569  0.0995  0.0827
  851BOL    COH  851   2.159   1.480   5.711  0.1835  0.2303 -0.0839
  852BOL    COH  852   5.906   3.043   3.776 -0.0926 -0.0553  0.0615
  853BOL    COH  853   2.518   6.011   1.633  0.0434 -0.1512  0.0287
  854BOL    COH  854   4.906   2.958   4.892 -0.0258  0.4401 -0.2550
  855BOL    COH  855   3.103   3.040   5.863 -0.1439  0.0601  0.1063
  856BOL    COH  856   5.305   4.547   0.334 -0.2037 -0.0267  0.1924
  857BOL    COH  857   2.355   3.638   1.776  0.3781 -0.1646  0.3269
  858BOL    COH  858   1.362   5.532   6.330  0.0552  0.1353 -0.3844
  859BOL    COH  859   2.277   0.313   3.088 -0.0628 -0.2714  0.2866
  860BOL    COH  860   2.783   5.681   6.299 -0.2197  0.0736  0.0520
  861BOL    COH  861   3.747   3.684   0.044  0.0922  0.0780  0.0688
  862BOL    COH  862   4.897   5.437   3.129  0.1171 -0.0123  0.1203
  863BOL    COH  863   4.429   5.977   5.120  0.1486 -0.0025  0.0030
  864BOL    COH  864   0.651   0.949   0.352  0.0362 -0.1218  0.2850
  865BOL    COH  865   3.451   5.118   4.703 -0.0284  0.0377 -0.1275
  866BOL    COH  866   5.061   0.323   1.447 -0.0961  0.0726 -0.3506
  867BOL    COH  867   3.045   3.839   2.363 -0.1085 -0.0367 -0.0321
  868BOL    COH  868   3.235   1.209   2.801  0.3140 -0.0515 -0.3522
  869BOL    COH  869   3.836   5.406   2.939 -0.3039  0.1016 -0.0624
  870BOL    COH  870   5.681   0.440   1.149  0.0377  0.0696 -0.0702
  871BOL    COH  871   2.300   5.616   6.180 -0.0798  0.0848  0.0967
  872BOL    COH  872   4.177   1.927   4.648  0.1333  0.0694  0.1390
  873BOL    COH  873   2.878   1.740   5.878 -0.3297  0.4612 -0.1158
  874BOL    COH  874   1.484   5.103   1.639  0.0485 -0.0234 -0.0529
  875BOL    COH  875   2.017   3.074   5.144 -0.1042 -0.3177 -0.2057
  876BOL    COH  876   2.279   4.796   3.454  0.0785 -0.0990 -0.0253
  877BOL    COH  877   2.980   4.365   4.901  0.1799 -0.0164 -0.1565
  878BOL    COH  878   5.969   1.198   0.836  0.0496 -0.3842  0.1146
  879BOL    COH  879   3.175   4.958   1.906 -0.0486 -0.0773 -0.1078
  880BOL    COH  880   6.368   5.152   1.006 -0.0877 -0.0558 -0.1370
  881BOL    COH  881   1.744   2.354   5.184  0.0682  0.5314 -0.0717
  882BOL    COH  882   5.691   1.265   0.427  0.0870  0.3021  0.3662
  883BOL    COH  883   0.528   3.391   4.962  0.2491 -0.2009 -0.2254
  884BOL    COH  884   2.318   5.660   4.142  0.0304  0.1653  0.3142
  885BOL    COH  885   2.640   4.703   6.251 -0.0891  0.0292  0.2430
  886BOL    COH  886   1.623   1.258   5.065 -0.1237  0.0055  0.0315
  887BOL    COH  887   4.453   3.107   3.694 -0.1337  0.0689 -0.0102
  888BOL    COH  888   3.036   1.813   0.850 -0.1256  0.0999  0.2648
  889BOL    COH  889   0.411   5.468   4.302 -0.0047 -0.1714 -0.0427
  890BOL    COH  890   5.699   2.925   4.958 -0.3587 -0.0224  0.1445
  891BOL    COH  891   2.350   3.401   2.416 -0.2349  0.0281 -0.1196
  892BOL    COH  892   5.107   0.289   5.129  0.0170 -0.3170  0.2281
  893BOL    COH  893   0.490   5.934   0.579  0.1830 -0.0080 -0.2646
  894BOL    COH  894   5.687   2.704   0.247 -0.0767  0.0594 -0.3081
  895BOL    COH  895   4.904   3.379   3.517 -0.1106 -0.2172  0.0993
  896BOL    COH  896   1.317   4.102   5.630  0.0765  0.0303 -0.1361
  897BOL    COH  897   4.106   2.196   3.775  0.2103 -0.0201 -0.2769
  898BOL    COH  898   5.456   6.065   5.285  0.2475  0.0852 -0.0160
  899BOL    COH  899   3.612   3.598   2.299  0.0351 -0.0898  0.0682
  900BOL    COH  900   4.368   1.490   1.891  0.0609  0.0061  0.1938
  901BOL    COH  901   0.119   2.589   6.243 -0.0027 -0.2744  0.2961
  902BOL    COH  902   3.564   0.243   2.270 -0.1754  0.1495 -0.0337
  903BOL    COH  903   3.075   1.006   5.700  0.0826  0.1679 -0.1262
  904BOL    COH  904   2.157   2.443   2.641  0.3912 -0.0121 -0.0523
  905BOL    COH  905   6.118   2.466   0.275 -0.0838 -0.0256 -0.1474
  906BOL    COH  906   4.720   5.007   3.317 -0.0165 -0.1401  0.0156
  907BOL    COH  907   5.406   2.924   6.293 -0.0331  0.3067  0.4553
  908BOL    COH  908   0.383   3.003   4.118  0.2257  0.0541 -0.0837
  909BOL    COH  909   1.647   3.368   6.215  0.2590  0.3094 -0.1175
  910BOL    COH  910   3.474   5.405   3.466  0.2588  0.1383  0.3263
  911BOL    COH  911   1.484   3.721   4.118 -0.2298  0.5111  0.0833
  912BOL    COH  912   5.120   3.009   4.254 -0.1161  0.2007 -0.0373
  913BOL    COH  913   4.763   5.948   1.139  0.0417  0.2453  0.1019
  914BOL    COH  914   1.210   2.534   1.606  0.3105  0.0936  0.2561
  915BOL    COH  915   2.797   2.599   3.145 -0.0154 -0.0873 -0.1865
  916BOL    COH  916   1.137   0.512   5.486 -0.3262  0.4625 -0.1991
  917BOL    COH  917   4.022   4.768   2.841  0.0346 -0.2770 -0.2344
  918BOL    COH  918   2.064   4.782   0.998  0.0621 -0.0295  0.0052
  919BOL    COH  919   0.280   0.978   5.250 -0.2187 -0.0814 -0.0397
  920BOL    COH  920   0.836   1.347   0.590  0.0745 -0.0969  0.1226
  921BOL    COH  921   2.713   3.079   2.873  0.0506  0.2004  0.3834
  922BOL    COH  922   1.785   0.722   2.364 -0.0390 -0.2783 -0.0276
  923BOL    COH  923   3.829   1.088   1.870 -0.0080  0.3037  0.0688
  924BOL    COH  924   4.135   6.129   0.427 -0.1864 -0.1019  0.1682
  925BOL    COH  925   6.151   0.526   0.051  0.1331  0.0519 -0.0455
  926BOL    COH  926   5.264   1.532   5.634 -0.0162  0.2897 -0.3798
  927BOL    COH  927   3.327   5.826   1.370  0.0037  0.3356 -0.0691
  928BOL    COH  928   3.451   4.607   4.684 -0.0922  0.0902 -0.0358
  929BOL    COH  929   2.931   3.742   5.421  0.0831 -0.0951 -0.0296
  930BOL    COH  930   2.112   1.016   5.043  0.1674  0.0624  0.0257
  931BOL    COH  931   3.594   0.257   1.060 -0.0176  0.0426  0.0008
  932BOL    COH  932   3.869   4.137   4.324  0.0392 -0.2669  0.2115
  933BOL    COH  933   6.377   2.468   4.952 -0.1261 -0.0235  0.4772
  934BOL    COH  934   6.012   2.454   4.045  0.1132  0.0566 -0.2663
  935BOL    COH  935   5.647   3.869   3.683  0.2065  0.2441 -0.3084
  936BOL    COH  936   0.459   6.420   5.053 -0.0593 -0.1098  0.2080
  937BOL    COH  937   3.062   6.283   5.926  0.2199  0.1770 -0.1395
  938BOL    COH  938   1.031   4.726   1.388 -0.1481  0.3674 -0.1164
  939BOL    COH  939   4.529   4.488   0.615 -0.0628  0.0455 -0.1833
  940BOL    COH  940   3.204   5.601   5.880 -0.0022  0.0779  0.2013
  941BOL    COH  941   2.988   4.408   6.407  0.2806  0.0560  0.0348
  942BOL    COH  942   2.839   4.107   4.104 -0.1677  0.1653 -0.1032
  943BOL    COH  943   4.878   2.319   4.919 -0.1214 -0.1029  0.0724
  944BOL    COH  944   1.002   4.825   3.655 -0.1224 -0.1174 -0.2571
  945BOL    COH  945   3.207   5.597   4.747  0.2592  0.0353  0.0970
  946BOL    COH  946   1.656   1.776   4.441  0.0919  0.1966 -0.1333
  947BOL    COH  947   4.691   5.184   2.753 -0.4368 -0.1003  0.2652
  948BOL    COH  948   5.686   2.619   5.982  0.1673 -0.1346  0.0428
  949BOL    COH  949   0.333   2.939   2.054 -0.0668 -0.0955  0.0245
  950BOL    COH  950   0.899   1.672   3.390 -0.1953  0.4455 -0.1031
  951BOL    COH  951   6.408   5.555   6.309  0.0689  0.3020  0.3779
  952BOL    COH  952   3.921   0.951   5.331 -0.1693  0.2220  0.0597
  953BOL    COH  953   0.659   1.565   3.996 -0.1779 -0.3218 -0.0324
  954BOL    COH  954   5.535   2.266   3.843 -0.0874 -0.1608  0.0126
  955BOL    COH  955   5.917   5.240   2.108 -0.1461  0.3460 -0.2386
  956BOL    COH  956   5.786   0.664   5.447 -0.0920  0.0812  0.1380
  957BOL    COH  957   1.071   3.891   1.862  0.2300  0.0376  0.1243
  958BOL    COH  958   4.481   4.106   1.324  0.2569  0.0941 -0.0650
  959BOL    COH  959   1.572   3.772   2.104 -0.0973 -0.0231 -0.2554
  960BOL    COH  960   1.215   3.320   4.581 -0.1419  0.0211  0.1238
  961BOL    COH  961   3.123   4.881   0.155 -0.0465  0.1232  0.1944
  962BOL    COH  962   5.076   4.004   2.176  0.1745  0.1715  0.2306
  963BOL    COH  963   5.176   4.846   5.665 -0.0534  0.0117  0.0692
  964BOL    COH  964   6.070   5.091   5.700 -0.2085  0.0819  0.1197
  965BOL    COH  965   1.441   4.312   1.991  0.1165  0.0948  0.1656
  966BOL    COH  966   6.154   1.348   0.202 -0.0068  0.1768 -0.1858
  967BOL    COH  967   1.418   3.163   5.804  0.0063  0.0787 -0.3647
  968BOL    COH  968   3.480   4.781   5.745  0.0520  0.1600 -0.1288
  969BOL    COH  969   4.564   0.795   0.324  0.4418 -0.0570  0.1883
  970BOL    COH  970   5.107   1.235   1.553  0.0876  0.0868  0.0350
  971BOL    COH  971   6.006   1.102   4.450 -0.0825 -0.1846 -0.1690
  972BOL    COH  972   2.577   0.342   4.720  0.0042 -0.1387 -0.0070
  973BOL    COH  973   5.641   5.280   5.856  0.2999 -0.1638 -0.0840
  974BOL    COH  974   1.095   2.971   1.441 -0.0172 -0.0270  0.0262
  975BOL    COH  975   4.280   4.995   5.351  0.0909 -0.3226 -0.1237
  976BOL    COH  976   5.431   2.235   5.914  0.2236 -0.0173 -0.3104
  977BOL    COH  977   2.500   2.610   0.504 -0.1099 -0.0340 -0.3613
  978BOL    COH  978   1.644   5.411   5.471  0.2617 -0.2201  0.0768
  979BOL    COH  979   0.181   2.421   0.313  0.3584  0.3566 -0.0573
  980BOL    COH  980   4.454   0.696   5.996  0.2973  0.1727  0.0267
  981BOL    COH  981   0.854   5.390   5.505 -0.3190 -0.1584 -0.0474
  982BOL    COH  982   6.122   5.581   0.709 -0.3238  0.4376  0.2230
  983BOL    COH  983   2.845   2.840   5.525  0.1511 -0.0303 -0.1258
  984BOL    COH  984   5.850   3.385   1.051  0.0748  0.1214  0.0892
  985BOL    COH  985   2.218   1.477   4.231  0.1471 -0.0185  0.1568
  986BOL    COH  986   1.432   3.667   5.833  0.0515  0.1844 -0.0864
  987BOL    COH  987   2.933   0.154   1.602 -0.1968 -0.1645  0.2400
  988BOL    COH  988   3.971   3.126   6.054 -0.0476 -0.2200  0.2397
  989BOL    COH  989   6.216   1.136   3.635  0.0502 -0.2521 -0.2856
  990BOL    COH  990   1.722   3.449   4.522 -0.1705 -0.2369  0.0701
  991BOL    COH  991   0.011   3.434   3.146  0.3892  0.0738 -0.2993
  992BOL    COH  992   3.364   5.417   1.125 -0.0330 -0.1684  0.0870
  993BOL    COH  993   5.836   0.074   6.357 -0.3199 -0.5982 -0.0147
  994BOL    COH  994   6.191   3.162   1.461 -0.2055 -0.0794 -0.2071
  995BOL    COH  995   4.004   2.836   4.789 -0.0923 -0.0905  0.0913
  996BOL    COH  996   4.539   3.902   0.617  0.2126 -0.2687 -0.0514
  997BOL    COH  997   1.201   5.192   4.546  0.2049 -0.0205 -0.0765
  998BOL    COH  998   4.401   1.193   5.583  0.4410  0.0193 -0.2010
  999BOL    COH  999   5.580   3.725   2.810  0.1961  0.0009 -0.1579
 1000BOL    COH 1000   0.652   4.074   2.157  0.0142  0.1868  0.1642
 1001BOL    COH 1001   1.139   2.708   4.647 -0.1123 -0.3050  0.2310
 1002BOL    COH 1002   2.619   6.282   2.585 -0.2396 -0.3362  0.1649
 1003BOL    COH 1003   2.167   3.346   6.246  0.3585  0.2752  0.2430
 1004BOL    COH 1004   6.109   0.310   1.643 -0.1781 -0.2627  0.3615
 1005BOL    COH 1005   0.474   2.612   0.837 -0.0890  0.1453 -0.0678
 1006BOL    COH 1006   1.530   2.850   3.666  0.0453  0.0651  0.2092
 1007BOL    COH 1007   3.506   5.966   4.094 -0.0832 -0.1555 -0.0752
 1008BOL    COH 1008   5.704   1.545   2.384  0.1218  0.3447  0.1884
 1009BOL    COH 1009   3.076   1.829   1.617 -0.1096  0.0127  0.1958
 1010BOL    COH 1010   2.998   1.661   4.016 -0.2546 -0.1154 -0.1750
 1011BOL    COH 1011   1.985   0.677   6.387  0.1338  0.0873 -0.0311
 1012BOL    COH 1012   4.974   0.254   5.912  0.3392 -0.1145 -0.0661
 1013BOL    COH 1013   4.344   5.034   6.144 -0.0133 -0.1344 -0.2341
 1014BOL    COH 1014   2.690   1.111   2.813 -0.1226  0.1369 -0.1139
 1015BOL    COH 1015   4.332   6.220   1.942  0.1031  0.0016  0.1117
 1016BOL    COH 1016   0.278   2.975   0.126 -0.0593 -0.0010  0.2446
 1017BOL    COH 1017   3.316   3.775   3.515  0.0169  0.1028 -0.0332
 1018BOL    COH 1018   2.758   0.016   0.832 -0.1244 -0.0173  0.2741
 1019BOL    COH 1019   4.760   0.034   3.957 -0.1786 -0.0956 -0.1520
 1020BOL    COH 1020   1.322   5.279   1.237 -0.0566  0.1331  0.0190
 1021BOL    COH 1021   4.252   0.992   2.075  0.1618  0.0408 -0.3138
 1022BOL    COH 1022   4.732   5.651   4.749  0.1355  0.3653 -0.2074
 1023BOL    COH 1023   2.058   5.600   0.907 -0.3688 -0.0346  0.2372
 1024BOL    COH 1024   1.877   0.017   5.581 -0.1335  0.1710  0.0446
 1025BOL    COH 1025   0.399   5.881   4.801 -0.2404  0.0359  0.1598
 1026BOL    COH 1026   5.697   1.568   6.346  0.3287 -0.1479  0.0392
 1027BOL    COH 1027   1.385   2.106   0.576 -0.1159  0.1064 -0.1700
 1028BOL    COH 1028   0.830   1.053   2.350  0.1425 -0.3589  0.1140
 1029BOL    COH 1029   2.378   2.829   6.198  0.1306  0.2317  0.2140
 1030BOL    COH 1030   5.080   4.036   5.642 -0.0064 -0.0155  0.0613
 1031BOL    COH 1031   1.837   5.589   2.335  0.0799 -0.0820  0.1803
 1032BOL    COH 1032   0.727   3.122   2.421 -0.1292  0.2065  0.0585
 1033BOL    COH 1033   0.092   5.859   5.454  0.1074 -0.1969  0.2728
 1034BOL    COH 1034   5.145   2.532   3.991  0.0531  0.2256 -0.0326
 1035BOL    COH 1035   3.019   5.402   0.204  0.1740  0.2420  0.0690
 1036BOL    COH 1036   0.613   2.636   6.408  0.3437 -0.1660 -0.1736
 1037BOL    COH 1037   2.236   3.506   5.382 -0.1782 -0.1384  0.0824
 1038BOL    COH 1038   5.595   0.127   1.661 -0.0249 -0.0337  0.0306
 1039BOL    COH 1039   0.520   1.034   2.988  0.0834  0.1364  0.1892
 1040BOL    COH 1040   5.902   1.962   4.911 -0.3127 -0.1038  0.0806
 1041BOL    COH 1041   1.491   3.940   1.647 -0.1942 -0.0582  0.1570
 1042BOL    COH 1042   6.403   3.773   0.760 -0.0339 -0.2035 -0.0906
 1043BOL    COH 1043   5.108   1.175   6.060  0.2476  0.2212  0.0669
 1044BOL    COH 1044   1.800   4.017   5.915  0.4239 -0.0146 -0.1852
 1045BOL    COH 1045   6.156   0.190   5.436  0.3468  0.0122 -0.2795
 1046BOL    COH 1046   5.940   4.648   5.985  0.2065  0.3700 -0.0319
 1047BOL    COH 1047   4.921   1.208   1.052  0.1490 -0.2362  0.0861
 1048BOL    COH 1048   2.741   1.338   0.790  0.1403 -0.0559 -0.2513
 1049BOL    COH 1049   2.002   2.007   5.537 -0.1435  0.0453 -0.0402
 1050BOL    COH 1050   4.765   3.719   4.739 -0.1554  0.0758 -0.1374
 1051BOL    COH 1051   4.377   4.258   1.790  0.1276 -0.1358 -0.0881
 1052BOL    COH 1052   0.080   4.363   3.240  0.1615 -0.0191 -0.0872
 1053BOL    COH 1053   1.310   2.996   6.293  0.1308  0.0238 -0.0302
 1054BOL    COH 1054   0.216   4.524   1.366  0.0756  0.0166 -0.2653
 1055BOL    COH 1055   0.743   3.334   5.938  0.0024  0.0271  0.0073
 1056BOL    COH 1056   3.180   4.686   0.840 -0.0337  0.0344 -0.0314
 1057BOL    COH 1057   2.176   5.257   0.548 -0.0088  0.0574  0.3551
 1058BOL    COH 1058   5.673   5.929   3.512  0.0917 -0.2587  0.1209
 1059BOL    COH 1059   2.218   3.420   1.291  0.0433 -0.2685 -0.2787
 1060BOL    COH 1060   5.473   5.568   0.558 -0.1153 -0.3368 -0.1636
 1061BOL    COH 1061   5.778   4.547   0.965  0.0728  0.0477 -0.0873
 1062BOL    COH 1062   4.753   5.501   6.021  0.0984  0.0622  0.2485
 1063BOL    COH 1063   2.408   5.182   1.230  0.0145  0.2831  0.2855
 1064BOL    COH 1064   3.710   3.822   5.984  0.1557  0.2025  0.1492
 1065BOL    COH 1065   6.223   3.392   5.736 -0.0884  0.3725  0.0162
 1066BOL    COH 1066   3.527   6.172   3.143 -0.2083 -0.1423  0.0275
 1067BOL    COH 1067   3.333   5.432   4.021  0.4005  0.1233 -0.0334
 1068BOL    COH 1068   3.646   4.631   1.286  0.1030  0.2995  0.0837
 1069BOL    COH 1069   5.008   5.475   1.471  0.0220 -0.2445 -0.2083
 1070BOL    COH 1070   1.405   3.880   6.281 -0.0560 -0.3493 -0.0578
 1071BOL    COH 1071   0.092   0.336   2.447 -0.1012 -0.3337  0.2468
 1072BOL    COH 1072   0.892   5.297   1.417  0.1221 -0.2289 -0.3069
 1073BOL    COH 1073   5.723   4.060   1.242 -0.2435  0.2006 -0.0743
 1074BOL    COH 1074   0.181   3.184   5.217 -0.1846 -0.3052  0.4058
 1075BOL    COH 1075   0.787   5.772   5.117  0.2061 -0.3485 -0.0890
 1076BOL    COH 1076   0.691   0.527   4.919  0.0000 -0.3851 -0.0822
 1077BOL    COH 1077   0.031   2.390   0.887 -0.0406  0.0327 -0.0687
 1078BOL    COH 1078   0.042   0.338   3.352 -0.3371  0.1771  0.0794
 1079BOL    COH 1079   3.541   0.781   2.964 -0.0969  0.0410 -0.1279
 1080BOL    COH 1080   5.765   2.377   1.539 -0.2880  0.0426 -0.0872
 1081BOL    COH 1081   0.214   1.378   2.704 -0.2434  0.2017 -0.0891
 1082BOL    COH 1082   5.341   5.339   4.913  0.4603 -0.0007 -0.3615
 1083BOL    COH 1083   5.332   2.730   1.618  0.2943 -0.3389 -0.1980
 1084BOL    COH 1084   4.506   6.335   0.930 -0.0158  0.0175 -0.1183
 1085BOL    COH 1085   3.940   4.785   3.724 -0.1310  0.0226 -0.0648
 1086BOL    COH 1086   5.055   4.747   2.566 -0.2756 -0.0620  0.0463
 1087BOL    COH 1087   4.611   1.883   2.082 -0.2226 -0.0537  0.3674
 1088BOL    COH 1088   4.940   3.596   5.934  0.3039 -0.0592 -0.1334
 1089BOL    COH 1089   0.138   5.064   4.349  0.0111 -0.1587 -0.1878
 1090BOL    COH 1090   4.048   1.354   1.519  0.4254  0.0023  0.1599
 1091BOL    COH 1091   5.838   4.194   4.041  0.2571  0.1140 -0.2145
 1092BOL    COH 1092   3.550   3.056   5.226 -0.1469 -0.2529  0.1364
 1093BOL    COH 1093   0.898   5.952   1.704 -0.1081 -0.2979 -0.1373
 1094BOL    COH 1094   1.793   5.547   0.444 -0.1091 -0.2464 -0.1467
 1095BOL    COH 1095   0.861   1.408   2.780 -0.0702  0.3014  0.2773
 1096BOL    COH 1096   4.711   2.796   2.292  0.1998  0.2676  0.2278
 1097BOL    COH 1097   0.198   6.290   3.481 -0.1918 -0.1177 -0.3181
 1098BOL    COH 1098   2.973   0.409   4.284  0.0309  0.1954  0.1679
 1099BOL    COH 1099   2.488   2.085   2.394 -0.1855 -0.0266 -0.1569
 1100BOL    COH 1100   1.684   4.290   3.022 -0.1872  0.3325 -0.0546
 1101BOL    COH 1101   4.593   5.780   2.868  0.0255 -0.0855  0.0148
 1102BOL    COH 1102   4.976   6.087   2.595  0.1902 -0.0923 -0.2308
 1103BOL    COH 1103   1.034   6.252   5.999  0.2792  0.0107  0.1769
 1104BOL    COH 1104   2.845   2.305   4.028  0.2758 -0.4236 -0.0996
 1105BOL    COH 1105   4.967   5.279   0.508 -0.0774  0.0142  0.2357
 1106BOL    COH 1106   3.334   1.148   0.053  0.1178  0.2661 -0.3163
 1107BOL    COH 1107   4.819   3.324   3.981 -0.0342 -0.1156 -0.0939
 1108BOL    COH 1108   6.216   1.644   2.556 -0.0605  0.3932 -0.0254
 1109BOL    COH 1109   2.382   0.974   3.945 -0.2819  0.0706  0.1342
 1110BOL    COH 1110   2.683   2.691   4.434  0.1198  0.1956 -0.2533
 1111BOL    COH 1111   6.303   2.306   2.387 -0.3434 -0.0993  0.2564
 1112BOL    COH 1112   0.892   1.158   6.379  0.3027  0.0306  0.1139
 1113BOL    COH 1113   6.232   2.479   1.367  0.1239 -0.0591 -0.1130
 1114BOL    COH 1114   4.608   1.821   4.243 -0.1827  0.0331 -0.0932
 1115BOL    COH 1115   5.187   6.385   4.274  0.2771 -0.0732  0.2450
 1116BOL    COH 1116   1.434   0.903   3.176 -0.0446  0.1959  0.3509
 1117BOL    COH 1117   0.927   0.138   5.101 -0.1044 -0.1603  0.2702
 1118BOL    COH 1118   6.068   2.640   0.717  0.0750  0.0612  0.1970
 1119BOL    COH 1119   2.771   1.212   1.556 -0.0533 -0.0231 -0.0282
 1120BOL    COH 1120   0.055   1.604   1.540  0.0695  0.2135  0.2171
 1121BOL    COH 1121   5.934   0.609   4.322  0.1190  0.1700  0.3733
 1122BOL    COH 1122   3.502   0.495   4.197  0.2194 -0.0102  0.4780
 1123BOL    COH 1123   4.689   5.721   3.536 -0.1492  0.1953 -0.0172
 1124BOL    COH 1124   5.886   3.822   0.749  0.0219 -0.1085 -0.2679
 1125BOL    COH 1125   5.808   5.401   2.613  0.0087  0.0651 -0.0204
 1126BOL    COH 1126   2.124   3.626   3.494  0.2326 -0.0467 -0.0784
 1127BOL    COH 1127   4.321   4.664   3.270  0.3032 -0.0336  0.2607
 1128BOL    COH 1128   1.344   5.971   3.232 -0.2498  0.3043 -0.1859
 1129BOL    COH 1129   1.208   0.159   0.920 -0.1040 -0.0831 -0.0766
 1130BOL    COH 1130   1.784   5.982   2.977 -0.0644 -0.0516 -0.0022
 1131BOL    COH 1131   0.053   2.767   1.655  0.0001  0.1575 -0.1582
 1132BOL    COH 1132   5.176   1.270   5.158 -0.1836  0.3849 -0.0521
 1133BOL    COH 1133   5.377   5.413   2.285  0.4476 -0.0962 -0.0813
 1134BOL    COH 1134   3.551   0.567   5.898  0.0219 -0.0855 -0.0929
 1135BOL    COH 1135   0.670   3.360   0.235  0.2173 -0.1358  0.0716
 1136BOL    COH 1136   5.489   4.866   3.399 -0.2731 -0.1065 -0.3314
 1137BOL    COH 1137   3.663   5.493   0.748  0.1814 -0.1945  0.0642
 1138BOL    COH 1138   4.754   0.507   4.318  0.1812 -0.1032 -0.2182
 1139BOL    COH 1139   3.642   3.784   1.807  0.0047  0.2627  0.1778
 1140BOL    COH 1140   1.483   2.293   4.661  0.1282  0.1857  0.2935
 1141BOL    COH 1141   0.346   1.386   6.282  0.1459 -0.1524 -0.0193
 1142BOL    COH 1142   5.084   5.888   0.686  0.3499 -0.1553  0.1276
 1143BOL    COH 1143   2.210   6.397   4.614  0.0286  0.2685  0.2137
 1144BOL    COH 1144   0.424   3.524   4.233  0.0801 -0.0047  0.0469
 1145BOL    COH 1145   0.117   4.859   0.446  0.0572 -0.0201  0.1617
 1146BOL    COH 1146   3.545   5.637   2.434  0.3369  0.0906  0.1953
 1147BOL    COH 1147   0.649   5.327   2.483 -0.3168 -0.0776  0.1580
 1148BOL    COH 1148   5.475   3.797   4.172 -0.3733 -0.2303 -0.2641
 1149BOL    COH 1149   5.992   3.417   2.836 -0.1350 -0.1728 -0.1002
 1150BOL    COH 1150   3.420   1.217   5.233 -0.0175  0.1151 -0.1560
 1151BOL    COH 1151   1.626   1.387   4.104  0.1938  0.1972  0.0067
 1152BOL    COH 1152   5.073   1.470   3.058  0.4329  0.0596 -0.0897
 1153BOL    COH 1153   0.627   1.498   2.317 -0.1774  0.2863 -0.1113
 1154BOL    COH 1154   0.060   6.384   2.938  0.0391  0.0715  0.0399
 1155BOL    COH 1155   4.075   2.578   0.915  0.1887 -0.0651  0.2002
 1156BOL    COH 1156   5.109   3.495   4.352 -0.0357 -0.2221  0.1459
 1157BOL    COH 1157   0.987   3.666   4.969 -0.1600 -0.0297 -0.0174
 1158BOL    COH 1158   1.970   2.719   1.765  0.0285  0.0289  0.0072
 1159BOL    COH 1159   2.526   1.572   3.813  0.0596  0.0951 -0.0017
 1160BOL    COH 1160   3.716   4.206   0.393 -0.3582 -0.0926  0.2856
 1161BOL    COH 1161   0.122   4.729   2.440 -0.0914 -0.0001  0.1381
 1162BOL    COH 1162   0.123   6.378   6.217 -0.0571  0.0228 -0.1231
 1163BOL    COH 1163   1.031   2.088   5.100 -0.0814 -0.0340 -0.0875
 1164BOL    COH 1164   0.973   3.056   4.148 -0.1631  0.2467 -0.0469
 1165BOL    COH 1165   0.978   5.016   1.783 -0.1489 -0.1651 -0.1372
 1166BOL    COH 1166   1.593   0.636   1.376  0.0133  0.0664 -0.1615
 1167BOL    COH 1167   5.720   2.186   2.823 -0.0778  0.2388 -0.1194
 1168BOL    COH 1168   2.350   3.106   5.762 -0.4097 -0.1016 -0.1179
 1169BOL    COH 1169   0.066   1.982   2.777 -0.0463 -0.0667 -0.1041
 1170BOL    COH 1170   1.539   4.752   4.378  0.4144  0.0210 -0.1229
 1171BOL    COH 1171   4.030   0.332   5.748  0.0312 -0.0399 -0.0519
 1172BOL    COH 1172   6.076   0.747   1.423  0.1080  0.2346 -0.1900
 1173BOL    COH 1173   6.313   0.699   2.726  0.0744  0.1282 -0.4198
 1174BOL    COH 1174   1.521   5.128   4.991  0.1160  0.1351  0.0293
 1175BOL    COH 1175   5.046   2.021   4.061  0.0690 -0.1270  0.1425
 1176BOL    COH 1176   3.178   2.913   3.204  0.0289 -0.3981  0.3014
 1177BOL    COH 1177   5.659   4.752   5.576  0.0103 -0.0393  0.0121
 1178BOL    COH 1178   1.634   2.333   1.352  0.1101  0.0907 -0.1070
 1179BOL    COH 1179   5.059   1.719   1.243 -0.2783 -0.1156  0.4600
 1180BOL    COH 1180   2.492   4.575   4.905 -0.1880  0.0389 -0.0455
 1181BOL    COH 1181   2.662   6.205   2.078  0.1341 -0.0265  0.2322
 1182BOL    COH 1182   1.851   4.489   4.111  0.1973  0.0510 -0.2628
 1183BOL    COH 1183   4.218   5.421   0.905  0.0095  0.0368 -0.1711
 1184BOL    COH 1184   5.793   4.144   2.997  0.2699 -0.1645  0.0498
 1185BOL    COH 1185   5.631   0.729   0.662  0.0349 -0.1903  0.2459
 1186BOL    COH 1186   6.366   3.812   5.908  0.1556 -0.0766 -0.2277
 1187BOL    COH 1187   5.847   2.763   1.823 -0.1410  0.3790  0.5165
 1188BOL    COH 1188   2.843   2.306   0.820 -0.0666 -0.0233 -0.0857
 1189BOL    COH 1189   5.767   4.349   0.488  0.1220  0.2127  0.3326
 1190BOL    COH 1190   4.432   2.877   1.628 -0.1790 -0.0925 -0.0393
 1191BOL    COH 1191   4.284   3.742   1.094  0.0616  0.0068 -0.0969
 1192BOL    COH 1192   4.841   1.979   3.055  0.3766  0.1975  0.0104
 1193BOL    COH 1193   1.027   2.378   3.042 -0.3885 -0.1648 -0.2519
 1194BOL    COH 1194   0.210   1.798   2.326 -0.0841  0.1497 -0.2556
 1195BOL    COH 1195   6.326   1.067   1.734  0.0255  0.1163  0.3690
 1196BOL    COH 1196   0.416   3.913   5.138  0.2316 -0.2152 -0.0440
 1197BOL    COH 1197   6.024   3.933   2.583  0.0798 -0.1038 -0.2487
 1198BOL    COH 1198   3.504   2.791   1.746  0.1339 -0.0359 -0.1736
 1199BOL    COH 1199   2.502   5.744   0.405  0.0371 -0.0197 -0.0436
 1200BOL    COH 1200   6.347   4.155   5.286 -0.0326 -0.0362  0.0022
 1201BOL    COH 1201   5.398   5.425   3.100  0.1295  0.1781 -0.2198
 1202BOL    COH 1202   2.230   5.547   1.484 -0.0899 -0.1467 -0.0228
 1203BOL    COH 1203   5.608   3.085   2.303 -0.1349  0.3716 -0.3252
 1204BOL    COH 1204   3.788   0.677   1.582 -0.2365  0.0733 -0.0281
 1205BOL    COH 1205   5.563   4.218   4.465  0.0474  0.4030 -0.0536
 1206BOL    COH 1206   1.805   1.672   3.036  0.1840 -0.3405  0.4652
 1207BOL    COH 1207   2.271   5.922   3.688 -0.0208 -0.0756 -0.1341
 1208BOL    COH 1208   6.162   3.180   2.383  0.0289  0.2227  0.0691
 1209BOL    COH 1209   5.287   4.118   2.939 -0.3301  0.1009 -0.0870
 1210BOL    COH 1210   3.711   4.094   5.541 -0.2161 -0.1806 -0.0415
 1211BOL    COH 1211   0.582   0.608   2.203 -0.1740 -0.2261 -0.1138
 1212BOL    COH 1212   1.284   2.033   3.371  0.0271 -0.0682 -0.1814
 1213BOL    COH 1213   1.235   0.730   2.416 -0.2989  0.1847  0.2143
 1214BOL    COH 1214   0.215   3.213   2.448 -0.3235  0.1689 -0.1762
 1215BOL    COH 1215   5.120   5.171   6.062  0.1420 -0.1878 -0.1574
 1216BOL    COH 1216   1.341   1.477   3.152  0.1540  0.0923  0.0478
 1217BOL    COH 1217   5.535   4.972   1.305 -0.0649  0.1001  0.1670
 1218BOL    COH 1218   3.068   4.810   2.549  0.3195  0.2003 -0.0124
 1219BOL    COH 1219   5.897   3.592   6.088 -0.0587 -0.4981  0.0590
 1220BOL    COH 1220   2.168   4.263   3.757  0.1098 -0.1652 -0.1156
 1221BOL    COH 1221   3.123   4.565   4.190  0.0193  0.3692 -0.1019
 1222BOL    COH 1222   5.007   2.654   5.346  0.0534  0.0337  0.2514
 1223BOL    COH 1223   5.471   4.091   0.773  0.2587 -0.1752  0.0012
 1224BOL    COH 1224   5.864   3.103   3.234 -0.0809 -0.0203  0.3448
 1225BOL    COH 1225   3.295   3.038   0.370  0.0761 -0.0031 -0.2277
 1226BOL    COH 1226   2.994   0.354   1.092  0.1496  0.1702 -0.1362
 1227BOL    COH 1227   4.162   4.166   0.841  0.1102  0.0972  0.2560
 1228BOL    COH 1228   1.178   4.184   2.908  0.2148  0.1001 -0.1904
 1229BOL    COH 1229   2.920   5.113   6.202  0.2229 -0.0615  0.2486
 1230BOL    COH 1230   1.485   1.288   1.195 -0.1052  0.0927  0.2543
 1231BOL    COH 1231   2.293   5.408   3.697 -0.2531 -0.0436 -0.0519
 1232BOL    COH 1232   3.896   6.301   1.287 -0.0000 -0.3167  0.0955
 1233BOL    COH 1233   4.474   0.169   5.955 -0.2342 -0.2386  0.1959
 1234BOL    COH 1234   0.120   0.489   4.166  0.2058  0.1488  0.2786
 1235BOL    COH 1235   0.988   0.764   4.481  0.1491 -0.0432 -0.2143
 1236BOL    COH 1236   0.228   1.483   5.704 -0.2941  0.2176  0.1213
 1237BOL    COH 1237   2.538   2.294   6.210  0.0092  0.0313 -0.1426
 1238BOL    COH 1238   1.693   0.277   0.990 -0.1828 -0.0369  0.1223
 1239BOL    COH 1239   0.239   2.472   2.025 -0.0776 -0.0875 -0.2401
 1240BOL    COH 1240   3.552   5.736   1.875  0.0853  0.0462  0.0647
 1241BOL    COH 1241   2.812   3.595   3.570 -0.1502  0.2520  0.0075
 1242BOL    COH 1242   0.622   3.191   4.552  0.0094  0.2542  0.1317
 1243BOL    COH 1243   0.488   3.511   2.183 -0.0934  0.3445 -0.0736
 1244BOL    COH 1244   4.643   4.025   6.009  0.4000 -0.1719 -0.0535
 1245BOL    COH 1245   1.716   0.274   0.009  0.2364 -0.0976  0.0521
 1246BOL    COH 1246   5.196   2.438   6.358 -0.1758 -0.0992 -0.1274
 1247BOL    COH 1247   2.761   3.128   2.267 -0.1770 -0.2178 -0.0298
 1248BOL    COH 1248   4.702   1.383   5.105 -0.2128 -0.4664 -0.3795
 1249BOL    COH 1249   2.331   4.794   5.373 -0.1305  0.1147  0.3622
 1250BOL    COH 1250   5.149   5.846   5.600 -0.2216  0.0238 -0.1009
 1251BOL    COH 1251   1.094   4.192   1.450 -0.1060  0.1930 -0.1634
 1252BOL    COH 1252   6.278   4.278   2.191  0.2359  0.0546 -0.0876
 1253BOL    COH 1253   0.521   4.625   4.510 -0.0327 -0.1734 -0.0258
 1254BOL    COH 1254   2.291   4.249   2.336 -0.3182 -0.2232 -0.0840
 1255BOL    COH 1255   2.134   0.940   5.964 -0.0647 -0.1986  0.1407
 1256BOL    COH 1256   5.803   1.076   1.698 -0.0248  0.5005  0.3643
 1257BOL    COH 1257   5.048   6.365   2.059 -0.1028 -0.0403  0.2723
 1258BOL    COH 1258   1.493   4.603   2.764  0.2906 -0.2310 -0.1461
 1259BOL    COH 1259   2.402   0.654   2.115 -0.1365  0.3396 -0.0663
 1260BOL    COH 1260   3.517   3.174   1.388  0.3228  0.1759 -0.0733
 1261BOL    COH 1261   0.077   4.881   3.074  0.1567 -0.1249 -0.1852
 1262BOL    COH 1262   3.749   0.424   5.316 -0.2686 -0.1549 -0.1882
 1263BOL    COH 1263   3.236   4.148   4.491 -0.2290  0.1799  0.0026
 1264BOL    COH 1264   5.118   3.602   0.537  0.3212  0.2312 -0.1085
 1265BOL    COH 1265   2.130   0.603   4.646  0.2343  0.0192 -0.2686
 1266BOL    COH 1266   2.376   1.176   1.145  0.1942 -0.3688  0.2949
 1267BOL    COH 1267   2.230   4.689   4.325 -0.0554  0.2745 -0.1984
 1268BOL    COH 1268   0.543   4.723   1.684  0.0776 -0.0827 -0.1646
 1269BOL    COH 1269   4.030   3.639   4.235  0.3892 -0.1764 -0.0539
 1270BOL    COH 1270   4.446   5.895   0.738  0.0109  0.1878  0.0793
 1271BOL    COH 1271   5.715   1.780   5.804  0.1400  0.3726  0.1801
 1272BOL    COH 1272   5.325   2.953   5.760  0.3652  0.2873  0.3151
 1273BOL    COH 1273   3.087   5.978   2.650 -0.2663  0.1451 -0.1301
 1274BOL    COH 1274   1.608   3.658   3.607  0.0605  0.2849  0.0441
 1275BOL    COH 1275   2.648   1.596   2.976  0.0598  0.1588 -0.2584
 1276BOL    COH 1276   3.002   4.144   3.644  0.3651  0.1648 -0.0127
 1277BOL    COH 1277   6.247   3.890   3.013  0.0500  0.1197  0.1697
 1278BOL    COH 1278   3.103   2.404   2.754  0.0185  0.0976  0.1684
 1279BOL    COH 1279   2.094   3.288   4.246 -0.0135 -0.3405 -0.0534
 1280BOL    COH 1280   4.842   4.033   3.964  0.3493  0.1592  0.0165
 1281BOL    COH 1281   0.669   3.701   1.670  0.5040 -0.0085 -0.0795
 1282BOL    COH 1282   2.183   4.736   0.224  0.0557  0.1264 -0.3347
 1283BOL    COH 1283   2.931   5.200   1.154  0.2756  0.0554  0.0152
 1284BOL    COH 1284   6.286   0.662   3.756  0.0403  0.0935 -0.1306
 1285BOL    COH 1285   0.815   4.898   5.691  0.2703 -0.0640  0.2587
 1286BOL    COH 1286   4.643   4.221   5.342  0.0574 -0.1996 -0.0251
 1287BOL    COH 1287   2.387   5.550   5.130 -0.0643  0.3265 -0.0746
 1288BOL    COH 1288   6.157   6.151   1.156 -0.0628 -0.1916  0.0918
 1289BOL    COH 1289   2.339   1.589   0.880  0.2523 -0.2097 -0.0903
 1290BOL    COH 1290   5.606   3.663   1.578  0.1267  0.2370  0.2320
 1291BOL    COH 1291   0.552   0.997   0.872 -0.3615 -0.0874 -0.1935
 1292BOL    COH 1292   6.364   3.646   2.145  0.3425  0.0767  0.0696
 1293BOL    COH 1293   2.279   5.140   6.104 -0.0564  0.5189 -0.0875
 1294BOL    COH 1294   0.243   0.457   1.614  0.1055 -0.2432 -0.0862
 1295BOL    COH 1295   3.952   5.995   2.260  0.1244 -0.0177  0.0608
 1296BOL    COH 1296   3.996   5.506   0.407 -0.2274 -0.0604  0.1063
 1297BOL    COH 1297   1.706   2.550   2.420  0.0431 -0.0256  0.0069
 1298BOL    COH 1298   0.341   4.481   2.824  0.1132 -0.0272 -0.1509
 1299BOL    COH 1299   2.874   3.789   4.497 -0.0680 -0.0468  0.0199
 1300BOL    COH 1300   2.705   2.157   3.413  0.2462  0.1524 -0.1113
 1301BOL    COH 1301   6.236   2.491   2.844  0.1577  0.0125  0.1842
 1302BOL    COH 1302   5.240   0.596   0.214  0.0979 -0.0561  0.1448
 1303BOL    COH 1303   5.059   4.960   4.777  0.1839 -0.0796 -0.0781
 1304BOL    COH 1304   4.928   0.639   6.206 -0.1036 -0.1389  0.2461
 1305BOL    COH 1305   0.534   5.954   2.123  0.0775 -0.1527 -0.3203
 1306BOL    COH 1306   4.912   0.806   1.703 -0.2113 -0.0367  0.1374
 1307BOL    COH 1307   3.120   6.121   4.759  0.1663  0.1238 -0.5282
 1308BOL    COH 1308   2.284   4.140   4.260 -0.1270 -0.3070  0.1181
 1309BOL    COH 1309   3.352   6.052   5.626 -0.1738 -0.0459 -0.1091
 1310BOL    COH 1310   1.329   5.828   2.141  0.0882  0.0324 -0.0694
 1311BOL    COH 1311   1.393   4.793   2.094  0.0675 -0.0850 -0.0209
 1312BOL    COH 1312   5.921   1.720   2.935  0.1670  0.2106 -0.2064
 1313BOL    COH 1313   3.017   5.307   4.399 -0.1107  0.0854 -0.3163
 1314BOL    COH 1314   0.859   0.558   1.012  0.0296  0.0752 -0.1833
 1315BOL    COH 1315   2.121   2.523   0.788 -0.0681 -0.2890  0.2678
 1316BOL    COH 1316   1.832   3.728   3.109 -0.0367  0.1006  0.0615
 1317BOL    COH 1317   2.738   3.388   5.751  0.0224 -0.3594  0.3453
 1318BOL    COH 1318   6.319   0.674   5.149 -0.2250 -0.0551 -0.1470
 1319BOL    COH 1319   2.074   6.343   3.302 -0.0785  0.0767  0.0481
 1320BOL    COH 1320   5.447   5.050   0.567 -0.0628 -0.5277 -0.1187
 1321BOL    COH 1321   2.776   3.312   4.733  0.3462  0.0726 -0.2781
 1322BOL    COH 1322   1.519   0.926   1.807  0.0616  0.0711  0.2648
 1323BOL    COH 1323   5.270   1.687   0.268 -0.3372 -0.0737  0.2112
 1324BOL    COH 1324   0.766   1.217   1.840 -0.0689  0.2744  0.4896
 1325BOL    COH 1325   3.501   3.706   4.491  0.2386 -0.1297 -0.0894
 1326BOL    COH 1326   3.055   3.548   1.199 -0.0746  0.2302 -0.1253
 1327BOL    COH 1327   3.150   5.563   5.308 -0.1257  0.0970 -0.2733
 1328BOL    COH 1328   2.765   4.764   3.469 -0.0007  0.1051  0.0990
 1329BOL    COH 1329   2.634   4.375   0.340  0.2167 -0.2408 -0.1000
 1330BOL    COH 1330   3.142   2.250   3.215 -0.2657  0.1082  0.0903
 1331BOL    COH 1331   2.855   2.594   1.330  0.1937 -0.0274 -0.1070
 1332BOL    COH 1332   1.833   4.661   3.471 -0.0053  0.0336 -0.0620
 1333BOL    COH 1333   0.480   3.668   0.855  0.0509  0.0276  0.0811
 1334BOL    COH 1334   5.489   2.715   2.623 -0.1175 -0.3053  0.0212
 1335BOL    COH 1335   5.241   5.000   0.127 -0.0196 -0.1153  0.0431
 1336BOL    COH 1336   4.266   5.470   5.078 -0.3755  0.2769  0.0346
 1337BOL    COH 1337   1.984   2.779   3.447  0.1317 -0.0064 -0.1109
 1338BOL    COH 1338   3.458   4.241   5.081 -0.1773  0.3837  0.1144
 1339BOL    COH 1339   4.233   2.225   1.879  0.0675 -0.2936  0.4129
 1340BOL    COH 1340   6.388   1.142   4.818  0.1135  0.0388  0.2326
 1341BOL    COH 1341   0.499   1.776   2.696  0.4140 -0.1697  0.0892
 1342BOL    COH 1342   1.147   4.953   2.928  0.0164  0.1694  0.0007
 1343BOL    COH 1343   2.234   5.962   2.569  0.1206 -0.0202 -0.1284
 1344BOL    COH 1344   5.203   1.856   2.108 -0.1590 -0.1192 -0.1594
 1345BOL    COH 1345   2.512   3.748   6.123  0.0629 -0.0395 -0.1374
 1346BOL    COH 1346   4.728   5.026   5.805 -0.0929  0.3080 -0.1441
 1347BOL    COH 1347   2.574   1.661   1.931 -0.2842  0.0575 -0.0812
 1348BOL    COH 1348   2.567   3.883   2.460 -0.1168 -0.0953 -0.3054
 1349BOL    COH 1349   3.126   5.475   1.696 -0.0299  0.0300  0.2258
 1350BOL    COH 1350   0.961   4.500   1.849 -0.0668  0.0698 -0.0875
 1351BOL    COH 1351   2.028   0.641   1.132  0.2589  0.1144 -0.1107
 1352BOL    COH 1352   4.069   5.041   4.819 -0.2693  0.1066 -0.2047
 1353BOL    COH 1353   0.444   4.615   5.897 -0.2757  0.1172  0.0868
 1354BOL    COH 1354   2.895   4.756   5.252  0.0227  0.0484 -0.1423
 1355BOL    COH 1355   1.755   1.895   1.554  0.1039  0.0449 -0.0927
 1356BOL    COH 1356   6.214   3.162   0.771 -0.0230  0.1523 -0.0054
 1357BOL    COH 1357   1.940   6.174   0.984 -0.2768  0.0296 -0.2524
 1358BOL    COH 1358   3.264   3.996   6.372  0.0720 -0.0519  0.1777
 1359BOL    COH 1359   0.807   3.440   1.136  0.1494 -0.1935  0.0374
 1360BOL    COH 1360   1.012   1.693   5.742 -0.3301 -0.1621 -0.0126
 1361BOL    COH 1361   1.740   1.707   0.155  0.1883 -0.2572 -0.1940
 1362BOL    COH 1362   3.512   5.526   0.096  0.1539 -0.2487 -0.0218
 1363BOL    COH 1363   0.180   4.022   1.359  0.0426 -0.1421 -0.0637
 1364BOL    COH 1364   0.117   3.256   4.618 -0.2030  0.1536 -0.3201
 1365BOL    COH 1365   3.526   6.230   2.002  0.2519 -0.0028  0.3865
 1366BOL    COH 1366   3.207   0.801   3.405 -0.1478 -0.0705  0.1510
 1367BOL    COH 1367   4.452   2.248   3.361  0.2152  0.0744  0.0251
 1368BOL    COH 1368   1.178   1.568   0.890 -0.0688 -0.0403 -0.0736
 1369BOL    COH 1369   4.641   2.861   4.117 -0.0353 -0.1809  0.0412
 1370BOL    COH 1370   1.223   1.344   1.666 -0.4727 -0.1007  0.2381
 1371BOL    COH 1371   0.810   1.444   1.163 -0.0980  0.1014 -0.0176
 1372BOL    COH 1372   1.427   6.150   6.410 -0.0805 -0.1232 -0.3203
 1373BOL    COH 1373   2.781   3.626   2.017  0.0078  0.1371  0.1848
 1374BOL    COH 1374   2.773   4.419   2.562 -0.0523 -0.1812 -0.1867
 1375BOL    COH 1375   2.022   3.921   5.469 -0.1920 -0.1025  0.0814
 1376BOL    COH 1376   4.169   4.076   6.148 -0.0945  0.3034  0.1586
 1377BOL    COH 1377   0.997   0.723   1.940 -0.4583  0.0468  0.0540
 1378BOL    COH 1378   1.673   5.439   2.867  0.1058  0.1186  0.0409
 1379BOL    COH 1379   3.807   2.583   3.896 -0.1731 -0.1371  0.0858
 1380BOL    COH 1380   5.739   3.023   0.678  0.0112 -0.0747  0.1507
 1381BOL    COH 1381   3.842   4.572   5.397 -0.1161  0.4402 -0.1011
 1382BOL    COH 1382   6.119   0.721   0.957 -0.2336  0.0352 -0.0210
 1383BOL    COH 1383   2.116   4.680   6.048  0.0093 -0.2952  0.0835
 1384BOL    COH 1384   5.855   2.495   4.618  0.4800  0.0090 -0.0631
 1385BOL    COH 1385   3.420   4.222   5.945 -0.0966 -0.1315 -0.0541
 1386BOL    COH 1386   2.499   3.701   4.189 -0.0388  0.0919  0.0829
 1387BOL    COH 1387   1.611   0.802   4.729  0.1730  0.2166 -0.0391
 1388BOL    COH 1388   3.323   4.047   4.015 -0.1967 -0.1044  0.0720
 1389BOL    COH 1389   2.853   2.288   5.607 -0.0684 -0.0239 -0.3214
 1390BOL    COH 1390   2.005   3.794   3.991  0.2371  0.0759  0.0789
 1391BOL    COH 1391   6.274   5.490   2.863  0.0927 -0.0854 -0.1545
 1392BOL    COH 1392   4.784   5.429   0.970  0.1582  0.0634 -0.1147
 1393BOL    COH 1393   5.856   0.593   1.947  0.0323  0.0869 -0.0519
 1394BOL    COH 1394   1.247   2.012   1.766  0.2213  0.0464  0.0738
 1395BOL    COH 1395   5.313   4.512   1.363 -0.1024 -0.0916  0.0296
 1396BOL    COH 1396   6.408   4.736   4.012  0.2436  0.0547 -0.0771
 1397BOL    COH 1397   2.655   0.447   0.606 -0.0239  0.2300  0.0059
 1398BOL    COH 1398   3.308   1.247   4.722 -0.0070  0.0540  0.3349
 1399BOL    COH 1399   2.609   5.524   0.861 -0.5123  0.2256  0.1314
 1400BOL    COH 1400   3.170   2.000   0.406 -0.0058  0.2231  0.1699
 1401BOL    COH 1401   4.967   5.513   1.988 -0.1268  0.0069  0.0638
 1402BOL    COH 1402   0.575   0.995   4.862  0.0101 -0.0697 -0.4316
 1403BOL    COH 1403   2.432   3.642   0.186  0.0460 -0.3907 -0.1173
 1404BOL    COH 1404   1.240   4.595   3.261 -0.1060  0.3291 -0.0276
 1405BOL    COH 1405   3.732   3.467   5.609  0.3600  0.2001  0.0936
 1406BOL    COH 1406   4.409   5.714   1.812 -0.2802 -0.1534  0.0555
 1407BOL    COH 1407   5.628   4.380   3.589 -0.1164 -0.0360 -0.1544
 1408BOL    COH 1408   5.658   3.479   0.515  0.0654  0.1901  0.0710
 1409BOL    COH 1409   4.624   0.487   5.005 -0.0988 -0.3494  0.1286
 1410BOL    COH 1410   5.625   5.679   5.484  0.3869  0.1239 -0.1265
 1411BOL    COH 1411   5.473   6.413   1.088  0.2109 -0.1798 -0.0951
 1412BOL    COH 1412   3.562   4.118   2.217 -0.1493  0.0644 -0.0312
 1413BOL    COH 1413   4.295   1.373   0.995 -0.2251 -0.0225  0.1558
 1414BOL    COH 1414   1.903   1.160   0.872 -0.0451 -0.2899 -0.0314
 1415BOL    COH 1415   3.443   4.623   2.833 -0.0933  0.1276 -0.0999
 1416BOL    COH 1416   1.161   4.415   4.652  0.1267  0.2214  0.0481
 1417BOL    COH 1417   1.585   5.940   5.398 -0.4434  0.0894  0.0873
 1418BOL    COH 1418   0.497   0.198   3.262  0.0564  0.2623 -0.1023
 1419BOL    COH 1419   1.106   1.065   5.086 -0.2032 -0.3721  0.0818
 1420BOL    COH 1420   0.008   5.478   1.688  0.0952 -0.1698 -0.0583
 1421BOL    COH 1421   2.473   2.608   5.771  0.0453  0.2211 -0.0104
 1422BOL    COH 1422   4.905   3.924   0.960  0.0183  0.1162  0.2399
 1423BOL    COH 1423   2.147   4.097   3.255 -0.1503 -0.0134 -0.1392
 1424BOL    COH 1424   0.182   1.969   3.299 -0.0319  0.3032 -0.0862
 1425BOL    COH 1425   2.576   4.284   3.438  0.2699 -0.0916  0.1951
 1426BOL    COH 1426   5.309   1.752   6.087 -0.0350 -0.0742 -0.1013
 1427BOL    COH 1427   3.209   3.283   3.718 -0.3017 -0.0904  0.1490
 1428BOL    COH 1428   1.168   0.868   1.424 -0.0680 -0.0751 -0.2146
 1429BOL    COH 1429   4.104   5.710   5.492 -0.4547  0.3052  0.0862
 1430BOL    COH 1430   6.124   1.261   1.308  0.0864 -0.0542 -0.0654
 1431BOL    COH 1431   0.041   1.091   6.052 -0.2166  0.0196  0.1147
 1432BOL    COH 1432   6.152   5.014   2.668  0.0351  0.1585 -0.1714
 1433BOL    COH 1433   3.259   5.879   3.671  0.0242  0.1067  0.1259
 1434BOL    COH 1434   2.765   5.067   1.600 -0.0323  0.2224 -0.0911
 1435BOL    COH 1435   1.036   3.555   3.591 -0.0182 -0.1828  0.0040
 1436BOL    COH 1436   4.085   2.761   5.308 -0.0922 -0.1782 -0.0198
 1437BOL    COH 1437   2.022   1.822   6.147  0.3494 -0.2949  0.0681
 1438BOL    COH 1438   3.204   2.255   1.329 -0.0629 -0.2575 -0.0277
 1439BOL    COH 1439   4.693   3.391   0.430  0.1697  0.0219 -0.2812
 1440BOL    COH 1440   5.231   3.365   1.424  0.0284 -0.0949  0.0303
 1441BOL    COH 1441   1.622   1.219   2.272  0.0815 -0.0940  0.1091
 1442BOL    COH 1442   2.254   1.397   1.657  0.0268  0.3400  0.2877
 1443BOL    COH 1443   0.451   2.901   6.016  0.2091 -0.0547  0.0820
 1444BOL    COH 1444   0.256   2.489   3.490  0.0036  0.2305  0.1272
 1445BOL    COH 1445   1.093   3.657   3.035 -0.0737 -0.1152  0.2767
 1446BOL    COH 1446   0.342   2.834   4.872  0.4862  0.0688  0.2526
 1447BOL    COH 1447   1.206   1.026   2.799 -0.0257 -0.0901  0.3687
 1448BOL    COH 1448   2.312   0.215   0.911 -0.2036  0.1936  0.1281
 1449BOL    COH 1449   1.536   2.594   0.353  0.0612 -0.0849 -0.0569
 1450BOL    COH 1450   1.133   0.511   4.072  0.0032  0.0545  0.1397
 1451BOL    COH 1451   4.708   1.072   3.265  0.0025  0.1635 -0.0873
 1452BOL    COH 1452   4.929   4.498   4.897  0.0295  0.3882 -0.3371
 1453BOL    COH 1453   2.874   1.665   3.458  0.2626  0.0142 -0.0848
 1454BOL    COH 1454   0.274   6.332   4.619  0.0941 -0.1012  0.0239
 1455BOL    COH 1455   4.641   5.834   6.413 -0.1589 -0.1695  0.1018
 1456BOL    COH 1456   2.732   1.871   5.408  0.1419 -0.0722 -0.2343
 1457BOL    COH 1457   2.306   0.012   1.795  0.1429  0.1381 -0.4021
 1458BOL    COH 1458   3.643   2.095   4.226 -0.0555  0.1827  0.1282
 1459BOL    COH 1459   5.901   0.350   3.545  0.1471 -0.2291 -0.0464
 1460BOL    COH 1460   6.386   0.175   4.960 -0.3311 -0.0553  0.1575
 1461BOL    COH 1461   0.692   4.586   2.396 -0.1166  0.2788 -0.0107
 1462BOL    COH 1462   0.585   1.628   0.227 -0.3081  0.1366  0.1248
 1463BOL    COH 1463   5.259   2.323   3.008  0.0964 -0.0492  0.1286
 1464BOL    COH 1464   0.570   3.882   3.873  0.1045 -0.2880 -0.0204
 1465BOL    COH 1465   4.168   4.351   3.625  0.1460 -0.0801  0.2154
 1466BOL    COH 1466   6.254   1.286   5.282  0.0891  0.0510 -0.0501
 1467BOL    COH 1467   4.835   1.161   0.107 -0.3515  0.0664 -0.0717
 1468BOL    COH 1468   3.975   5.522   2.013  0.1319  0.1790 -0.1941
 1469BOL    COH 1469   5.185   6.386   5.578 -0.1617 -0.0446  0.0308
 1470BOL    COH 1470   4.438   2.446   2.846 -0.1849  0.0696  0.0030
 1471BOL    COH 1471   4.780   4.834   5.252  0.3858  0.0629 -0.0146
 1472BOL    COH 1472   6.351   3.215   1.925 -0.1581 -0.3252  0.2007
 1473BOL    COH 1473   1.636   2.681   6.055  0.2430 -0.0476  0.3822
 1474BOL    COH 1474   1.786   3.125   2.117 -0.1708 -0.4210 -0.0209
 1475BOL    COH 1475   1.827   0.263   4.310 -0.0115  0.1324  0.0351
 1476BOL    COH 1476   1.265   2.511   5.108 -0.2366  0.1822  0.0873
 1477BOL    COH 1477   2.856   2.904   0.736  0.1074  0.0796  0.3143
 1478BOL    COH 1478   3.225   4.218   2.619  0.0715 -0.0990  0.0569
 1479BOL    COH 1479   5.288   5.279   0.942 -0.0490 -0.1523 -0.4749
 1480BOL    COH 1480   5.340   1.020   5.593 -0.1806  0.1168  0.5118
 1481BOL    COH 1481   5.216   6.187   3.744  0.2696 -0.0151  0.0603
 1482BOL    COH 1482   0.880   5.438   2.096  0.1995 -0.2905 -0.1308
 1483BOL    COH 1483   3.838   0.377   3.815 -0.1702  0.3802 -0.2495
 1484BOL    COH 1484   4.929   4.925   0.933 -0.0481 -0.0036 -0.0036
 1485BOL    COH 1485   3.543   6.218   0.075 -0.3478 -0.0367 -0.1745
 1486BOL    COH 1486   5.657   6.015   5.822  0.1969  0.1671  0.0368
 1487BOL    COH 1487   6.401   5.092   1.995 -0.0710 -0.0639 -0.0298
 1488BOL    COH 1488   1.051   2.729   0.227  0.0529 -0.2469 -0.3518
 1489BOL    COH 1489   5.038   0.648   3.216 -0.1139  0.0894  0.1544
 1490BOL    COH 1490   1.377   3.602   0.271 -0.0299  0.1004 -0.0541
 1491BOL    COH 1491   5.581   0.188   5.241 -0.0439 -0.0172 -0.3185
 1492BOL    COH 1492   1.380   5.301   2.110 -0.2284  0.0059 -0.1635
 1493BOL    COH 1493   2.666   5.722   2.886  0.0605 -0.4528  0.1594
 1494BOL    COH 1494   5.911   2.012   2.426  0.1261 -0.0958 -0.2567
 1495BOL    COH 1495   5.048   1.907   4.544  0.1342 -0.3399 -0.1471
 1496BOL    COH 1496   5.300   3.376   0.150 -0.0821  0.2227  0.2297
 1497BOL    COH 1497   2.098   1.558   5.214 -0.0410 -0.1741 -0.0400
 1498BOL    COH 1498   0.483   4.980   2.138  0.1640  0.1596 -0.0296
 1499BOL    COH 1499   5.588   2.724   5.430 -0.3087 -0.2668 -0.0326
 1500BOL    COH 1500   4.477   0.159   2.739 -0.2332  0.1814 -0.0949
 1501BOL    COH 1501   1.330   4.292   4.163  0.1059 -0.0997  0.1465
 1502BOL    COH 1502   3.178   3.340   2.217 -0.2217 -0.0325 -0.0116
 1503BOL    COH 1503   5.116   2.261   1.387 -0.3150  0.4407 -0.0364
 1504BOL    COH 1504   0.078   2.904   1.089  0.3095 -0.0399  0.0064
 1505BOL    COH 1505   3.886   3.819   0.651  0.0087 -0.3682 -0.1030
 1506BOL    COH 1506   4.588   2.890   2.814  0.1954 -0.0032  0.1152
 1507BOL    COH 1507   3.946   2.237   3.296 -0.3139 -0.0405  0.1345
 1508BOL    COH 1508   4.279   0.120   1.513  0.2665  0.0380 -0.0642
 1509BOL    COH 1509   4.373   6.284   0.016  0.0515  0.1999  0.1316
 1510BOL    COH 1510   3.518   2.529   6.054 -0.1637  0.1729  0.2121
 1511BOL    COH 1511   3.222   0.269   6.143  0.2444  0.0018  0.0496
 1512BOL    COH 1512   0.085   6.298   4.023  0.0745  0.3089  0.0658
 1513BOL    COH 1513   6.251   2.290   3.646 -0.0032  0.0026  0.2240
 1514BOL    COH 1514   0.115   4.064   4.792  0.2126  0.5194 -0.0509
 1515BOL    COH 1515   4.578   5.961   4.347 -0.0689  0.1879  0.0676
 1516BOL    COH 1516   2.142   1.669   4.676 -0.0762 -0.4274 -0.2087
 1517BOL    COH 1517   0.813   5.647   4.540  0.2668  0.0927  0.1838
 1518BOL    COH 1518   4.479   0.938   0.814 -0.0962 -0.1367 -0.1738
 1519BOL    COH 1519   5.956   2.506   5.186 -0.0909  0.1586 -0.0022
 1520BOL    COH 1520   2.827   0.119   3.027  0.4302 -0.0273  0.2231
 1521BOL    COH 1521   5.840   0.095   0.733  0.0269 -0.0068 -0.2015
 1522BOL    COH 1522   2.338   2.303   5.355 -0.0016 -0.0542 -0.1226
 1523BOL    COH 1523   1.544   2.282   3.776  0.3434  0.0344  0.0238
 1524BOL    COH 1524   5.648   4.942   2.859  0.1344  0.1187 -0.2611
 1525BOL    COH 1525   6.254   4.333   4.256  0.1343  0.0376 -0.1407
 1526BOL    COH 1526   0.144   1.295   1.053  0.1060 -0.2146  0.1145
 1527BOL    COH 1527   2.024   2.129   1.115 -0.0044 -0.1843 -0.0792
 1528BOL    COH 1528   1.427   1.782   6.115  0.0799 -0.1492  0.1566
 1529BOL    COH 1529   2.831   1.058   4.722  0.1833 -0.0401  0.1899
 1530BOL    COH 1530   4.243   4.178   0.225  0.5002 -0.1585  0.0348
 1531BOL    COH 1531   5.532   3.820   5.282 -0.2825 -0.3914 -0.2212
 1532BOL    COH 1532   3.732   3.342   0.442 -0.2039 -0.1080  0.0844
 1533BOL    COH 1533   5.977   4.130   6.154  0.3081 -0.2898  0.1474
 1534BOL    COH 1534   2.237   0.724   3.514 -0.1969 -0.0867  0.0713
 1535BOL    COH 1535   0.091   1.028   3.226 -0.0132  0.0553 -0.1804
 1536BOL    COH 1536   5.094   0.766   0.709 -0.3975 -0.2955 -0.0084
 1537BOL    COH 1537   3.333   0.652   0.022  0.0231  0.1994 -0.0067
 1538BOL    COH 1538   1.833   1.919   3.458  0.2521  0.1688 -0.0734
 1539BOL    COH 1539   5.242   2.209   0.416  0.1913 -0.2418 -0.1278
 1540BOL    COH 1540   1.022   1.818   2.461  0.1561  0.0276  0.1530
 1541BOL    COH 1541   1.352   2.107   5.489  0.0313  0.2063  0.1278
 1542BOL    COH 1542   1.146   1.455   2.143 -0.1817  0.3849 -0.0370
 1543BOL    COH 1543   4.570   0.379   0.796 -0.1725 -0.2273 -0.0075
 1544BOL    COH 1544   3.291   1.046   1.670 -0.2481 -0.0462  0.0937
 1545BOL    COH 1545   0.224   6.315   1.022 -0.0657  0.0111 -0.1201
 1546BOL    COH 1546   0.305   5.485   1.253 -0.1402 -0.0199  0.0748
 1547BOL    COH 1547   4.653   0.422   2.121  0.4564 -0.2334 -0.1347
 1548BOL    COH 1548   2.117   3.220   2.830  0.0531  0.1020  0.0266
 1549BOL    COH 1549   3.845   2.008   5.202 -0.2473  0.0138  0.0854
 1550BOL    COH 1550   2.854   6.151   5.366 -0.0011 -0.2360  0.2695
 1551BOL    COH 1551   1.469   3.248   4.980 -0.0018  0.1502 -0.2459
 1552BOL    COH 1552   5.194   3.515   5.535  0.0228  0.1661  0.1340
 1553BOL    COH 1553   5.409   3.745   4.708  0.0606  0.0900 -0.0217
 1554BOL    COH 1554   5.144   3.692   2.539 -0.3202 -0.0020  0.2461
 1555BOL    COH 1555   0.704   6.359   0.815 -0.0824  0.1708 -0.1357
 1556BOL    COH 1556   4.407   1.044   4.876 -0.1425  0.0044  0.5568
 1557BOL    COH 1557   6.230   1.903   5.741  0.0205 -0.3585 -0.1625
 1558BOL    COH 1558   2.086   1.863   1.895 -0.0398  0.0979 -0.1784
 1559BOL    COH 1559   0.047   4.670   0.926 -0.1760 -0.1094 -0.0727
 1560BOL    COH 1560   2.337   2.974   0.809 -0.1281 -0.1652  0.0342
 1561BOL    COH 1561   3.350   1.728   1.177  0.3933  0.2227  0.2024
 1562BOL    COH 1562   3.435   1.653   0.155  0.1828  0.1109  0.1737
 1563BOL    COH 1563   0.927   1.909   2.913  0.1019  0.1752 -0.0388
 1564BOL    COH 1564   1.521   3.908   2.702 -0.2113 -0.0501  0.3776
 1565BOL    COH 1565   2.930   1.252   3.255 -0.2336  0.0850 -0.3072
 1566BOL    COH 1566   2.570   0.715   4.368  0.0702  0.0731 -0.0429
 1567BOL    COH 1567   5.740   3.349   5.598  0.1158  0.2090 -0.0408
 1568BOL    COH 1568   0.904   5.211   3.908  0.0287 -0.1838 -0.3481
 1569BOL    COH 1569   4.133   2.305   5.533 -0.0223  0.3697 -0.1091
 1570BOL    COH 1570   3.113   3.444   3.169 -0.1404  0.0107 -0.1574
 1571BOL    COH 1571   5.355   2.613   4.940 -0.1132  0.0123 -0.0709
 1572BOL    COH 1572   3.440   5.109   2.879  0.0638 -0.0093  0.0159
 1573BOL    COH 1573   1.699   5.216   4.326  0.2628 -0.0581 -0.0131
 1574BOL    COH 1574   0.289   1.550   5.213  0.0133  0.0997  0.0436
 1575BOL    COH 1575   2.675   0.242   2.146  0.0500 -0.2599 -0.0256
 1576BOL    COH 1576   4.877   4.203   1.575 -0.1952  0.3476 -0.0155
 1577BOL    COH 1577   4.236   1.927   0.982 -0.2414 -0.0513  0.0255
 1578BOL    COH 1578   3.210   1.433   0.515  0.0491  0.3351  0.0449
 1579BOL    COH 1579   2.163   4.384   5.573 -0.2293  0.0786 -0.2011
 1580BOL    COH 1580   6.159   5.881   3.276  0.0182 -0.1772 -0.2337
 1581BOL    COH 1581   3.932   5.691   1.368  0.0858 -0.2726  0.0307
 1582BOL    COH 1582   2.390   4.239   6.010  0.1714 -0.3222 -0.3199
 1583BOL    COH 1583   3.950   5.084   0.667  0.1807 -0.1129 -0.0041
 1584BOL    COH 1584   0.747   5.712   3.922 -0.0059 -0.0432 -0.0783
 1585BOL    COH 1585   2.919   6.149   1.252  0.1275 -0.1227 -0.0904
 1586BOL    COH 1586   5.525   4.791   3.941  0.0307  0.0763 -0.0339
 1587BOL    COH 1587   4.469   5.476   0.395  0.0217 -0.1215  0.1262
 1588BOL    COH 1588   1.938   1.540   1.227  0.1082 -0.2832 -0.0901
 1589BOL    COH 1589   5.177   0.959   2.112 -0.3155 -0.4236 -0.1083
 1590BOL    COH 1590   5.326   0.636   4.286  0.2236  0.0299  0.1342
 1591BOL    COH 1591   5.185   5.232   3.520  0.0638 -0.1563 -0.0303
 1592BOL    COH 1592   3.600   4.674   2.368 -0.0705 -0.0621 -0.1425
 1593BOL    COH 1593   4.566   3.608   5.570 -0.0212  0.0773 -0.2814
 1594BOL    COH 1594   5.616   6.422   3.434  0.2457 -0.4005  0.2037
 1595BOL    COH 1595   0.828   5.645   0.320 -0.1556  0.4058 -0.1381
 1596BOL    COH 1596   5.934   2.123   6.067  0.0060  0.0191  0.0629
 1597BOL    COH 1597   1.221   2.178   1.161  0.4056  0.0737 -0.1032
 1598BOL    COH 1598   4.580   3.654   4.301 -0.4415  0.0540  0.1656
 1599BOL    COH 1599   3.183   5.630   0.686  0.0846 -0.1076  0.2340
 1600BOL    COH 1600   0.366   2.408   1.319 -0.1923 -0.0654 -0.0551
 1601BOL    COH 1601   5.193   4.455   5.350 -0.3539  0.1173  0.1196
 1602BOL    COH 1602   5.610   1.553   4.160 -0.2193  0.0745  0.0608
 1603BOL    COH 1603   1.740   0.358   4.858 -0.0352  0.3766  0.3885
 1604BOL    COH 1604   5.017   3.870   5.163 -0.0885  0.0273  0.0896
 1605BOL    COH 1605   1.215   5.540   1.711 -0.0486  0.0408 -0.1476
 1606BOL    COH 1606   1.216   5.595   4.156 -0.0086  0.2662 -0.1983
 1607BOL    COH 1607   5.966   5.619   6.090 -0.0247 -0.1403  0.0811
 1608BOL    COH 1608   2.328   1.848   1.364 -0.1218 -0.1849 -0.3433
 1609BOL    COH 1609   1.236   1.307   6.039  0.0559 -0.0805  0.0016
 1610BOL    COH 1610   3.521   1.223   3.245  0.3957 -0.0973  0.0983
 1611BOL    COH 1611   4.836   2.469   3.157 -0.2278 -0.2304  0.2814
 1612BOL    COH 1612   1.701   4.435   0.812 -0.0216 -0.2696 -0.0803
 1613BOL    COH 1613   0.157   0.411   5.705  0.0799  0.0313 -0.1051
 1614BOL    COH 1614   2.685   3.263   5.255 -0.1311 -0.0409  0.0433
 1615BOL    COH 1615   1.643   4.097   4.870 -0.4062  0.4169 -0.0609
 1616BOL    COH 1616   3.044   6.404   3.473  0.0017 -0.1975  0.0976
 1617BOL    COH 1617   2.815   3.264   0.285 -0.0061  0.1114 -0.1096
 1618BOL    COH 1618   0.765   2.508   4.976 -0.4518  0.4080  0.0163
 1619BOL    COH 1619   5.657   0.478   3.938 -0.1529  0.0673 -0.1784
 1620BOL    COH 1620   6.304   4.889   5.014 -0.2917 -0.0771  0.0725
 1621BOL    COH 1621   2.177   0.832   2.987  0.1103  0.0073 -0.2528
 1622BOL    COH 1622   4.960   2.012   6.302  0.0657  0.2656 -0.2868
 1623BOL    COH 1623   0.052   0.022   1.455 -0.0702  0.2217 -0.1157
 1624BOL    COH 1624   3.288   0.101   2.711  0.0208  0.2929  0.1336
 1625BOL    COH 1625   6.075   2.694   6.316 -0.3519 -0.0707  0.0228
 1626BOL    COH 1626   4.941   1.812   5.047 -0.0243 -0.0800 -0.1001
 1627BOL    COH 1627   0.292   4.485   2.063 -0.0393  0.4569  0.1734
 1628BOL    COH 1628   0.217   5.099   0.043  0.1777  0.1835 -0.0129
 1629BOL    COH 1629   0.377   5.685   3.528 -0.0074 -0.0433 -0.0846
 1630BOL    COH 1630   0.429   1.856   1.395 -0.1502 -0.0637  0.1708
 1631BOL    COH 1631   1.902   2.919   6.398  0.1405 -0.4277 -0.1740
 1632BOL    COH 1632   3.435   1.699   2.052  0.3098  0.0950 -0.0769
 1633BOL    COH 1633   2.011   6.409   2.796  0.0143 -0.1359  0.0838
 1634BOL    COH 1634   3.184   1.785   3.049  0.1458  0.1720 -0.2250
 1635BOL    COH 1635   0.465   0.888   5.754  0.0375 -0.0578  0.1944
 1636BOL    COH 1636   0.094   0.086   1.940  0.1177 -0.3131 -0.1122
 1637BOL    COH 1637   1.087   3.534   5.569  0.1642 -0.1652  0.1576
 1638BOL    COH 1638   2.359   0.228   3.609 -0.1173 -0.2906  0.1476
 1639BOL    COH 1639   5.439   5.762   2.656 -0.0717  0.1794  0.0876
 1640BOL    COH 1640   0.587   5.946   1.165  0.2756  0.0726  0.2348
 1641BOL    COH 1641   1.850   5.570   1.829  0.2904 -0.3111 -0.1368
 1642BOL    COH 1642   1.664   4.261   5.326 -0.4480  0.4260  0.2542
 1643BOL    COH 1643   3.535   2.340   3.496 -0.3872  0.0387 -0.3152
 1644BOL    COH 1644   3.921   3.893   3.043  0.0135 -0.0082 -0.2829
 1645BOL    COH 1645   1.509   3.655   0.704 -0.1126  0.2168  0.3169
 1646BOL    COH 1646   2.553   1.882   4.938  0.2834  0.1549  0.1371
 1647BOL    COH 1647   5.303   6.289   6.085 -0.0712  0.0448  0.0490
 1648BOL    COH 1648   1.028   6.265   0.444 -0.0687  0.2143  0.3626
 1649BOL    COH 1649   1.916   5.277   0.016  0.0969 -0.0596  0.2981
 1650BOL    COH 1650   0.905   5.225   3.402  0.0355  0.1042 -0.1468
 1651BOL    COH 1651   4.601   0.593   2.981  0.0446 -0.0039  0.0926
 1652BOL    COH 1652   4.832   1.594   6.103 -0.0008  0.1457 -0.4114
 1653BOL    COH 1653   0.150   5.879   3.044 -0.0064 -0.0043 -0.0284
 1654BOL    COH 1654   5.589   4.427   6.352  0.0881  0.0152 -0.2311
 1655BOL    COH 1655   5.887   3.305   1.929 -0.0403 -0.0180 -0.0714
 1656BOL    COH 1656   0.688   3.955   1.193  0.0464  0.0149  0.1701
 1657BOL    COH 1657   6.068   0.991   6.318 -0.2461 -0.5169 -0.2192
 1658BOL    COH 1658   3.983   0.491   2.040  0.2223  0.0270 -0.0132
 1659BOL    COH 1659   1.350   5.855   2.717 -0.3987  0.1920 -0.1079
 1660BOL    COH 1660   3.905   6.367   5.467  0.2314  0.3181  0.2525
 1661BOL    COH 1661   0.549   2.848   5.510 -0.1854 -0.0245  0.0602
 1662BOL    COH 1662   3.513   6.353   3.660 -0.0345 -0.0609 -0.1920
 1663BOL    COH 1663   2.063   6.166   5.200 -0.0206 -0.2479  0.3054
 1664BOL    COH 1664   0.330   4.429   5.060  0.0349  0.2390 -0.1572
 1665BOL    COH 1665   2.925   0.947   0.247  0.1363  0.0174  0.0654
 1666BOL    COH 1666   0.944   1.057   4.057  0.0013  0.2286  0.0669
 1667BOL    COH 1667   5.709   2.169   5.444 -0.0597  0.0426 -0.0773
 1668BOL    COH 1668   3.623   5.392   5.662  0.1279 -0.0858  0.0234
 1669BOL    COH 1669   2.029   0.519   1.623  0.0736  0.1184 -0.2018
 1670BOL    COH 1670   3.629   3.040   3.094 -0.0163  0.2164  0.1302
 1671BOL    COH 1671   4.211   3.322   4.628  0.3365 -0.3885  0.2293
 1672BOL    COH 1672   2.047   2.133   4.482 -0.0173  0.0845 -0.1985
 1673BOL    COH 1673   5.550   3.784   5.780 -0.1833  0.2105 -0.2606
 1674BOL    COH 1674   0.021   1.912   4.867  0.1909  0.1390  0.5199
 1675BOL    COH 1675   4.892   0.727   5.733 -0.1904  0.0579 -0.1139
 1676BOL    COH 1676   2.944   1.947   6.353  0.3364  0.2441 -0.0104
 1677BOL    COH 1677   2.355   0.896   1.569 -0.0317 -0.2705 -0.1906
 1678BOL    COH 1678   3.328   3.403   4.828  0.1188 -0.2183  0.1284
 1679BOL    COH 1679   1.906   4.738   2.351  0.0935 -0.1482  0.1370
 1680BOL    COH 1680   6.377   3.264   4.127  0.3024 -0.3692 -0.1589
 1681BOL    COH 1681   3.366   0.304   3.193  0.1916 -0.1744 -0.0291
 1682BOL    COH 1682   3.964   2.383   2.788  0.0156  0.1501  0.1146
 1683BOL    COH 1683   3.811   5.503   6.130 -0.0542  0.1035  0.2763
 1684BOL    COH 1684   4.163   1.820   3.449 -0.2426  0.1124  0.0768
 1685BOL    COH 1685   3.393   1.385   4.191  0.0467 -0.1419  0.0844
 1686BOL    COH 1686   4.647   2.335   4.085 -0.2124  0.0909 -0.3168
 1687BOL    COH 1687   5.328   5.759   1.650 -0.0972  0.4177  0.3121
 1688BOL    COH 1688   2.469   2.576   3.565  0.0849 -0.1024 -0.1647
 1689BOL    COH 1689   5.311   3.121   5.247 -0.3259 -0.2760 -0.1309
 1690BOL    COH 1690   1.709   3.402   5.511  0.0869  0.0854  0.0695
 1691BOL    COH 1691   3.434   0.784   5.412 -0.1099  0.2187 -0.2288
 1692BOL    COH 1692   1.841   3.494   2.447  0.1522 -0.0209 -0.0555
 1693BOL    COH 1693   6.404   3.699   4.475  0.0147 -0.0951 -0.1868
 1694BOL    COH 1694   1.535   6.357   5.989  0.1462 -0.1438 -0.2228
 1695BOL    COH 1695   2.577   1.161   2.073 -0.0855  0.2315  0.1235
 1696BOL    COH 1696   3.977   6.256   3.927 -0.2235  0.5149 -0.0357
 1697BOL    COH 1697   6.317   1.644   6.135  0.0401  0.0039 -0.1703
 1698BOL    COH 1698   0.971   4.563   0.360  0.0060 -0.2129 -0.3641
 1699BOL    COH 1699   1.002   1.949   3.812  0.0854  0.2176  0.1906
 1700BOL    COH 1700   4.546   0.219   3.265 -0.1477  0.0078 -0.1690
 1701BOL    COH 1701   5.058   2.975   0.287 -0.1467  0.0878  0.1361
 1702BOL    COH 1702   2.444   0.202   5.642 -0.1869  0.2366 -0.0691
 1703BOL    COH 1703   3.432   6.197   5.122 -0.1663 -0.1503  0.3516
 1704BOL    COH 1704   0.115   4.281   3.774 -0.2736  0.0691 -0.0535
 1705BOL    COH 1705   5.314   6.292   4.871  0.1196 -0.0088 -0.1373
 1706BOL    COH 1706   4.139   0.543   0.507 -0.1110  0.0814 -0.0537
 1707BOL    COH 1707   0.871   5.781   2.482 -0.0409  0.2079  0.1518
 1708BOL    COH 1708   5.357   3.210   1.880 -0.0441  0.2168 -0.0963
 1709BOL    COH 1709   4.522   3.036   5.198  0.1391  0.2855  0.3264
 1710BOL    COH 1710   0.057   5.891   4.437 -0.0398  0.2441  0.0319
 1711BOL    COH 1711   5.214   0.774   3.707 -0.0324  0.1060  0.0770
 1712BOL    COH 1712   3.971   2.629   5.811 -0.1695  0.2645  0.3240
 1713BOL    COH 1713   6.006   4.657   3.718  0.0249 -0.1017 -0.3090
 1714BOL    COH 1714   3.142   2.032   3.711 -0.2992  0.0000 -0.1027
 1715BOL    COH 1715   4.216   3.467   0.544  0.1644 -0.0410 -0.1748
 1716BOL    COH 1716   3.220   3.491   1.675  0.1625  0.2472 -0.1034
 1717BOL    COH 1717   6.301   3.713   1.674  0.4778 -0.0564  0.0633
 1718BOL    COH 1718   4.031   0.112   0.885  0.1828 -0.0651  0.1274
 1719BOL    COH 1719   6.087   0.871   0.472 -0.0372 -0.1979  0.2145
 1720BOL    COH 1720   2.366   3.667   2.937  0.3660 -0.3498  0.2838
 1721BOL    COH 1721   5.563   4.059   2.410  0.3736 -0.2783  0.0610
 1722BOL    COH 1722   0.011   3.600   2.676  0.1321  0.2899 -0.0579
 1723BOL    COH 1723   6.110   2.132   3.159  0.0846  0.1238  0.0013
 1724BOL    COH 1724   2.777   3.058   3.614  0.4899 -0.1143  0.0716
 1725BOL    COH 1725   5.527   1.092   4.638  0.0492  0.0873 -0.1978
 1726BOL    COH 1726   0.043   5.031   1.448 -0.3187  0.0470 -0.1249
 1727BOL    COH 1727   6.207   4.680   1.743 -0.1823 -0.0692 -0.0570
 1728BOL    COH 1728   5.999   3.467   4.665 -0.1755 -0.0171  0.1038
 1729BOL    COH 1729   5.840   4.720   5.127  0.1967  0.0229 -0.2741
 1730BOL    COH 1730   3.073   3.607   4.027 -0.2117 -0.2684 -0.0741
 1731BOL    COH 1731   0.357   3.905   0.424 -0.1395 -0.0848  0.1814
 1732BOL    COH 1732   3.025   1.463   2.410  0.0144 -0.2217 -0.1961
 1733BOL    COH 1733   5.709   1.206   5.302 -0.0603  0.1611  0.0128
 1734BOL    COH 1734   2.277   3.097   1.831  0.0138  0.3715 -0.0160
 1735BOL    COH 1735   4.138   5.043   0.208 -0.2317 -0.0461  0.0248
 1736BOL    COH 1736   3.027   1.413   1.938  0.0075 -0.1185 -0.0084
 1737BOL    COH 1737   1.405   5.144   3.954 -0.0405  0.0893 -0.0086
 1738BOL    COH 1738   5.606   1.960   1.295  0.0825  0.0486  0.0617
 1739BOL    COH 1739   5.355   4.916   5.181  0.2729  0.0452 -0.4317
 1740BOL    COH 1740   2.043   3.987   2.725 -0.2416  0.0935 -0.0612
 1741BOL    COH 1741   4.672   5.194   1.710 -0.3903  0.2694 -0.0979
 1742BOL    COH 1742   2.483   3.659   4.979 -0.3342  0.1842 -0.0324
 1743BOL    COH 1743   6.061   2.442   5.657 -0.1536  0.0521 -0.3907
 1744BOL    COH 1744   3.679   2.470   5.292 -0.3587 -0.2007  0.1298
 1745BOL    COH 1745   1.780   6.158   4.814  0.0227  0.0383 -0.2234
 1746BOL    COH 1746   2.686   6.277   0.331  0.0214  0.1268 -0.1758
 1747BOL    COH 1747   3.757   0.541   4.612  0.0490 -0.1305  0.0317
 1748BOL    COH 1748   5.014   0.269   4.649 -0.1314 -0.2068 -0.1158
 1749BOL    COH 1749   5.254   0.649   2.720  0.1983  0.1239  0.3570
 1750BOL    COH 1750   0.982   4.337   3.658 -0.1145  0.4485  0.0634
 1751BOL    COH 1751   0.783   3.953   3.280  0.2302 -0.0248  0.3742
 1752BOL    COH 1752   1.056   4.092   0.179  0.0595 -0.2557  0.1153
 1753BOL    COH 1753   2.262   0.455   2.542 -0.0875  0.0157 -0.1634
 1754BOL    COH 1754   6.292   2.111   5.287  0.0154  0.0722 -0.0304
 1755BOL    COH 1755   3.758   5.887   5.839 -0.1354  0.1499 -0.1046
 1756BOL    COH 1756   4.916   4.747   6.252 -0.4938 -0.1368 -0.0318
 1757BOL    COH 1757   3.037   2.471   1.778 -0.4023 -0.0585 -0.1470
 1758BOL    COH 1758   2.235   5.763   2.099 -0.1500  0.0756  0.1142
 1759BOL    COH 1759   6.219   0.033   0.272 -0.2696  0.0742 -0.0171
 1760BOL    COH 1760   5.096   6.224   1.399 -0.1421 -0.1295 -0.2278
 1761BOL    COH 1761   5.734   0.873   3.592  0.2173 -0.0024  0.0871
 1762BOL    COH 1762   3.352   2.109   2.408 -0.1585 -0.1402 -0.1615
 1763BOL    COH 1763   0.248   4.204   0.910 -0.1067  0.0159 -0.2975
 1764BOL    COH 1764   6.095   6.054   2.160  0.1118  0.0262 -0.1757
 1765BOL    COH 1765   2.102   2.053   4.967 -0.1050 -0.1421 -0.1620
 1766BOL    COH 1766   0.358   2.314   5.218  0.1218 -0.1846 -0.3417
 1767BOL    COH 1767   1.293   3.289   1.023 -0.3298 -0.1839 -0.0123
 1768BOL    COH 1768   3.850   2.205   1.168  0.1247  0.1382  0.1642
 1769BOL    COH 1769   1.616   0.751   5.209  0.0528  0.0109  0.0487
 1770BOL    COH 1770   4.247   4.580   4.145  0.3979 -0.0369 -0.3220
 1771BOL    COH 1771   4.634   6.338   4.727 -0.1779  0.0767  0.1231
 1772BOL    COH 1772   5.754   1.397   3.679  0.0264 -0.0134 -0.0540
 1773BOL    COH 1773   0.999   5.635   5.964  0.0582  0.2600 -0.2193
 1774BOL    COH 1774   0.993   5.926   6.363 -0.1794  0.1474  0.2657
 1775BOL    COH 1775   0.105   5.263   3.863 -0.1180  0.1126 -0.2197
 1776BOL    COH 1776   0.705   3.628   2.641  0.1539 -0.1158 -0.2220
 1777BOL    COH 1777   1.125   5.862   5.520  0.1709  0.0956 -0.1841
 1778BOL    COH 1778   0.941   3.455   2.058 -0.1541  0.3395 -0.0505
 1779BOL    COH 1779   4.754   5.154   0.095  0.0474 -0.3368  0.1737
 1780BOL    COH 1780   1.326   3.290   3.877 -0.0358  0.0122 -0.0642
 1781BOL    COH 1781   0.940   5.306   6.333 -0.1318 -0.1417  0.0478
 1782BOL    COH 1782   0.765   4.474   5.366  0.0560  0.0720 -0.0786
 1783BOL    COH 1783   2.984   1.469   5.040  0.4478  0.2380  0.0381
 1784BOL    COH 1784   4.932   1.475   1.981  0.1666  0.0133 -0.3219
 1785BOL    COH 1785   4.748   4.315   3.582  0.1445  0.1224 -0.1172
 1786BOL    COH 1786   5.349   0.494   5.625  0.2844 -0.3097 -0.3645
 1787BOL    COH 1787   0.717   1.328   5.940 -0.0280 -0.1883 -0.0495
 1788BOL    COH 1788   4.933   1.847   0.650 -0.0644  0.0592 -0.2230
 1789BOL    COH 1789   2.820   0.733   3.852  0.1833  0.0596  0.1638
 1790BOL    COH 1790   1.778   5.820   3.538 -0.0229  0.1857  0.0647
 1791BOL    COH 1791   1.421   1.169   0.079 -0.1824  0.2052 -0.1276
 1792BOL    COH 1792   4.020   4.612   6.344  0.2175  0.2345 -0.0818
 1793BOL    COH 1793   4.995   1.082   2.775 -0.1800  0.2481 -0.0959
 1794BOL    COH 1794   1.370   5.558   3.651 -0.1976 -0.0800  0.2492
 1795BOL    COH 1795   0.479   3.765   5.714  0.1555 -0.2183 -0.0572
 1796BOL    COH 1796   2.592   2.144   1.801  0.0334  0.0651 -0.0080
 1797BOL    COH 1797   3.808   0.726   0.799  0.2439 -0.3456  0.0755
 1798BOL    COH 1798   4.660   2.388   6.110 -0.0855 -0.1462  0.0222
 1799BOL    COH 1799   4.274   1.430   2.943 -0.2730  0.0120 -0.1851
 1800BOL    COH 1800   3.805   1.511   3.726  0.0708  0.3835  0.1715
 1801BOL    COH 1801   3.110   5.418   2.646  0.1409  0.3730  0.4428
 1802BOL    COH 1802   0.227   2.404   4.131 -0.1722 -0.0238  0.0363
 1803BOL    COH 1803   3.640   5.339   1.566  0.1595  0.2611 -0.2440
 1804BOL    COH 1804   4.911   2.515   2.624 -0.0650 -0.1524  0.2704
 1805BOL    COH 1805   2.424   5.251   3.265  0.0228 -0.1555 -0.1291
 1806BOL    COH 1806   5.559   6.124   4.464 -0.0704 -0.1340  0.4109
 1807BOL    COH 1807   4.090   2.309   4.249 -0.0873 -0.2126  0.3601
 1808BOL    COH 1808   2.337   0.487   6.090 -0.4598  0.0781 -0.2694
 1809BOL    COH 1809   6.027   6.239   1.641  0.0610  0.0607  0.1598
 1810BOL    COH 1810   0.481   3.502   3.318 -0.2894 -0.0761 -0.1972
 1811BOL    COH 1811   4.507   5.070   4.230 -0.1492  0.2834 -0.1203
 1812BOL    COH 1812   6.195   4.201   1.683 -0.1245 -0.2155 -0.2449
 1813BOL    COH 1813   1.544   1.306   3.607  0.1315 -0.1324  0.0720
 1814BOL    COH 1814   1.289   1.597   5.276  0.1269  0.2585  0.4193
 1815BOL    COH 1815   0.717   5.679   2.948  0.1005 -0.2567 -0.4677
 1816BOL    COH 1816   4.556   1.649   1.390 -0.2277  0.0026 -0.2399
 1817BOL    COH 1817   2.996   4.814   4.674  0.0301  0.4709 -0.2301
 1818BOL    COH 1818   5.415   1.140   0.807 -0.0251 -0.1226  0.1221
 1819BOL    COH 1819   0.981   6.187   4.179  0.0285 -0.3389  0.0546
 1820BOL    COH 1820   3.874   4.816   4.410 -0.2877  0.1557  0.0177
 1821BOL    COH 1821   2.512   2.299   4.729  0.0228 -0.0887  0.0920
 1822BOL    COH 1822   5.212   5.242   2.697 -0.2470  0.3125 -0.1971
 1823BOL    COH 1823   6.293   0.371   0.650  0.0615  0.2798  0.0520
 1824BOL    COH 1824   3.611   0.220   1.704 -0.0077 -0.2269  0.3040
 1825BOL    COH 1825   2.147   1.420   2.161  0.0265  0.0013  0.0925
 1826BOL    COH 1826   1.417   0.453   1.922  0.0366 -0.1084 -0.1018
 1827BOL    COH 1827   4.885   1.209   5.614 -0.0648  0.1798 -0.0647
 1828BOL    COH 1828   0.746   0.302   1.836  0.2014 -0.1618 -0.1517
 1829BOL    COH 1829   4.555   1.356   0.547  0.0541 -0.1545  0.1490
 1830BOL    COH 1830   5.080   4.309   6.092  0.0075 -0.1392 -0.1839
 1831BOL    COH 1831   5.784   5.207   5.291 -0.0322  0.0263 -0.1949
 1832BOL    COH 1832   4.642   1.586   3.331 -0.0627  0.2102  0.0906
 1833BOL    COH 1833   1.199   4.221   5.112 -0.1303 -0.0414  0.3272
 1834BOL    COH 1834   0.061   0.604   6.174  0.2122 -0.1278 -0.1176
 1835BOL    COH 1835   5.996   0.492   2.430  0.0663 -0.2416 -0.0737
 1836BOL    COH 1836   4.545   2.657   0.983  0.1471  0.1262  0.1645
 1837BOL    COH 1837   3.745   4.330   1.745  0.0244  0.0842  0.2691
 1838BOL    COH 1838   3.950   2.863   1.474 -0.0758  0.0873  0.0485
 1839BOL    COH 1839   3.265   1.577   5.526  0.1425  0.1711 -0.1589
 1840BOL    COH 1840   1.061   1.364   3.724 -0.1114  0.2323  0.2131
 1841BOL    COH 1841   6.153   3.560   0.367  0.1702  0.1180  0.1146
 1842BOL    COH 1842   1.033   2.086   0.147  0.2165  0.1372 -0.1042
 1843BOL    COH 1843   3.753   0.763   0.231 -0.1149  0.3110 -0.0246
 1844BOL    COH 1844   2.501   0.792   0.060  0.0485 -0.2058  0.0753
 1845BOL    COH 1845   1.782   1.293   4.601  0.0364 -0.0592  0.0274
 1846BOL    COH 1846   5.318   4.191   4.897 -0.2121 -0.4594  0.0238
 1847BOL    COH 1847   1.375   3.241   3.415 -0.2642  0.0673  0.0046
 1848BOL    COH 1848   2.665   5.214   5.333  0.2340  0.1324  0.3815
 1849BOL    COH 1849   3.341   6.036   0.929 -0.1281 -0.0044 -0.1757
 1850BOL    COH 1850   0.167   4.737   3.587  0.0304 -0.0177 -0.0677
 1851BOL    COH 1851   3.409   5.205   0.457  0.3789  0.1519  0.3012
 1852BOL    COH 1852   1.461   4.581   3.795 -0.0758  0.1399  0.3785
 1853BOL    COH 1853   2.901   0.979   5.201  0.0413  0.1419 -0.0073
 1854BOL    COH 1854   2.826   3.547   2.750 -0.1134 -0.2222  0.4239
 1855BOL    COH 1855   4.394   4.111   4.190  0.1972  0.1944 -0.1831
 1856BOL    COH 1856   2.865   0.434   3.411 -0.1427 -0.2181  0.0360
 1857BOL    COH 1857   2.798   0.772   1.839  0.2455  0.0579 -0.2464
 1858BOL    COH 1858   2.593   4.942   5.767 -0.1249 -0.2554  0.2418
 1859BOL    COH 1859   4.803   1.668   5.497 -0.1409  0.1851  0.2072
 1860BOL    COH 1860   6.040   1.418   2.027 -0.0194 -0.0351  0.1339
 1861BOL    COH 1861   2.967   2.566   6.013 -0.0585  0.1044  0.2416
 1862BOL    COH 1862   2.809   5.499   4.057  0.2687  0.1044 -0.1396
 1863BOL    COH 1863   3.263   6.406   4.080 -0.3333 -0.1267 -0.2450
 1864BOL    COH 1864   4.829   6.217   3.037  0.1490 -0.3695  0.0596
 1865BOL    COH 1865   1.245   0.311   1.425 -0.2173 -0.3519 -0.0247
 1866BOL    COH 1866   4.283   0.541   4.035 -0.2393  0.1194 -0.0862
 1867BOL    COH 1867   0.880   3.193   3.209 -0.4229  0.1792  0.5749
 1868BOL    COH 1868   5.349   4.477   2.253 -0.0821 -0.1786 -0.0210
 1869BOL    COH 1869   0.660   5.095   4.478 -0.1187  0.0509  0.2182
 1870BOL    COH 1870   1.655   1.804   5.041 -0.0700  0.0105  0.0182
 1871BOL    COH 1871   2.397   6.103   2.989 -0.3171 -0.1110 -0.3456
 1872BOL    COH 1872   3.728   0.104   4.371  0.2441  0.2065 -0.2630
 1873BOL    COH 1873   5.557   3.200   2.819 -0.2902  0.2366  0.4476
 1874BOL    COH 1874   2.473   3.886   3.731 -0.3098  0.0055 -0.0532
 1875BOL    COH 1875   5.837   3.106   6.030 -0.0565 -0.2574  0.0201
 1876BOL    COH 1876   2.613   4.987   4.363  0.1077 -0.4256 -0.3081
 1877BOL    COH 1877   1.204   0.004   5.576 -0.1335  0.1771  0.1399
 1878BOL    COH 1878   4.985   6.358   0.924  0.1151 -0.1582 -0.1756
 1879BOL    COH 1879   6.181   0.219   1.117  0.0220 -0.0185 -0.2001
 1880BOL    COH 1880   0.491   0.105   2.211 -0.3978 -0.0334  0.0995
 1881BOL    COH 1881   6.282   0.623   4.654 -0.1297 -0.1665  0.1580
 1882BOL    COH 1882   0.104   2.174   1.631 -0.0324  0.0109 -0.3671
 1883BOL    COH 1883   1.314   5.852   0.382  0.0197  0.0481 -0.3039
 1884BOL    COH 1884   2.552   1.292   0.221  0.0825 -0.2210 -0.2331
 1885BOL    COH 1885   1.841   3.264   3.806  0.0549  0.2111  0.1164
 1886BOL    COH 1886   0.084   5.922   1.412 -0.0221 -0.0567 -0.0695
 1887BOL    COH 1887   2.236   6.047   0.037  0.2053 -0.1341 -0.1781
 1888BOL    COH 1888   5.643   6.154   2.438  0.1443 -0.0113 -0.1284
 1889BOL    COH 1889   6.147   2.940   0.310 -0.0824  0.0477  0.0049
 1890BOL    COH 1890   2.275   4.313   0.868 -0.0203 -0.0959  0.0353
 1891BOL    COH 1891   5.047   1.318   0.564  0.1785  0.0435  0.0408
 1892BOL    COH 1892   5.371   3.376   6.008 -0.0599 -0.1183  0.2578
 1893BOL    COH 1893   3.203   0.260   5.640 -0.2495  0.0158 -0.0331
 1894BOL    COH 1894   0.517   4.295   3.537 -0.0185 -0.0875 -0.1103
 1895BOL    COH 1895   4.521   1.099   1.325 -0.0254 -0.0633  0.1784
 1896BOL    COH 1896   4.306   0.660   5.489  0.2020  0.0210  0.0226
 1897BOL    COH 1897   5.661   4.830   1.855  0.4724 -0.2523  0.0242
 1898BOL    COH 1898   1.275   1.716   1.325  0.0961 -0.2934 -0.0096
 1899BOL    COH 1899   6.147   3.766   1.212 -0.3333 -0.0808  0.2148
 1900BOL    COH 1900   2.296   3.259   4.736 -0.0642  0.2148  0.3700
 1901BOL    COH 1901   5.911   1.224   3.235  0.1301  0.0478 -0.0233
 1902BOL    COH 1902   2.696   4.890   2.076 -0.1281  0.1350  0.2226
 1903BOL    COH 1903   4.753   0.623   2.544 -0.0957 -0.4214 -0.0982
 1904BOL    COH 1904   5.716   4.496   2.531 -0.1598 -0.0147  0.4362
 1905BOL    COH 1905   5.323   1.686   1.669 -0.3216  0.1940  0.2827
 1906BOL    COH 1906   0.198   4.050   2.534 -0.2808 -0.1462 -0.0284
 1907BOL    COH 1907   0.678   0.743   1.491  0.3771 -0.1035 -0.0798
 1908BOL    COH 1908   6.023   1.949   0.115  0.3290  0.0387 -0.1205
 1909BOL    COH 1909   1.348   4.857   0.650 -0.0818 -0.0095 -0.3025
 1910BOL    COH 1910   2.203   3.981   1.359 -0.0151  0.3150 -0.4043
 1911BOL    COH 1911   1.501   1.757   3.801 -0.0388 -0.3297 -0.0389
 1912BOL    COH 1912   4.518   5.357   2.237 -0.2455  0.1348  0.1839
 1913BOL    COH 1913   0.837   3.034   6.335  0.2411  0.2572 -0.4576
 1914BOL    COH 1914   0.629   5.537   0.791  0.0091  0.1603  0.1265
 1915BOL    COH 1915   5.519   0.621   2.279  0.0037 -0.0502  0.1333
 1916BOL    COH 1916   4.631   1.665   4.714 -0.1747 -0.0533  0.1238
 1917BOL    COH 1917   1.116   0.794   0.322  0.1357 -0.0725 -0.1500
 1918BOL    COH 1918   6.411   5.439   3.343 -0.0078  0.0767 -0.2402
 1919BOL    COH 1919   2.150   1.584   0.440 -0.2083  0.2423 -0.0504
 1920BOL    COH 1920   5.740   2.276   0.549 -0.2502  0.2916 -0.2083
 1921BOL    COH 1921   3.382   4.969   4.257 -0.2144  0.0102 -0.0537
 1922BOL    COH 1922   4.772   1.647   0.206 -0.4107  0.0454 -0.0231
 1923BOL    COH 1923   4.593   3.715   3.714 -0.2010  0.1064  0.0684
 1924BOL    COH 1924   5.350   0.330   0.758 -0.0378  0.0150  0.0787
 1925BOL    COH 1925   2.031   5.174   5.215  0.0348  0.1429  0.1983
 1926BOL    COH 1926   3.627   6.336   0.673  0.1669 -0.0986 -0.0014
 1927BOL    COH 1927   5.730   0.215   5.776  0.1344  0.1526 -0.0494
 1928BOL    COH 1928   1.771   1.381   1.804 -0.0920 -0.0953 -0.0329
 1929BOL    COH 1929   5.066   4.006   4.397  0.2005  0.0513  0.1268
 1930BOL    COH 1930   2.885   3.812   0.468 -0.1431  0.1362 -0.3796
 1931BOL    COH 1931   4.849   5.337   5.164  0.0856  0.0679 -0.0458
 1932BOL    COH 1932   5.148   1.371   3.757  0.3903 -0.1442 -0.2989
 1933BOL    COH 1933   0.636   2.515   1.722 -0.1371  0.1399  0.1386
 1934BOL    COH 1934   4.469   3.482   3.261 -0.0858 -0.0387  0.0077
 1935BOL    COH 1935   2.411   3.392   3.804  0.3646  0.2125  0.0165
 1936BOL    COH 1936   4.052   4.317   1.322 -0.1253  0.0525  0.0038
 1937BOL    COH 1937   5.126   5.523   0.113  0.0571 -0.0045  0.0393
 1938BOL    COH 1938   3.233   2.397   0.016  0.1915 -0.0662 -0.0689
 1939BOL    COH 1939   1.644   2.404   0.878  0.1023  0.1166 -0.0780
 1940BOL    COH 1940   4.623   6.388   2.304 -0.0477  0.0911 -0.2116
 1941BOL    COH 1941   4.385   6.050   1.443 -0.0504  0.2737 -0.2992
 1942BOL    COH 1942   6.421   2.110   6.187  0.3212  0.0721  0.0809
 1943BOL    COH 1943   4.861   2.947   6.084 -0.1022 -0.0676  0.1655
 1944BOL    COH 1944   3.342   0.721   1.011  0.1363 -0.1364  0.2403
 1945BOL    COH 1945   2.611   4.265   1.327 -0.0957  0.1652 -0.1126
 1946BOL    COH 1946   0.289   5.497   0.389 -0.4216  0.1797  0.1155
 1947BOL    COH 1947   2.359   3.066   0.307 -0.0148 -0.0352 -0.1817
 1948BOL    COH 1948   1.793   0.063   1.713 -0.0599  0.1112 -0.0342
 1949BOL    COH 1949   5.399   2.977   1.102  0.1678  0.0748 -0.1526
 1950BOL    COH 1950   5.334   4.072   0.193 -0.0076 -0.1269 -0.2926
 1951BOL    COH 1951   6.266   1.891   2.000 -0.2023 -0.1206  0.0963
 1952BOL    COH 1952   3.633   4.310   3.580 -0.0234  0.1086 -0.1630
 1953BOL    COH 1953   3.664   2.613   0.656  0.1795 -0.1213 -0.0111
 1954BOL    COH 1954   0.533   5.973   4.264  0.0371 -0.0128  0.1205
 1955BOL    COH 1955   0.789   0.225   3.830 -0.1916 -0.1773  0.0299
 1956BOL    COH 1956   1.111   3.466   6.288  0.1353 -0.0666  0.3690
 1957BOL    COH 1957   0.749   1.281   4.448  0.0984  0.0492  0.2038
 1958BOL    COH 1958   0.983   1.144   3.250  0.0694 -0.2326  0.0112
 1959BOL    COH 1959   5.905   2.854   1.119  0.0141 -0.0341 -0.0750
 1960BOL    COH 1960   5.348   1.794   3.710 -0.1137  0.3227  0.2068
 1961BOL    COH 1961   0.516   0.096   4.194  0.4199  0.2246  0.1740
 1962BOL    COH 1962   2.637   4.413   5.620  0.0742  0.0341 -0.0851
 1963BOL    COH 1963   3.100   4.302   0.491 -0.1446 -0.0522 -0.0090
 1964BOL    COH 1964   5.481   1.379   1.232  0.2518  0.0347 -0.0664
 1965BOL    COH 1965   5.526   5.488   4.456 -0.2596  0.0285  0.0321
 1966BOL    COH 1966   0.386   3.850   2.979 -0.1396 -0.0138  0.0973
 1967BOL    COH 1967   4.901   3.358   1.869  0.1935  0.1549  0.3277
 1968BOL    COH 1968   5.649   3.451   5.061  0.4052 -0.0879  0.0460
 1969BOL    COH 1969   1.868   4.755   1.701 -0.0675  0.0277 -0.2437
 1970BOL    COH 1970   2.650   4.085   5.233  0.1733  0.2374  0.2346
 1971BOL    COH 1971   3.517   2.939   4.135 -0.1703  0.2349  0.2441
 1972BOL    COH 1972   6.211   2.943   4.786  0.2603 -0.1664  0.0757
 1973BOL    COH 1973   4.136   1.860   1.546  0.1110 -0.0119  0.1866
 1974BOL    COH 1974   4.390   4.569   6.024  0.2151 -0.0522  0.2196
 1975BOL    COH 1975   6.070   0.279   2.939 -0.2248  0.0322 -0.3107
 1976BOL    COH 1976   2.046   6.111   1.530 -0.0514  0.0714 -0.0713
 1977BOL    COH 1977   1.507   3.425   2.837 -0.0220  0.0049  0.0366
 1978BOL    COH 1978   2.217   0.525   0.415  0.3531 -0.0797 -0.0416
 1979BOL    COH 1979   0.480   0.894   6.215  0.1475  0.1627 -0.3210
 1980BOL    COH 1980   4.832   3.188   5.629  0.0977  0.1287  0.2034
 1981BOL    COH 1981   0.089   1.513   3.638  0.2757 -0.0940  0.1262
 1982BOL    COH 1982   1.008   5.940   0.876 -0.1695 -0.1775  0.0207
 1983BOL    COH 1983   1.787   0.551   3.365  0.0869  0.0346  0.1419
 1984BOL    COH 1984   1.790   4.260   6.325  0.2403 -0.0088 -0.0555
 1985BOL    COH 1985   2.989   1.990   2.110  0.1419 -0.2058 -0.2014
 1986BOL    COH 1986   0.412   0.401   4.570  0.1515 -0.0245 -0.0294
 1987BOL    COH 1987   2.114   0.538   3.978  0.0606 -0.0121 -0.3637
 1988BOL    COH 1988   2.373   6.098   5.536  0.0432  0.3132  0.3083
 1989BOL    COH 1989   6.171   5.070   3.587 -0.0628 -0.1936 -0.0473
 1990BOL    COH 1990   3.378   5.905   6.175  0.2826  0.1752 -0.0553
 1991BOL    COH 1991   5.971   6.252   4.775  0.0976 -0.0897 -0.0101
 1992BOL    COH 1992   5.166   4.556   4.430 -0.0388 -0.1112  0.0818
 1993BOL    COH 1993   4.760   2.238   0.252 -0.1455  0.3905  0.0034
 1994BOL    COH 1994   2.874   2.466   5.142 -0.1204  0.0358 -0.1239
 1995BOL    COH 1995   5.988   5.754   4.554 -0.1652  0.0507 -0.2555
 1996BOL    COH 1996   6.013   4.841   0.584 -0.0462  0.1240 -0.0955
 1997BOL    COH 1997   3.342   2.406   4.924 -0.0777  0.1834  0.2796
 1998BOL    COH 1998   4.768   2.654   3.670 -0.1503  0.1240 -0.1715
 1999BOL    COH 1999   6.153   6.183   5.727  0.3147  0.0635  0.0179
 2000BOL    COH 2000   0.426   1.163   1.415 -0.1734  0.2246 -0.1393
 2001BOL    COH 2001   2.238   0.223   5.129  0.0329 -0.1985  0.0684
 2002BOL    COH 2002   1.707   5.271   0.880  0.0708  0.2999  0.1539
 2003BOL    COH 2003   1.823   2.781   2.975 -0.1192  0.3644 -0.1005
 2004BOL    COH 2004   4.367   3.981   3.321  0.1757 -0.2560 -0.0916
 2005BOL    COH 2005   4.062   1.513   0.614 -0.1932  0.2197 -0.3245
 2006BOL    COH 2006   1.845   5.485   3.879  0.1978 -0.0612 -0.1136
 2007BOL    COH 2007   6.201   2.065   0.557  0.1307 -0.2466  0.3498
 2008BOL    COH 2008   2.654   5.748   2.333 -0.1879  0.0586 -0.2673
 2009BOL    COH 2009   4.257   3.846   4.610  0.1800  0.1127 -0.1668
 2010BOL    COH 2010   3.568   2.956   5.728 -0.1554  0.0681  0.1284
 2011BOL    COH 2011   6.070   6.417   2.519 -0.1877  0.0567  0.0540
 2012BOL    COH 2012   0.303   4.639   6.378  0.4142  0.0435 -0.0467
 2013BOL    COH 2013   1.891   4.960   3.905 -0.1159 -0.2106 -0.3902
 2014BOL    COH 2014   5.888   1.463   4.958 -0.1787  0.0799 -0.1252
 2015BOL    COH 2015   3.512   1.746   0.701 -0.2523 -0.0364  0.1783
 2016BOL    COH 2016   3.601   5.078   3.829  0.2152 -0.1053  0.0058
 2017BOL    COH 2017   2.194   1.872   2.806 -0.0450 -0.2190 -0.1208
 2018BOL    COH 2018   5.939   2.882   2.768 -0.1316 -0.1136  0.0220
 2019BOL    COH 2019   0.842   4.537   2.960  0.1067 -0.0492  0.2899
 2020BOL    COH 2020   0.353   5.331   3.002  0.0461  0.2232  0.3610
 2021BOL    COH 2021   0.857   4.160   4.338  0.0038  0.0731 -0.0669
 2022BOL    COH 2022   1.550   1.734   2.145 -0.1504 -0.1089  0.1082
 2023BOL    COH 2023   2.057   2.363   6.137 -0.0098 -0.2011  0.2122
 2024BOL    COH 2024   3.970   5.035   1.189 -0.2729  0.1158  0.0208
 2025BOL    COH 2025   1.050   1.064   0.937 -0.1879  0.1003  0.1339
 2026BOL    COH 2026   6.278   4.480   2.734  0.0553 -0.0818  0.1206
 2027BOL    COH 2027   4.026   5.240   4.194  0.1146  0.3320 -0.0522
 2028BOL    COH 2028   0.177   3.411   0.460  0.1107 -0.1193 -0.3374
 2029BOL    COH 2029   1.134   0.130   6.392 -0.1313  0.0588 -0.1206
 2030BOL    COH 2030   4.308   5.954   3.709 -0.1680  0.1345  0.4604
 2031BOL    COH 2031   3.543   4.767   3.352  0.0878 -0.1576  0.0935
 2032BOL    COH 2032   1.331   3.932   4.531 -0.0397 -0.1468  0.0313
 2033BOL    COH 2033   2.663   3.204   6.248  0.0573  0.0169 -0.6080
 2034BOL    COH 2034   3.685   2.576   4.424  0.2621  0.0028  0.3846
 2035BOL    COH 2035   2.383   5.284   2.303 -0.0427 -0.1797  0.2987
 2036BOL    COH 2036   5.534   2.530   1.152  0.1323  0.0801  0.1804
 2037BOL    COH 2037   2.668   2.462   2.122  0.0684 -0.2316 -0.1002
 2038BOL    COH 2038   4.218   0.847   4.478 -0.1057  0.1177  0.0109
 2039BOL    COH 2039   6.268   0.157   4.430  0.0806  0.0575 -0.1055
 2040BOL    COH 2040   4.607   5.904   2.256  0.1215  0.0746  0.1153
 2041BOL    COH 2041   5.233   2.719   2.137 -0.0212 -0.2942 -0.2187
 2042BOL    COH 2042   2.672   5.449   5.891 -0.0744  0.0777 -0.2070
 2043BOL    COH 2043   1.707   3.572   1.255 -0.2130 -0.2987 -0.1159
 2044BOL    COH 2044   4.478   5.561   1.314  0.0166  0.0246 -0.0613
 2045BOL    COH 2045   5.708   3.155   1.489 -0.0692 -0.0410 -0.1394
 2046BOL    COH 2046   2.825   2.729   0.086 -0.2043  0.1022 -0.0861
 2047BOL    COH 2047   2.399   0.165   4.125  0.1178  0.1814 -0.3329
 2048BOL    COH 2048   5.858   2.586   3.547 -0.3989 -0.2229 -0.3509
 2049BOL    COH 2049   3.314   0.704   2.522 -0.1817  0.0653 -0.2907
 2050BOL    COH 2050   3.518   0.716   1.996  0.0418  0.3819  0.0002
 2051BOL    COH 2051   6.087   6.141   4.229  0.0376 -0.1850 -0.2492
 2052BOL    COH 2052   0.907   2.963   0.974  0.1834  0.0474 -0.0040
 2053BOL    COH 2053   0.639   6.153   5.501 -0.0936  0.1930  0.2102
 2054BOL    COH 2054   6.355   0.858   5.603  0.0397  0.1374  0.2024
 2055BOL    COH 2055   3.318   3.945   1.432  0.0054  0.2081  0.1032
 2056BOL    COH 2056   5.573   5.454   1.311 -0.1737 -0.0707 -0.0432
 2057BOL    COH 2057   2.649   5.476   1.841  0.0863 -0.2609 -0.0021
 2058BOL    COH 2058   0.951   2.835   1.876 -0.2839  0.1434  0.0393
 2059BOL    COH 2059   0.611   2.120   3.478 -0.0595  0.1654 -0.1056
 2060BOL    COH 2060   1.761   2.473   4.295  0.0807  0.2849  0.0327
 2061BOL    COH 2061   3.534   1.653   4.931  0.1858  0.1609  0.0635
 2062BOL    COH 2062   0.550   5.192   5.967 -0.1291 -0.2306  0.0893
 2063BOL    COH 2063   4.025   4.637   0.461 -0.1249 -0.1848  0.1453
 2064BOL    COH 2064   1.502   6.324   1.279 -0.1707  0.0158  0.1055
 2065BOL    COH 2065   6.192   5.221   0.335  0.4536 -0.0628  0.0580
 2066BOL    COH 2066   1.207   5.509   5.166 -0.1958 -0.2241  0.2549
 2067BOL    COH 2067   5.464   2.306   4.331 -0.0338 -0.0025 -0.0005
 2068BOL    COH 2068   2.990   3.065   1.232  0.1515 -0.2196 -0.2403
 2069BOL    COH 2069   0.768   4.783   6.237 -0.0884 -0.1468  0.1893
 2070BOL    COH 2070   5.782   1.855   1.954  0.0144 -0.5787 -0.3168
 2071BOL    COH 2071   0.826   1.792   4.468  0.0882  0.1368 -0.4082
 2072BOL    COH 2072   4.012   5.796   4.200  0.2552  0.0260 -0.0390
 2073BOL    COH 2073   6.272   5.593   2.250 -0.0310  0.2592  0.1739
 2074BOL    COH 2074   1.872   1.062   0.308  0.0075 -0.1291  0.3818
 2075BOL    COH 2075   4.269   1.650   5.088 -0.0806 -0.0209 -0.1390
 2076BOL    COH 2076   1.704   4.850   5.357  0.0058 -0.2726 -0.1995
 2077BOL    COH 2077   2.531   0.028   1.320 -0.3328  0.1224 -0.0929
 2078BOL    COH 2078   2.432   2.066   0.707 -0.0200  0.1346  0.1349
 2079BOL    COH 2079   3.408   5.204   6.111  0.0011  0.0006 -0.0040
 2080BOL    COH 2080   4.481   4.716   0.144 -0.1622 -0.0234  0.0440
 2081BOL    COH 2081   4.596   4.703   2.795  0.0359  0.2049  0.1556
 2082BOL    COH 2082   3.795   0.120   4.912  0.3616 -0.1062 -0.1826
 2083BOL    COH 2083   2.261   0.962   2.463 -0.2067  0.3032 -0.0346
 2084BOL    COH 2084   0.158   1.482   4.214  0.0242  0.2565  0.0735
 2085BOL    COH 2085   1.387   5.282   0.333  0.3125  0.0939  0.1220
 2086BOL    COH 2086   1.050   0.278   2.277 -0.0512  0.0088 -0.0071
 2087BOL    COH 2087   0.510   5.663   5.697 -0.0858 -0.2016 -0.0051
 2088BOL    COH 2088   2.779   0.523   2.570  0.0132  0.0510 -0.0259
 2089BOL    COH 2089   4.369   2.727   3.287 -0.3391 -0.1393  0.0304
 2090BOL    COH 2090   2.948   5.408   3.616 -0.1672  0.1546  0.0292
 2091BOL    COH 2091   5.185   5.865   3.103  0.1030 -0.2330 -0.4153
 2092BOL    COH 2092   4.195   4.740   1.576 -0.2994 -0.0568 -0.2912
 2093BOL    COH 2093   5.720   0.351   0.328  0.0918  0.3458  0.3300
 2094BOL    COH 2094   5.153   4.881   3.042  0.0981  0.4372  0.2521
 2095BOL    COH 2095   5.046   1.515   4.244 -0.1032  0.0425  0.2983
 2096BOL    COH 2096   5.389   5.661   6.106 -0.1701 -0.0273 -0.4522
 2097BOL    COH 2097   1.642   1.688   5.632 -0.0329  0.1289 -0.0667
 2098BOL    COH 2098   3.702   3.245   4.487  0.3261  0.0572 -0.2261
 2099BOL    COH 2099   4.372   0.586   1.764  0.1418 -0.0083  0.1524
 2100BOL    COH 2100   3.793   3.897   3.799 -0.2078 -0.2605  0.0526
 2101BOL    COH 2101   1.920   1.172   3.276 -0.0900  0.0551 -0.0522
 2102BOL    COH 2102   2.236   2.856   2.388 -0.0928 -0.2443 -0.0467
 2103BOL    COH 2103   0.190   4.023   1.928  0.0539 -0.0495  0.4508
 2104BOL    COH 2104   1.175   4.908   0.039 -0.0944  0.0793  0.0030
 2105BOL    COH 2105   2.852   5.669   1.329  0.1008 -0.0370 -0.0632
 2106BOL    COH 2106   0.121   0.811   1.216  0.0564  0.0360 -0.2005
 2107BOL    COH 2107   2.253   5.707   3.184 -0.0445 -0.0834  0.1100
 2108BOL    COH 2108   4.530   2.291   4.578  0.2095  0.0518  0.1548
 2109BOL    COH 2109   3.508   3.235   2.631 -0.0542 -0.0535 -0.0386
 2110BOL    COH 2110   4.336   0.049   3.671  0.0975  0.0507 -0.0395
 2111BOL    COH 2111   3.227   3.350   5.505 -0.1905  0.3449  0.1395
 2112BOL    COH 2112   1.275   0.028   4.803  0.0893  0.1250 -0.1002
 2113BOL    COH 2113   6.039   0.963   2.209  0.0557 -0.4773 -0.0281
 2114BOL    COH 2114   3.948   4.949   5.717  0.1109 -0.2218 -0.1646
 2115BOL    COH 2115   2.466   1.377   4.997 -0.0508 -0.1569 -0.1521
 2116BOL    COH 2116   2.983   3.947   0.911 -0.1535  0.3190  0.2678
 2117BOL    COH 2117   0.008   2.782   3.869 -0.2597 -0.0428  0.2652
 2118BOL    COH 2118   1.141   2.777   2.433  0.3812 -0.1320 -0.0046
 2119BOL    COH 2119   3.641   4.488   4.044  0.0880  0.0206  0.0819
 2120BOL    COH 2120   2.786   4.384   0.825 -0.1434  0.2713  0.1052
 2121BOL    COH 2121   2.093   3.814   2.192  0.3408  0.1307  0.0289
 2122BOL    COH 2122   0.498   4.903   3.995  0.0819 -0.3504  0.2148
 2123BOL    COH 2123   0.384   1.434   4.674 -0.1045 -0.0035  0.1125
 2124BOL    COH 2124   0.308   0.875   4.454  0.1613  0.0114  0.0844
 2125BOL    COH 2125   5.070   1.027   4.114  0.0547  0.1980 -0.0139
 2126BOL    COH 2126   2.935   5.151   0.638  0.2220  0.2677  0.0663
 2127BOL    COH 2127   1.473   5.850   5.950 -0.1938 -0.0885 -0.0477
 2128BOL    COH 2128   3.170   6.308   0.518 -0.4214  0.0952 -0.0669
 2129BOL    COH 2129   0.953   5.761   3.478 -0.2606 -0.1144 -0.0047
 2130BOL    COH 2130   2.450   2.896   3.995 -0.1832  0.2675 -0.0647
 2131BOL    COH 2131   5.450   3.652   2.044  0.0493 -0.0363 -0.2200
 2132BOL    COH 2132   1.839   3.538   1.736 -0.0472  0.1139 -0.1385
 2133BOL    COH 2133   1.110   2.981   5.365 -0.0938 -0.2474 -0.2199
 2134BOL    COH 2134   3.979   1.871   0.057 -0.0078  0.2240 -0.1843
 2135BOL    COH 2135   5.644   5.260   6.388  0.1483  0.0563 -0.1253
 2136BOL    COH 2136   0.664   0.055   0.083  0.2941 -0.0159  0.2703
 2137BOL    COH 2137   6.011   4.854   1.266  0.0698 -0.0459 -0.1214
 2138BOL    COH 2138   3.327   6.349   1.326 -0.0864 -0.0019  0.0145
 2139BOL    COH 2139   6.067   4.146   3.436  0.2832  0.1135 -0.1127
 2140BOL    COH 2140   2.640   4.503   3.867 -0.1509  0.2759  0.0714
 2141BOL    COH 2141   1.366   0.673   6.301 -0.0639 -0.3615  0.0435
 2142BOL    COH 2142   2.067   2.503   0.198 -0.4378 -0.1421 -0.2156
 2143BOL    COH 2143   2.979   5.270   2.205  0.1323  0.1822  0.0881
 2144BOL    COH 2144   6.114   1.712   3.447 -0.0480  0.1013  0.0870
 2145BOL    COH 2145   0.542   2.255   3.004  0.0469 -0.2170  0.2088
 2146BOL    COH 2146   4.595   3.380   0.918 -0.3387  0.0549 -0.2024
 2147BOL    COH 2147   5.701   2.126   3.398  0.3754 -0.3165  0.1078
 2148BOL    COH 2148   4.715   0.001   1.709 -0.0937  0.1714 -0.0205
 2149BOL    COH 2149   1.935   1.801   4.023  0.1339  0.1295  0.0292
 2150BOL    COH 2150   4.634   5.712   5.499  0.2012 -0.0274  0.1420
 2151BOL    COH 2151   1.521   4.089   1.095  0.1121  0.0370 -0.0689
 2152BOL    COH 2152   0.886   2.404   5.463  0.1777  0.0928  0.0234
 2153BOL    COH 2153   1.269   4.563   5.428  0.0325  0.1874  0.1052
 2154BOL    COH 2154   3.468   3.696   5.237  0.1870 -0.0684  0.0596
 2155BOL    COH 2155   4.494   2.753   4.699  0.0802 -0.4229 -0.1700
 2156BOL    COH 2156   4.476   4.795   1.995 -0.2597  0.3035 -0.3750
 2157BOL    COH 2157   3.839   1.676   1.122  0.1955 -0.3225  0.4138
 2158BOL    COH 2158   5.159   3.007   3.748 -0.1076  0.0543 -0.2148
 2159BOL    COH 2159   3.139   2.876   2.693 -0.0892 -0.1033  0.0398
 2160BOL    COH 2160   3.876   3.498   1.436 -0.0680 -0.1560 -0.3300
 2161BOL    COH 2161   4.972   0.238   0.481 -0.0185  0.1308  0.1483
 2162BOL    COH 2162   0.318   1.525   1.927 -0.0788  0.1135  0.1605
 2163BOL    COH 2163   6.159   0.201   3.960 -0.1642 -0.2463 -0.1816
 2164BOL    COH 2164   1.338   4.447   6.266  0.1296  0.1258  0.0514
 2165BOL    COH 2165   1.468   2.734   1.965  0.1304  0.0072  0.0668
 2166BOL    COH 2166   0.681   2.612   2.257 -0.0441  0.1348 -0.0125
 2167BOL    COH 2167   3.106   0.480   2.110  0.3400 -0.2168 -0.1564
 2168BOL    COH 2168   1.372   5.956   3.900 -0.3157  0.1743 -0.1994
 2169BOL    COH 2169   4.076   2.880   2.903 -0.0566  0.0104 -0.0992
 2170BOL    COH 2170   4.733   6.345   5.217 -0.5618  0.2495 -0.0836
 2171BOL    COH 2171   3.410   2.216   0.829 -0.2569  0.0770  0.0995
 2172BOL    COH 2172   5.018   4.979   1.412  0.0640 -0.0281 -0.0763
 2173BOL    COH 2173   1.651   4.110   3.806 -0.2801 -0.2539 -0.1136
 2174BOL    COH 2174   4.154   1.018   3.100  0.1200  0.0802 -0.2776
 2175BOL    COH 2175   5.644   6.349   4.011  0.2155  0.2023  0.0125
 2176BOL    COH 2176   0.706   0.218   5.612  0.0539  0.2432 -0.1778
 2177BOL    COH 2177   0.825   0.699   3.722 -0.0977 -0.1287 -0.1036
 2178BOL    COH 2178   4.054   0.086   2.410  0.1058  0.1346  0.0067
 2179BOL    COH 2179   1.785   3.170   0.953 -0.0589 -0.2380 -0.3003
 2180BOL    COH 2180   5.725   5.848   4.061 -0.0875  0.0068  0.1423
 2181BOL    COH 2181   4.034   4.097   2.165  0.3904  0.1992  0.0121
 2182BOL    COH 2182   2.995   5.842   4.372 -0.3666 -0.1406 -0.2562
 2183BOL    COH 2183   3.481   2.918   3.623 -0.0379  0.1535  0.0840
 2184BOL    COH 2184   5.325   4.233   3.937  0.0780 -0.1653  0.0049
 2185BOL    COH 2185   4.383   1.847   0.447  0.1091  0.0510 -0.1075
 2186BOL    COH 2186   4.013   2.257   6.150 -0.0392  0.0574 -0.2456
 2187BOL    COH 2187   4.574   4.689   4.597 -0.3042  0.0082  0.2120
 2188BOL    COH 2188   1.345   4.122   0.583  0.2175  0.4151 -0.1642
 2189BOL    COH 2189   1.392   2.524   2.776 -0.1752 -0.3271 -0.1678
 2190BOL    COH 2190   5.039   2.007   5.748 -0.2536 -0.1044  0.1445
 2191BOL    COH 2191   4.264   3.595   6.383 -0.0890 -0.0089 -0.1208
 2192BOL    COH 2192   0.078   4.909   6.006 -0.0151  0.0514  0.1515
 2193BOL    COH 2193   3.825   1.606   3.062 -0.1471  0.2606  0.0789
 2194BOL    COH 2194   3.874   1.008   3.667  0.1264  0.5682  0.0518
 2195BOL    COH 2195   1.361   0.245   0.419  0.0808  0.0612 -0.1380
 2196BOL    COH 2196   5.747   5.700   2.216  0.0466 -0.2257 -0.0984
 2197BOL    COH 2197   0.443   1.807   6.054 -0.0005 -0.2409  0.3584
   6.42255   6.42255   6.42255
