Propanone box
 2197
    1PON     CO    1   3.765   3.758   4.816 -0.3899 -0.1815 -0.0953
    2PON     CO    2   5.545   0.624   5.211 -0.0954  0.4550  0.3754
    3PON     CO    3   1.236   2.124   3.672 -0.3067  0.1767 -0.0566
    4PON     CO    4   4.328   5.533   1.403 -0.2174  0.0344  0.1331
    5PON     CO    5   0.383   2.361   0.259  0.0994 -0.0185  0.1208
    6PON     CO    6   3.462   0.726   5.185  0.0027  0.1418  0.2509
    7PON     CO    7   0.528   2.648   1.852 -0.1204  0.1725 -0.1070
    8PON     CO    8   3.710   3.393   1.270  0.0641 -0.1424  0.1618
    9PON     CO    9   5.685   2.851   3.885  0.0996 -0.1580 -0.0491
   10PON     CO   10   1.151   5.394   2.710  0.3333 -0.1862  0.0057
   11PON     CO   11   5.036   0.060   3.209 -0.1026  0.0203 -0.0941
   12PON     CO   12   4.389   4.356   2.111 -0.0259  0.0276  0.0145
   13PON     CO   13   0.681   3.515   0.982 -0.1899  0.0230  0.0857
   14PON     CO   14   0.550   2.818   5.492 -0.3013 -0.0057  0.2486
   15PON     CO   15   3.698   1.004   4.191  0.0093 -0.1527 -0.0883
   16PON     CO   16   0.144   2.757   3.540  0.1099  0.0043  0.1681
   17PON     CO   17   4.741   1.309   2.135 -0.0478 -0.2076 -0.0107
   18PON     CO   18   3.814   5.868   1.244 -0.2938 -0.2732  0.1702
   19PON     CO   19   4.717   0.244   2.122  0.0568 -0.2312  0.0596
   20PON     CO   20   2.167   4.918   1.313  0.0710 -0.1713  0.0495
   21PON     CO   21   2.594   2.621   3.626  0.1862  0.2507  0.1565
   22PON     CO   22   0.756   4.990   5.072  0.2110 -0.1649 -0.2404
   23PON     CO   23   0.518   6.507   0.414 -0.2465 -0.0629  0.1661
   24PON     CO   24   0.426   5.520   4.537 -0.2828  0.0275  0.1960
   25PON     CO   25   5.352   2.409   1.718 -0.1052  0.0969 -0.0428
   26PON     CO   26   2.029   1.722   3.716  0.0301  0.0183  0.1309
   27PON     CO   27   1.858   2.801   0.989 -0.0455  0.0293  0.0534
   28PON     CO   28   0.364   3.620   3.267  0.1060 -0.0354 -0.1132
   29PON     CO   29   2.671   4.143   6.404  0.2259 -0.1324  0.3863
   30PON     CO   30   1.605   5.180   2.644  0.0622 -0.0609  0.0217
   31PON     CO   31   4.458   2.893   5.409  0.0617  0.1540 -0.1070
   32PON     CO   32   3.243   0.917   4.199  0.0146  0.1644  0.2762
   33PON     CO   33   3.204   1.164   0.851  0.0359  0.2752 -0.3557
   34PON     CO   34   4.426   5.181   3.734  0.0151  0.2463  0.0927
   35PON     CO   35   5.664   4.279   3.361  0.0473  0.0967  0.1492
   36PON     CO   36   1.142   1.878   6.318  0.0580  0.0738  0.0402
   37PON     CO   37   5.739   1.723   2.821 -0.0254  0.1752 -0.1971
   38PON     CO   38   0.048   3.054   4.487  0.1838 -0.2450 -0.2657
   39PON     CO   39   1.369   5.141   0.173  0.1429 -0.1080  0.0981
   40PON     CO   40   3.362   2.361   1.431  0.1718  0.2486 -0.0170
   41PON     CO   41   0.315   1.293   3.936  0.0719 -0.1929 -0.0169
   42PON     CO   42   5.756   2.117   6.116 -0.0674 -0.2311  0.0063
   43PON     CO   43   1.371   3.268   1.740  0.1680  0.0887 -0.0282
   44PON     CO   44   6.226   2.797   2.732 -0.1129 -0.1486  0.1046
   45PON     CO   45   4.055   0.709   5.283 -0.0136 -0.1787  0.1961
   46PON     CO   46   3.689   0.526   2.840  0.0763  0.0268  0.3818
   47PON     CO   47   5.419   1.441   2.573  0.2651  0.0060  0.3437
   48PON     CO   48   6.276   0.471   2.871  0.0011 -0.0925 -0.0616
   49PON     CO   49   0.333   1.560   2.999 -0.0227  0.0775  0.0703
   50PON     CO   50   1.383   5.610   3.202  0.0362  0.1038 -0.0248
   51PON     CO   51   0.950   4.742   3.072 -0.0412  0.1446  0.1529
   52PON     CO   52   3.879   2.245   5.546  0.0911  0.0247  0.0026
   53PON     CO   53   3.731   3.375   5.653  0.1602 -0.1848 -0.1631
   54PON     CO   54   1.053   2.297   2.730 -0.1313 -0.0294  0.2311
   55PON     CO   55   3.199   2.112   0.491  0.1041 -0.1127 -0.2741
   56PON     CO   56   2.122   2.004   3.160  0.0661 -0.0837 -0.0957
   57PON     CO   57   3.622   3.066   5.211 -0.1605 -0.2865 -0.4046
   58PON     CO   58   2.624   1.542   1.740  0.2776 -0.1022 -0.4050
   59PON     CO   59   3.081   1.741   0.090 -0.1009  0.3002  0.3127
   60PON     CO   60   1.791   5.964   4.271 -0.1637  0.2747 -0.2656
   61PON     CO   61   3.137   6.496   3.903 -0.0760  0.0709 -0.0626
   62PON     CO   62   4.063   0.709   0.774 -0.2433  0.4362 -0.0354
   63PON     CO   63   5.473   5.942   3.116 -0.1618  0.0975 -0.0886
   64PON     CO   64   0.325   1.555   1.397  0.1150 -0.0323 -0.1291
   65PON     CO   65   1.557   5.597   1.748 -0.0559 -0.0641 -0.1007
   66PON     CO   66   4.011   4.733   0.078  0.0718 -0.1134  0.1966
   67PON     CO   67   2.477   2.514   2.584 -0.1192  0.1218  0.1936
   68PON     CO   68   3.802   5.480   5.666 -0.1928  0.0613  0.0982
   69PON     CO   69   4.903   5.715   0.629  0.0080  0.1996 -0.0368
   70PON     CO   70   2.202   3.797   3.951 -0.4066 -0.1673  0.1623
   71PON     CO   71   3.212   2.380   4.979  0.4856  0.1060 -0.1344
   72PON     CO   72   0.597   2.057   5.579  0.0889  0.3870 -0.0627
   73PON     CO   73   2.860   3.598   2.238 -0.0846 -0.0280  0.2964
   74PON     CO   74   3.693   0.919   6.526 -0.1416  0.1679 -0.1283
   75PON     CO   75   3.157   1.724   2.622  0.1194  0.0250  0.3479
   76PON     CO   76   3.968   4.008   2.914 -0.0421  0.5040  0.2462
   77PON     CO   77   2.804   3.695   6.033  0.1719  0.0991 -0.1758
   78PON     CO   78   5.845   1.635   6.016  0.3327 -0.0067  0.3032
   79PON     CO   79   5.587   3.349   1.026 -0.0836 -0.1448  0.1684
   80PON     CO   80   0.264   2.697   6.491 -0.0278  0.1504 -0.2799
   81PON     CO   81   4.786   2.423   4.374  0.0050  0.0326 -0.2057
   82PON     CO   82   4.631   2.130   2.063 -0.0929  0.0187  0.0325
   83PON     CO   83   6.220   1.574   0.932  0.0891 -0.2215  0.1149
   84PON     CO   84   4.124   2.764   6.327 -0.2055  0.0290 -0.2325
   85PON     CO   85   3.205   5.705   6.503  0.0190  0.1118  0.0328
   86PON     CO   86   4.159   2.949   0.558 -0.0375  0.0002 -0.2822
   87PON     CO   87   4.736   3.067   3.895 -0.2663  0.1682 -0.0983
   88PON     CO   88   3.029   3.349   5.477  0.1657 -0.2641  0.1489
   89PON     CO   89   2.261   2.745   2.241 -0.2252 -0.1935  0.1885
   90PON     CO   90   3.511   6.461   2.184 -0.2096 -0.1188 -0.1913
   91PON     CO   91   1.985   2.886   0.009 -0.0338 -0.1871  0.2496
   92PON     CO   92   5.821   3.609   4.694 -0.3548 -0.0499  0.0987
   93PON     CO   93   2.809   2.120   2.693 -0.3070 -0.1613  0.0766
   94PON     CO   94   6.135   1.721   3.513  0.2367 -0.2112 -0.1566
   95PON     CO   95   3.783   0.363   4.821  0.1875  0.1947 -0.5370
   96PON     CO   96   1.699   3.094   2.022 -0.4309  0.5557 -0.0521
   97PON     CO   97   0.418   0.341   0.853  0.1979 -0.2168 -0.0161
   98PON     CO   98   4.274   5.346   3.329  0.0454 -0.3241 -0.2747
   99PON     CO   99   6.415   4.837   5.007 -0.2667  0.0216 -0.1035
  100PON     CO  100   5.571   5.083   1.091  0.0150  0.3896  0.0391
  101PON     CO  101   0.533   4.655   3.305  0.0502  0.2927 -0.0079
  102PON     CO  102   0.588   3.780   4.225  0.0554 -0.1421  0.1385
  103PON     CO  103   2.455   3.566   1.959  0.3800 -0.0205  0.0905
  104PON     CO  104   2.724   5.663   3.384 -0.1125  0.2206  0.0267
  105PON     CO  105   5.196   4.047   5.573  0.2130 -0.0395  0.1942
  106PON     CO  106   5.595   3.199   4.434  0.0711  0.0784 -0.0002
  107PON     CO  107   0.336   3.064   5.927  0.0836 -0.1258  0.2714
  108PON     CO  108   4.051   1.554   2.513 -0.0261 -0.0270 -0.1184
  109PON     CO  109   3.007   1.606   6.150  0.2846  0.1286  0.0759
  110PON     CO  110   5.977   5.066   1.383 -0.1472  0.0771 -0.0032
  111PON     CO  111   6.245   0.728   1.175 -0.3182 -0.1185  0.0581
  112PON     CO  112   0.751   3.481   2.327 -0.3723 -0.0884 -0.1584
  113PON     CO  113   3.717   2.653   0.619 -0.0813  0.0519  0.0406
  114PON     CO  114   5.060   0.814   6.462 -0.3341 -0.1955  0.1259
  115PON     CO  115   0.591   6.488   4.543 -0.2324 -0.0868  0.1566
  116PON     CO  116   4.226   0.747   4.784 -0.1389  0.0775  0.0129
  117PON     CO  117   0.547   6.362   5.053  0.2623 -0.0463 -0.0723
  118PON     CO  118   5.196   1.403   1.781  0.4291  0.1407 -0.3681
  119PON     CO  119   0.238   3.891   1.687  0.0734  0.0747 -0.1391
  120PON     CO  120   6.458   1.006   1.546 -0.0133 -0.0212  0.0231
  121PON     CO  121   4.610   6.428   4.346 -0.0679 -0.0992  0.0277
  122PON     CO  122   4.040   0.022   4.253  0.3912 -0.2033  0.1273
  123PON     CO  123   6.399   3.405   3.895 -0.2536  0.2527  0.0341
  124PON     CO  124   5.953   0.987   5.616  0.1975 -0.0870  0.0544
  125PON     CO  125   4.587   2.934   6.441  0.3517  0.0159 -0.1702
  126PON     CO  126   3.516   0.788   4.628 -0.0063 -0.1386  0.0496
  127PON     CO  127   1.930   1.825   1.513  0.2838 -0.0800 -0.0635
  128PON     CO  128   6.142   5.557   1.551  0.1810  0.0942 -0.2001
  129PON     CO  129   4.528   6.383   3.473 -0.0424  0.4705  0.1287
  130PON     CO  130   3.159   3.923   3.717 -0.0770  0.0555  0.1270
  131PON     CO  131   5.506   4.266   4.271 -0.2081  0.1258  0.2074
  132PON     CO  132   2.991   5.389   3.691  0.3533  0.0798  0.2046
  133PON     CO  133   0.056   2.012   5.486  0.0678 -0.0292 -0.2507
  134PON     CO  134   5.267   3.612   0.141  0.2310 -0.1230 -0.0872
  135PON     CO  135   0.923   1.649   5.145 -0.1855 -0.1790 -0.3979
  136PON     CO  136   5.715   2.948   2.873 -0.1092 -0.2135 -0.2005
  137PON     CO  137   5.667   5.571   4.184 -0.3480 -0.0060 -0.4904
  138PON     CO  138   0.541   5.906   4.891 -0.0801  0.1696 -0.0040
  139PON     CO  139   2.992   1.335   5.265  0.0109 -0.1144  0.2251
  140PON     CO  140   4.637   5.895   4.261  0.2588 -0.0115 -0.0976
  141PON     CO  141   3.034   4.972   3.383 -0.2439  0.0663 -0.0039
  142PON     CO  142   0.199   1.335   0.010  0.0786  0.5133 -0.1747
  143PON     CO  143   2.661   2.865   0.681 -0.0242 -0.0193 -0.1985
  144PON     CO  144   0.598   3.379   5.604  0.5748  0.1277 -0.4083
  145PON     CO  145   3.166   4.837   2.221  0.2833 -0.2337  0.1868
  146PON     CO  146   2.668   5.028   3.754  0.0553  0.0403  0.2374
  147PON     CO  147   4.772   5.479   0.168  0.3322  0.1021 -0.2446
  148PON     CO  148   1.701   3.461   1.279  0.0198  0.0642 -0.0729
  149PON     CO  149   5.218   3.330   4.938 -0.1561  0.2793  0.3410
  150PON     CO  150   0.112   1.112   3.117  0.0629 -0.3271  0.1658
  151PON     CO  151   6.462   0.867   0.270 -0.1347 -0.1520 -0.1098
  152PON     CO  152   0.383   5.412   0.934 -0.1211 -0.1544  0.0095
  153PON     CO  153   2.308   3.259   1.507 -0.0868  0.0290  0.0681
  154PON     CO  154   0.159   2.362   3.818 -0.2849 -0.0952 -0.2324
  155PON     CO  155   4.790   4.654   4.524 -0.0887 -0.0992  0.0929
  156PON     CO  156   2.847   1.419   1.245 -0.1882 -0.0803  0.2708
  157PON     CO  157   0.822   2.189   4.959  0.0694  0.1273  0.2418
  158PON     CO  158   1.919   2.549   1.607  0.2659  0.0469 -0.1047
  159PON     CO  159   6.434   4.128   0.781  0.2189  0.0346 -0.2523
  160PON     CO  160   2.596   4.817   5.497 -0.1634 -0.1747 -0.3573
  161PON     CO  161   3.829   0.967   4.962  0.2014  0.2801  0.0462
  162PON     CO  162   3.127   4.281   0.022 -0.0028 -0.0863 -0.0302
  163PON     CO  163   3.326   3.148   3.945 -0.1815 -0.2191  0.2895
  164PON     CO  164   1.527   0.104   1.443  0.0725  0.4600 -0.0380
  165PON     CO  165   5.595   4.796   1.802  0.1546  0.0475  0.0548
  166PON     CO  166   4.853   4.194   2.348  0.2369 -0.1325 -0.3433
  167PON     CO  167   1.693   4.528   0.473  0.3459  0.0256  0.0539
  168PON     CO  168   5.434   1.851   4.455 -0.2114 -0.0289  0.1893
  169PON     CO  169   5.014   4.037   0.106 -0.1518  0.1329 -0.2701
  170PON     CO  170   5.499   1.896   5.196  0.0431 -0.1514 -0.0591
  171PON     CO  171   4.838   2.567   2.772  0.2095  0.1366 -0.1796
  172PON     CO  172   3.984   5.764   3.548  0.1543  0.1043 -0.2247
  173PON     CO  173   0.982   1.128   3.483  0.1735 -0.2609 -0.2673
  174PON     CO  174   3.219   1.289   2.286 -0.0244 -0.0814  0.0145
  175PON     CO  175   1.726   0.559   5.911  0.0039 -0.1548 -0.0216
  176PON     CO  176   2.170   5.417   2.694 -0.0179 -0.0563 -0.0042
  177PON     CO  177   5.060   4.418   3.964 -0.1320 -0.2226  0.0389
  178PON     CO  178   0.019   1.972   3.046 -0.0800  0.2056  0.3737
  179PON     CO  179   0.933   2.047   1.944  0.0383 -0.2467 -0.3504
  180PON     CO  180   4.595   0.733   2.065 -0.1591 -0.1672 -0.1329
  181PON     CO  181   6.137   3.851   3.965 -0.1695 -0.1576  0.1269
  182PON     CO  182   4.167   0.187   6.141  0.0437 -0.3126  0.2327
  183PON     CO  183   1.250   1.371   1.398 -0.3455  0.0010 -0.1849
  184PON     CO  184   2.251   1.036   2.346  0.0820  0.1258 -0.2543
  185PON     CO  185   0.859   6.062   1.531 -0.1781  0.1012  0.4066
  186PON     CO  186   4.279   5.838   4.971 -0.1645 -0.0506 -0.4401
  187PON     CO  187   5.748   6.064   2.104  0.1128 -0.3304 -0.0348
  188PON     CO  188   3.689   1.778   3.136  0.3559  0.1489  0.2144
  189PON     CO  189   2.602   4.194   2.827  0.3369 -0.0268  0.0108
  190PON     CO  190   5.472   2.499   6.294  0.2173  0.2350 -0.1731
  191PON     CO  191   5.026   4.560   5.703  0.1792  0.0834 -0.0696
  192PON     CO  192   5.100   4.213   6.083  0.0945 -0.4523  0.1384
  193PON     CO  193   1.662   1.363   1.662 -0.1102  0.1216 -0.1826
  194PON     CO  194   5.385   4.185   2.528 -0.3443  0.3579  0.0224
  195PON     CO  195   1.933   5.551   3.971 -0.2805  0.1337 -0.1679
  196PON     CO  196   1.853   2.344   0.834 -0.2133  0.0420  0.4127
  197PON     CO  197   0.304   0.274   2.217 -0.0599 -0.1270  0.1579
  198PON     CO  198   4.236   0.395   2.065  0.2081 -0.0515 -0.0520
  199PON     CO  199   2.399   3.707   6.351 -0.0798 -0.2445  0.0544
  200PON     CO  200   2.131   6.288   0.808  0.1368  0.1059 -0.1609
  201PON     CO  201   1.261   0.628   0.537  0.2348 -0.2852  0.0510
  202PON     CO  202   5.432   0.914   4.757  0.0432 -0.0871 -0.0105
  203PON     CO  203   1.188   2.037   3.208 -0.0340 -0.1667 -0.3748
  204PON     CO  204   5.872   2.796   5.550  0.0243 -0.4953 -0.2815
  205PON     CO  205   1.848   6.494   1.814 -0.0270 -0.2186 -0.1936
  206PON     CO  206   2.083   4.927   5.272 -0.0343  0.0476 -0.3265
  207PON     CO  207   3.733   1.470   4.828 -0.0307  0.1285 -0.4253
  208PON     CO  208   0.685   0.079   1.725 -0.3703 -0.1620 -0.0104
  209PON     CO  209   3.109   3.996   5.226  0.0172 -0.1710 -0.2160
  210PON     CO  210   1.399   5.680   4.221  0.2821  0.1930 -0.0915
  211PON     CO  211   6.284   1.337   4.694 -0.0867  0.0601  0.0813
  212PON     CO  212   0.643   1.314   2.484  0.1190  0.1448 -0.1912
  213PON     CO  213   2.474   2.312   2.999  0.1411 -0.1562  0.0974
  214PON     CO  214   1.910   0.827   3.794 -0.0122  0.2205 -0.0706
  215PON     CO  215   4.947   4.914   5.343  0.1964 -0.2680  0.1265
  216PON     CO  216   0.811   2.468   6.508  0.1168  0.1489 -0.2466
  217PON     CO  217   6.195   5.192   4.101  0.1163  0.2599  0.0746
  218PON     CO  218   6.138   2.346   1.537 -0.2513 -0.0461 -0.0413
  219PON     CO  219   2.810   3.125   4.903 -0.3354  0.0184  0.0242
  220PON     CO  220   4.471   2.192   5.220  0.1352 -0.3138  0.0958
  221PON     CO  221   1.041   2.122   5.808  0.1766 -0.2707  0.0409
  222PON     CO  222   2.843   1.271   0.225 -0.1660 -0.2065 -0.1264
  223PON     CO  223   3.306   3.822   5.704  0.1262  0.1605 -0.0992
  224PON     CO  224   0.438   2.026   1.607  0.0809  0.1040 -0.3205
  225PON     CO  225   0.055   0.118   4.177 -0.0999  0.0006 -0.1510
  226PON     CO  226   5.192   4.166   3.323 -0.2453  0.0262  0.0847
  227PON     CO  227   2.294   2.251   1.288 -0.2018  0.3231 -0.0646
  228PON     CO  228   4.742   2.853   1.400  0.2053  0.1383  0.0639
  229PON     CO  229   4.496   4.647   0.109  0.0395  0.0874  0.1253
  230PON     CO  230   5.912   4.682   5.867  0.2009 -0.3646  0.2065
  231PON     CO  231   0.502   4.877   4.004  0.0770 -0.0191  0.1243
  232PON     CO  232   1.159   3.206   3.846 -0.0632 -0.1220  0.0220
  233PON     CO  233   4.555   2.769   4.771 -0.2519  0.1907  0.1569
  234PON     CO  234   1.506   0.983   6.140 -0.0040  0.0756  0.1125
  235PON     CO  235   2.099   3.589   2.641 -0.1111 -0.2574  0.0579
  236PON     CO  236   4.511   1.741   2.373 -0.1297 -0.2035 -0.0085
  237PON     CO  237   2.934   4.573   3.007  0.2281 -0.0976 -0.0743
  238PON     CO  238   3.107   3.400   3.570 -0.2682  0.1835  0.2769
  239PON     CO  239   0.679   5.380   1.389  0.0560  0.1223  0.3275
  240PON     CO  240   1.660   6.129   1.010  0.0815 -0.3864  0.1121
  241PON     CO  241   1.305   2.132   2.318 -0.0057 -0.2637 -0.0360
  242PON     CO  242   3.392   3.977   0.291  0.1282 -0.0284 -0.2052
  243PON     CO  243   6.456   0.481   6.454 -0.0179  0.1730  0.2039
  244PON     CO  244   3.049   0.004   1.327 -0.0942  0.0159  0.0265
  245PON     CO  245   2.045   1.331   0.702 -0.0698  0.2221 -0.1812
  246PON     CO  246   5.774   0.706   2.878 -0.1819 -0.2534 -0.0063
  247PON     CO  247   4.597   5.382   6.201 -0.2504  0.3616  0.1625
  248PON     CO  248   3.086   2.152   1.893  0.0549  0.1891 -0.0103
  249PON     CO  249   3.204   3.870   1.959  0.3107  0.0791  0.1119
  250PON     CO  250   1.551   3.080   3.283  0.1548  0.3033 -0.0390
  251PON     CO  251   5.224   0.110   6.336  0.2257 -0.4544 -0.1393
  252PON     CO  252   5.418   5.290   5.488  0.0516  0.2859  0.1733
  253PON     CO  253   4.276   4.483   5.102  0.0275 -0.0577  0.0723
  254PON     CO  254   2.191   0.589   5.062 -0.2098  0.2428  0.0858
  255PON     CO  255   3.132   6.055   2.303  0.2534  0.0325  0.0732
  256PON     CO  256   4.483   1.934   0.516 -0.1083 -0.0836  0.2384
  257PON     CO  257   0.232   0.084   3.613  0.1943 -0.1629 -0.1123
  258PON     CO  258   1.419   3.218   5.338 -0.0284 -0.0322  0.0313
  259PON     CO  259   6.272   2.976   5.236  0.0772 -0.0770  0.0308
  260PON     CO  260   2.243   6.488   3.415 -0.1198  0.1311  0.2317
  261PON     CO  261   5.144   5.612   3.908 -0.4365 -0.1097 -0.0408
  262PON     CO  262   5.701   2.054   0.117 -0.0674  0.0817  0.1682
  263PON     CO  263   0.058   0.194   1.773 -0.2033 -0.0220  0.1161
  264PON     CO  264   3.246   0.555   1.679  0.2764 -0.0686  0.1549
  265PON     CO  265   4.815   4.354   1.293 -0.1111  0.0838 -0.0317
  266PON     CO  266   3.467   0.083   5.140  0.0229 -0.0902  0.1356
  267PON     CO  267   6.477   3.792   2.994 -0.0668 -0.0576  0.0983
  268PON     CO  268   4.447   5.821   3.223  0.1785  0.1320 -0.1338
  269PON     CO  269   4.841   5.540   1.102 -0.2077  0.1002 -0.0513
  270PON     CO  270   0.265   4.713   5.271  0.3392  0.2452  0.0742
  271PON     CO  271   3.948   0.522   4.385  0.1582  0.0037 -0.0421
  272PON     CO  272   1.800   0.311   4.887  0.1289 -0.1410 -0.0153
  273PON     CO  273   6.525   4.365   5.039  0.1696  0.0248 -0.2408
  274PON     CO  274   0.446   0.825   1.100 -0.4626 -0.1637 -0.1870
  275PON     CO  275   6.006   3.197   2.507  0.1108  0.0918 -0.0180
  276PON     CO  276   2.267   0.211   2.588  0.0553  0.1408 -0.3389
  277PON     CO  277   3.541   3.992   0.734 -0.0606  0.2644 -0.0625
  278PON     CO  278   3.817   4.484   2.097 -0.3271 -0.2824  0.1571
  279PON     CO  279   3.596   3.070   3.030  0.0475 -0.2800  0.1695
  280PON     CO  280   6.294   6.522   0.090  0.1137  0.0651 -0.2482
  281PON     CO  281   1.509   2.863   4.971  0.2287  0.0743  0.0517
  282PON     CO  282   2.434   6.074   3.310 -0.1781 -0.0184 -0.2522
  283PON     CO  283   0.738   0.729   5.967 -0.1244 -0.0198  0.0846
  284PON     CO  284   3.564   3.561   3.816 -0.0589  0.0074 -0.0951
  285PON     CO  285   5.332   4.720   6.127  0.1731  0.1711 -0.1940
  286PON     CO  286   1.549   5.198   1.476  0.1636  0.0588  0.1861
  287PON     CO  287   3.930   3.635   2.568 -0.3047  0.1179 -0.0797
  288PON     CO  288   2.262   3.278   0.944  0.0577  0.2218 -0.1187
  289PON     CO  289   5.471   3.997   6.239 -0.1466  0.0535  0.1271
  290PON     CO  290   0.875   1.736   1.454 -0.2402  0.0655 -0.0167
  291PON     CO  291   0.533   2.019   1.142 -0.0073 -0.0603  0.3170
  292PON     CO  292   6.393   5.329   5.488 -0.2035  0.1532 -0.1384
  293PON     CO  293   6.180   1.877   0.336 -0.2755 -0.2382  0.0488
  294PON     CO  294   5.003   5.985   6.036 -0.0815 -0.2281 -0.0589
  295PON     CO  295   4.121   6.247   1.080  0.2802 -0.0109 -0.0266
  296PON     CO  296   3.494   3.415   4.301  0.0424 -0.3946 -0.2016
  297PON     CO  297   3.136   2.609   3.730  0.1612  0.2161  0.0168
  298PON     CO  298   3.957   3.204   3.623  0.0373 -0.1510  0.1499
  299PON     CO  299   5.786   3.153   5.230  0.1117 -0.0250  0.0590
  300PON     CO  300   1.197   0.862   5.709 -0.1744 -0.0021 -0.1309
  301PON     CO  301   2.523   6.330   5.436  0.1476  0.1480 -0.1309
  302PON     CO  302   3.102   4.349   2.615 -0.0887  0.0004 -0.0584
  303PON     CO  303   4.899   1.632   2.882 -0.1586 -0.1229  0.0208
  304PON     CO  304   1.154   0.328   5.676 -0.0615 -0.0464  0.3287
  305PON     CO  305   6.333   0.259   3.823  0.1923  0.0222  0.1792
  306PON     CO  306   5.194   1.394   5.979 -0.1972 -0.0132 -0.1270
  307PON     CO  307   5.522   0.878   1.812 -0.1794 -0.2067  0.0446
  308PON     CO  308   3.145   5.454   4.216 -0.0515  0.0212 -0.1158
  309PON     CO  309   1.617   1.382   4.881  0.2713 -0.0239 -0.0135
  310PON     CO  310   3.586   6.377   1.153  0.1206 -0.1595 -0.1136
  311PON     CO  311   3.903   0.798   3.699 -0.0517  0.0700 -0.0150
  312PON     CO  312   0.288   5.633   2.292 -0.2655 -0.0911  0.2727
  313PON     CO  313   2.811   4.527   2.002  0.0411  0.0631  0.1936
  314PON     CO  314   1.530   2.568   4.489 -0.3481 -0.2323  0.4210
  315PON     CO  315   6.519   0.808   2.476 -0.0177  0.0899 -0.1087
  316PON     CO  316   2.899   1.470   4.819  0.0628 -0.0062 -0.2923
  317PON     CO  317   1.534   5.914   3.727 -0.2261  0.1963 -0.0718
  318PON     CO  318   6.376   6.511   1.373 -0.1150  0.0846  0.0748
  319PON     CO  319   4.406   0.343   4.468 -0.0843 -0.2875  0.0609
  320PON     CO  320   5.002   0.784   0.652 -0.2802  0.2546 -0.5628
  321PON     CO  321   2.532   0.206   0.598  0.0575  0.2448  0.2518
  322PON     CO  322   5.913   5.716   6.309  0.1358  0.0329  0.3702
  323PON     CO  323   2.334   3.309   5.692  0.2684  0.1831 -0.1944
  324PON     CO  324   5.595   5.437   6.526  0.1226  0.0745  0.1105
  325PON     CO  325   5.639   6.172   2.604  0.0346 -0.2345 -0.0382
  326PON     CO  326   1.253   2.812   0.699 -0.1311 -0.0288 -0.1501
  327PON     CO  327   4.580   2.950   1.852  0.2703 -0.0180 -0.1970
  328PON     CO  328   1.480   3.833   4.249 -0.2494  0.0453 -0.1242
  329PON     CO  329   6.463   2.752   5.730  0.2823 -0.2663  0.1562
  330PON     CO  330   5.487   2.369   3.885 -0.1070  0.1500  0.0848
  331PON     CO  331   0.046   6.385   2.145  0.5170 -0.1640  0.2371
  332PON     CO  332   0.724   4.502   4.914  0.0487 -0.1115 -0.2048
  333PON     CO  333   0.406   0.427   1.362  0.0968  0.2577 -0.0812
  334PON     CO  334   0.528   1.531   5.514  0.3135  0.1333 -0.0133
  335PON     CO  335   1.358   1.355   3.114  0.0919  0.2566  0.0963
  336PON     CO  336   3.691   5.572   4.386 -0.0281  0.2978 -0.0373
  337PON     CO  337   4.418   1.713   5.674 -0.2866  0.0236  0.0563
  338PON     CO  338   6.515   2.002   2.198  0.0523  0.1446  0.1538
  339PON     CO  339   0.191   5.313   3.870 -0.1908 -0.0883  0.3104
  340PON     CO  340   2.468   5.444   6.510  0.2061  0.1793  0.1475
  341PON     CO  341   1.248   3.392   4.937  0.2861 -0.3164  0.1167
  342PON     CO  342   5.747   4.130   0.703  0.3875 -0.0637  0.4771
  343PON     CO  343   1.746   4.127   3.923  0.0016  0.1039 -0.1672
  344PON     CO  344   3.835   5.240   6.474  0.0882 -0.1407  0.0007
  345PON     CO  345   5.342   1.375   4.519  0.1282  0.3466 -0.3348
  346PON     CO  346   6.175   0.332   4.931 -0.1110 -0.1229 -0.2867
  347PON     CO  347   6.521   1.074   5.148 -0.1221 -0.2980 -0.2020
  348PON     CO  348   4.462   2.980   2.364  0.0547 -0.2479  0.1281
  349PON     CO  349   2.942   0.260   6.303 -0.0322  0.1316  0.0011
  350PON     CO  350   5.564   5.211   2.315  0.1466 -0.3102  0.0930
  351PON     CO  351   1.004   1.046   0.461 -0.1029  0.1578 -0.2623
  352PON     CO  352   0.403   3.447   1.406  0.0320 -0.1734 -0.1882
  353PON     CO  353   1.505   1.861   5.672  0.1986  0.1627  0.2213
  354PON     CO  354   4.078   4.705   1.697 -0.2166 -0.0258 -0.1739
  355PON     CO  355   4.706   1.292   5.817  0.1897  0.0446 -0.0302
  356PON     CO  356   4.541   4.765   1.141  0.0440 -0.0980 -0.3954
  357PON     CO  357   3.839   5.024   3.152  0.1549  0.0121 -0.0059
  358PON     CO  358   4.735   6.002   3.713 -0.1591 -0.0778  0.0689
  359PON     CO  359   6.211   2.666   4.393 -0.0719 -0.4112  0.1662
  360PON     CO  360   5.044   1.336   3.645 -0.1372  0.3108  0.1548
  361PON     CO  361   5.130   3.344   3.029  0.0000 -0.0218  0.0746
  362PON     CO  362   2.311   5.474   3.182  0.0399  0.1563 -0.1301
  363PON     CO  363   6.244   5.050   5.947 -0.2597 -0.0518  0.1699
  364PON     CO  364   5.332   1.677   3.139 -0.0261  0.2485  0.4653
  365PON     CO  365   0.580   3.497   6.145  0.0096  0.1509  0.2217
  366PON     CO  366   1.012   3.044   5.743  0.1111  0.1426  0.1559
  367PON     CO  367   4.361   2.745   4.277  0.1182 -0.0042  0.1452
  368PON     CO  368   0.469   5.281   0.442  0.0089 -0.2476 -0.3571
  369PON     CO  369   0.064   1.228   1.062  0.0958  0.0606 -0.3162
  370PON     CO  370   0.261   4.265   2.978 -0.0883  0.0142 -0.3075
  371PON     CO  371   1.352   6.428   5.817 -0.0947 -0.0475 -0.2164
  372PON     CO  372   3.584   5.263   0.778 -0.1946 -0.0026 -0.1006
  373PON     CO  373   0.060   2.507   2.964 -0.0851 -0.0396 -0.1345
  374PON     CO  374   2.736   0.645   5.824  0.4060  0.0521 -0.0276
  375PON     CO  375   1.156   3.754   6.218 -0.0180  0.2073 -0.2348
  376PON     CO  376   4.808   3.047   4.427  0.0612 -0.0168  0.2085
  377PON     CO  377   4.046   5.947   0.674  0.0758  0.1585  0.1300
  378PON     CO  378   0.407   2.503   1.350  0.0867 -0.0724  0.1620
  379PON     CO  379   2.726   4.477   0.321 -0.3436 -0.2566 -0.2376
  380PON     CO  380   5.580   3.259   3.282  0.0204 -0.2496 -0.1759
  381PON     CO  381   0.967   1.613   2.228 -0.0361  0.1030  0.3067
  382PON     CO  382   0.517   2.628   0.839  0.3535 -0.1424 -0.1329
  383PON     CO  383   5.970   1.884   4.984  0.0299 -0.0295 -0.2173
  384PON     CO  384   1.493   3.728   5.276 -0.0591  0.1485 -0.1686
  385PON     CO  385   6.147   3.131   4.720 -0.0927  0.1056 -0.0739
  386PON     CO  386   4.207   3.341   0.132 -0.1945 -0.3105 -0.2006
  387PON     CO  387   3.604   5.978   5.517 -0.1944 -0.1137 -0.1604
  388PON     CO  388   0.325   1.744   2.547 -0.1666  0.0585 -0.3350
  389PON     CO  389   1.115   3.356   3.313 -0.1676 -0.1795 -0.1799
  390PON     CO  390   4.290   2.629   1.303 -0.0425 -0.0260  0.2112
  391PON     CO  391   3.312   0.542   3.237 -0.1535 -0.1005  0.1019
  392PON     CO  392   0.465   4.195   2.460  0.4007  0.0337  0.2424
  393PON     CO  393   2.174   6.357   5.857  0.3282  0.1660  0.0169
  394PON     CO  394   4.629   1.202   3.058 -0.1270  0.2019 -0.1344
  395PON     CO  395   1.702   1.761   4.084  0.0689 -0.1025  0.0269
  396PON     CO  396   4.841   0.465   1.559  0.0339  0.0028 -0.4798
  397PON     CO  397   3.556   5.754   0.805 -0.0346  0.1073  0.0583
  398PON     CO  398   3.743   1.029   2.817  0.1297 -0.0566 -0.0751
  399PON     CO  399   6.406   2.744   1.388  0.3780  0.0901  0.0199
  400PON     CO  400   1.649   1.459   0.307 -0.0747  0.1609  0.0607
  401PON     CO  401   2.858   2.697   0.164  0.0565  0.3211 -0.0602
  402PON     CO  402   2.842   5.828   4.182 -0.0444 -0.0621 -0.0731
  403PON     CO  403   2.312   0.319   4.578  0.1230  0.1094 -0.2183
  404PON     CO  404   5.359   0.054   0.446  0.2445 -0.1494  0.2838
  405PON     CO  405   2.993   4.837   5.811 -0.2000 -0.2003 -0.0668
  406PON     CO  406   3.896   6.035   3.128 -0.0316  0.1350 -0.1987
  407PON     CO  407   2.828   4.953   1.347 -0.1306 -0.1722 -0.2378
  408PON     CO  408   1.712   5.232   5.026 -0.0836 -0.0049 -0.3888
  409PON     CO  409   4.038   2.368   0.257  0.2065 -0.4710  0.0678
  410PON     CO  410   4.571   4.091   0.356 -0.1269  0.2424 -0.5740
  411PON     CO  411   0.831   1.380   1.048  0.1571 -0.3352  0.1396
  412PON     CO  412   4.641   5.229   2.015 -0.1523  0.0516 -0.0526
  413PON     CO  413   3.570   0.337   0.804 -0.1040  0.5178  0.0350
  414PON     CO  414   3.817   4.407   3.885 -0.4049  0.0187 -0.3714
  415PON     CO  415   2.019   6.523   0.292 -0.1198 -0.0599 -0.2380
  416PON     CO  416   3.934   2.766   3.854 -0.0512  0.0318 -0.1300
  417PON     CO  417   1.034   0.016   4.286  0.2306 -0.3925 -0.1079
  418PON     CO  418   0.571   2.660   4.892  0.1227  0.1103  0.1536
  419PON     CO  419   2.148   6.194   6.459  0.1056 -0.0260  0.1761
  420PON     CO  420   5.585   3.908   1.088 -0.0445  0.0252  0.1725
  421PON     CO  421   2.910   4.198   3.358 -0.0546  0.1241 -0.0342
  422PON     CO  422   5.519   5.440   2.874  0.2059 -0.3558  0.3291
  423PON     CO  423   2.698   5.747   5.397 -0.0648  0.2001 -0.0658
  424PON     CO  424   5.070   5.708   5.345  0.3623 -0.0067  0.2052
  425PON     CO  425   5.118   3.849   0.561 -0.3693 -0.0321  0.0374
  426PON     CO  426   5.254   5.098   3.908  0.0900  0.0002  0.1796
  427PON     CO  427   1.895   5.083   0.154 -0.0616  0.1265  0.2100
  428PON     CO  428   0.627   4.839   0.588 -0.0627  0.3926  0.2665
  429PON     CO  429   2.461   4.573   1.636  0.1360 -0.0205 -0.1079
  430PON     CO  430   3.841   5.713   2.410 -0.0144 -0.0093  0.3200
  431PON     CO  431   2.296   4.323   2.057  0.1108  0.2237  0.1762
  432PON     CO  432   4.846   3.240   5.964  0.0574 -0.0956  0.0401
  433PON     CO  433   6.112   3.064   5.861 -0.0866  0.0509 -0.1475
  434PON     CO  434   0.136   2.752   0.463 -0.4721 -0.2446 -0.0310
  435PON     CO  435   0.904   0.175   6.162  0.2281 -0.2732  0.0671
  436PON     CO  436   4.136   0.867   0.196 -0.1670 -0.1251 -0.1299
  437PON     CO  437   2.191   4.817   4.663 -0.1129  0.0811 -0.2648
  438PON     CO  438   4.463   4.650   5.617 -0.1744 -0.0614 -0.2531
  439PON     CO  439   1.985   1.058   5.917 -0.0347  0.0318  0.3556
  440PON     CO  440   1.149   0.787   3.793  0.0973  0.4791 -0.2451
  441PON     CO  441   2.991   3.581   4.593  0.1170  0.0075  0.0898
  442PON     CO  442   5.912   6.434   4.679  0.0304  0.2115  0.3928
  443PON     CO  443   4.042   2.718   4.655 -0.1517 -0.0054 -0.0023
  444PON     CO  444   1.719   5.464   5.881 -0.0572 -0.0358 -0.0248
  445PON     CO  445   2.926   6.040   2.957 -0.1462  0.0338  0.0027
  446PON     CO  446   3.994   5.003   5.726  0.0949  0.0554  0.0538
  447PON     CO  447   2.806   2.154   0.033 -0.2905 -0.1073 -0.0833
  448PON     CO  448   4.495   5.250   4.697 -0.0575 -0.0135  0.0647
  449PON     CO  449   5.670   5.728   3.625 -0.0061  0.2608  0.0140
  450PON     CO  450   1.588   2.697   6.274  0.1528 -0.2490  0.2179
  451PON     CO  451   3.764   2.136   0.560  0.0524 -0.2046 -0.2557
  452PON     CO  452   5.867   0.147   3.687 -0.1362 -0.1413  0.1753
  453PON     CO  453   1.278   4.326   2.823  0.1673  0.2441  0.0427
  454PON     CO  454   5.936   1.375   0.488 -0.1424  0.1397 -0.1013
  455PON     CO  455   0.385   0.679   3.087 -0.2492  0.2570  0.0860
  456PON     CO  456   6.453   4.613   3.171 -0.1468 -0.4630  0.0596
  457PON     CO  457   4.118   5.235   1.861 -0.1478 -0.2445 -0.0049
  458PON     CO  458   4.955   0.698   1.135 -0.1429  0.1498 -0.2718
  459PON     CO  459   2.804   4.687   4.559  0.0286  0.2233  0.1210
  460PON     CO  460   3.694   4.017   3.489  0.4917  0.1760 -0.4535
  461PON     CO  461   5.212   3.549   2.542  0.1072  0.0036 -0.0016
  462PON     CO  462   3.389   1.692   1.306  0.0868  0.0471 -0.0656
  463PON     CO  463   3.477   4.222   2.944 -0.0179  0.1105 -0.2180
  464PON     CO  464   2.438   4.597   1.101  0.0548 -0.3816  0.1067
  465PON     CO  465   2.228   2.351   5.790 -0.0541  0.5540 -0.2094
  466PON     CO  466   4.663   3.174   0.343  0.1424  0.3587 -0.0397
  467PON     CO  467   0.919   2.458   0.463  0.1433  0.5561 -0.0879
  468PON     CO  468   5.944   0.385   5.477  0.3639 -0.1970  0.2412
  469PON     CO  469   3.613   4.868   1.655  0.2846 -0.0702 -0.0176
  470PON     CO  470   0.803   0.481   2.870  0.1706  0.0844 -0.3984
  471PON     CO  471   1.465   4.303   1.388 -0.0272  0.0755  0.2272
  472PON     CO  472   5.491   4.975   0.603 -0.0066  0.3979 -0.0388
  473PON     CO  473   0.242   4.971   3.463  0.0184 -0.4703  0.1423
  474PON     CO  474   0.745   3.086   1.997  0.0357 -0.1572  0.2179
  475PON     CO  475   4.360   0.203   5.276  0.1387  0.1014  0.0460
  476PON     CO  476   3.112   4.717   1.631  0.1662 -0.4765  0.0680
  477PON     CO  477   2.790   2.261   1.021  0.0118  0.1376 -0.0577
  478PON     CO  478   0.097   2.418   1.802 -0.0252 -0.0779  0.1820
  479PON     CO  479   4.812   3.093   2.734  0.3602  0.0378 -0.0506
  480PON     CO  480   2.491   5.296   5.360 -0.2951  0.0611  0.1542
  481PON     CO  481   2.706   0.905   2.653 -0.0062 -0.1066 -0.3685
  482PON     CO  482   0.769   2.559   5.896 -0.1252  0.0081  0.0432
  483PON     CO  483   5.910   2.561   6.005 -0.3004 -0.3117  0.1014
  484PON     CO  484   4.079   1.962   6.065 -0.1074 -0.3184 -0.0785
  485PON     CO  485   3.349   4.413   3.615 -0.2390  0.1252 -0.2914
  486PON     CO  486   0.363   2.226   4.654 -0.1181  0.1904 -0.2359
  487PON     CO  487   0.433   4.129   3.943  0.3537 -0.0838 -0.0496
  488PON     CO  488   3.186   2.129   5.451  0.0685  0.0833  0.1636
  489PON     CO  489   6.312   3.952   5.297 -0.2379  0.0562  0.1467
  490PON     CO  490   1.196   1.209   4.809  0.1273 -0.2697 -0.2027
  491PON     CO  491   2.137   3.809   2.211 -0.2469 -0.0499 -0.1092
  492PON     CO  492   0.223   4.384   1.154 -0.0912 -0.0204  0.2595
  493PON     CO  493   5.370   3.424   2.099  0.3566 -0.0254  0.3475
  494PON     CO  494   3.545   0.257   4.401 -0.0581 -0.2168  0.2276
  495PON     CO  495   5.705   2.648   4.473  0.1079  0.1210 -0.0658
  496PON     CO  496   0.856   6.091   3.458 -0.0971 -0.0075  0.0249
  497PON     CO  497   3.653   0.996   0.932  0.0001 -0.1337 -0.1192
  498PON     CO  498   3.179   5.462   1.181  0.2821 -0.0098  0.2011
  499PON     CO  499   0.851   5.457   2.271 -0.1044  0.0980  0.0596
  500PON     CO  500   3.272   2.627   1.944 -0.3791  0.0490  0.2955
  501PON     CO  501   0.083   2.558   2.369  0.0352  0.2123 -0.1785
  502PON     CO  502   4.469   3.379   5.415 -0.2318  0.0015 -0.0619
  503PON     CO  503   4.215   4.024   5.965  0.1491 -0.4013 -0.0157
  504PON     CO  504   3.999   1.122   4.530  0.0306 -0.3571 -0.0860
  505PON     CO  505   2.150   1.446   1.819  0.0150  0.3131 -0.0889
  506PON     CO  506   4.119   0.943   1.194  0.1746 -0.1016  0.1150
  507PON     CO  507   3.013   0.852   3.666  0.1286 -0.2374  0.0255
  508PON     CO  508   6.215   4.192   3.070  0.0302  0.0017 -0.2430
  509PON     CO  509   5.507   0.338   3.108  0.2593  0.1781  0.1549
  510PON     CO  510   4.509   2.090   4.189 -0.1480 -0.0286  0.0015
  511PON     CO  511   3.399   1.269   4.516 -0.0900  0.2008 -0.0985
  512PON     CO  512   4.095   1.224   5.347  0.0827  0.0583  0.0710
  513PON     CO  513   3.324   4.986   1.280  0.0897 -0.3085 -0.1352
  514PON     CO  514   1.120   6.266   1.976  0.3741  0.1119  0.0566
  515PON     CO  515   6.491   0.535   3.331 -0.2506 -0.1447 -0.2010
  516PON     CO  516   4.921   1.775   6.337 -0.0145  0.1311  0.1209
  517PON     CO  517   3.217   3.957   6.150 -0.1172  0.1576 -0.0292
  518PON     CO  518   3.722   2.902   6.021  0.3161  0.0539 -0.2091
  519PON     CO  519   3.127   3.987   0.934  0.2417 -0.0215 -0.1252
  520PON     CO  520   6.192   4.461   0.546 -0.1664  0.0859  0.0848
  521PON     CO  521   3.504   5.192   2.021 -0.0650  0.1817  0.0612
  522PON     CO  522   0.645   2.337   3.865 -0.3223 -0.0877  0.0635
  523PON     CO  523   2.972   0.311   0.863 -0.3384  0.1194  0.1524
  524PON     CO  524   4.825   6.406   0.236  0.1005 -0.2353  0.1071
  525PON     CO  525   0.637   2.045   3.047 -0.3459  0.1494  0.0981
  526PON     CO  526   5.738   6.401   3.055 -0.0926 -0.1598 -0.0259
  527PON     CO  527   0.522   5.881   3.798  0.3342  0.1260  0.0791
  528PON     CO  528   3.809   2.819   0.166  0.0724 -0.5828  0.0006
  529PON     CO  529   0.093   1.762   3.498  0.1612 -0.0046  0.2295
  530PON     CO  530   0.062   6.187   0.359 -0.0655  0.1783  0.4309
  531PON     CO  531   5.629   6.050   5.016 -0.0647 -0.1957  0.1636
  532PON     CO  532   5.912   4.519   4.151 -0.0493 -0.0159  0.0673
  533PON     CO  533   5.749   1.293   3.060  0.2481 -0.0967 -0.1625
  534PON     CO  534   1.945   1.952   0.463  0.2372 -0.2405 -0.2074
  535PON     CO  535   1.520   4.938   1.915 -0.1215  0.0571  0.1333
  536PON     CO  536   5.909   3.385   3.726  0.0920 -0.2046 -0.0039
  537PON     CO  537   2.067   0.934   4.391 -0.0509  0.1733 -0.4332
  538PON     CO  538   4.805   5.195   0.643 -0.3551 -0.1428 -0.1395
  539PON     CO  539   5.280   2.342   0.563  0.0621  0.2028 -0.0728
  540PON     CO  540   4.168   5.765   4.348  0.0714 -0.1228 -0.1894
  541PON     CO  541   5.732   5.036   4.211  0.1027 -0.0517 -0.1013
  542PON     CO  542   6.493   2.874   4.036 -0.0604  0.0113 -0.0826
  543PON     CO  543   1.683   5.143   0.697  0.0767  0.3012 -0.0576
  544PON     CO  544   2.841   2.216   3.858 -0.0073 -0.2447 -0.2422
  545PON     CO  545   3.021   2.604   2.893 -0.0525 -0.1911 -0.0787
  546PON     CO  546   0.271   4.639   4.717  0.0329 -0.1014 -0.1677
  547PON     CO  547   5.443   5.734   2.302 -0.1887  0.1478 -0.0538
  548PON     CO  548   2.409   4.307   4.256  0.0455 -0.0989  0.0339
  549PON     CO  549   3.007   3.306   6.361 -0.0779  0.0646 -0.0022
  550PON     CO  550   1.259   1.273   1.995 -0.0035 -0.1050  0.5292
  551PON     CO  551   5.351   2.827   5.398  0.2401  0.0077 -0.3698
  552PON     CO  552   2.191   0.356   3.136 -0.1375  0.0701 -0.3831
  553PON     CO  553   4.504   1.588   0.144 -0.2039 -0.0993  0.1516
  554PON     CO  554   3.328   1.334   6.498 -0.1854  0.1557  0.1895
  555PON     CO  555   0.299   3.104   2.245 -0.2029 -0.2041  0.0981
  556PON     CO  556   0.322   4.030   4.620 -0.1373 -0.1259  0.0430
  557PON     CO  557   4.066   4.218   2.470 -0.2005  0.2179  0.1743
  558PON     CO  558   1.556   0.196   0.636  0.2259  0.0749  0.0869
  559PON     CO  559   0.163   5.293   3.079  0.3420 -0.0436  0.1702
  560PON     CO  560   2.654   5.526   1.293  0.0852  0.0851  0.2174
  561PON     CO  561   6.088   5.187   1.900  0.2570 -0.0164 -0.0337
  562PON     CO  562   2.337   4.930   3.311 -0.0356 -0.0926  0.0182
  563PON     CO  563   0.185   3.731   3.773  0.1910 -0.0629 -0.1257
  564PON     CO  564   4.791   1.706   3.896  0.3601  0.1257  0.0152
  565PON     CO  565   3.506   3.637   5.254 -0.0871 -0.0337 -0.0036
  566PON     CO  566   5.861   0.642   4.099 -0.3889 -0.0985  0.3303
  567PON     CO  567   2.979   5.357   5.692 -0.0056 -0.0931  0.1707
  568PON     CO  568   5.816   3.168   1.970 -0.0608  0.0817 -0.2625
  569PON     CO  569   0.511   1.758   4.629 -0.1511  0.0491  0.0403
  570PON     CO  570   1.240   6.395   3.526  0.2249  0.0367  0.0056
  571PON     CO  571   5.993   2.739   4.927  0.3180  0.1992 -0.1766
  572PON     CO  572   5.528   2.954   4.883  0.0277  0.0518  0.0857
  573PON     CO  573   5.716   6.427   6.435  0.1838  0.1345 -0.1537
  574PON     CO  574   5.371   3.958   3.820 -0.1942  0.1368 -0.0152
  575PON     CO  575   2.436   2.116   6.233  0.1520  0.2555 -0.0214
  576PON     CO  576   3.881   3.225   4.762  0.0188  0.2065  0.2045
  577PON     CO  577   3.738   2.347   3.457 -0.1205  0.2322  0.0016
  578PON     CO  578   4.797   0.533   5.054 -0.0534 -0.0483 -0.0777
  579PON     CO  579   2.121   5.834   1.054  0.0836 -0.0712 -0.1555
  580PON     CO  580   1.600   1.052   0.666  0.2928  0.0008  0.1058
  581PON     CO  581   4.149   3.872   2.148 -0.1518 -0.3210 -0.0512
  582PON     CO  582   3.894   3.936   0.267 -0.0230 -0.0043 -0.1098
  583PON     CO  583   5.790   2.015   1.819 -0.4728 -0.1765  0.1142
  584PON     CO  584   5.044   2.366   2.318  0.0677  0.0921 -0.0903
  585PON     CO  585   4.824   4.439   5.234  0.0271  0.4909 -0.0302
  586PON     CO  586   1.530   5.942   2.853 -0.1209 -0.1435  0.3948
  587PON     CO  587   0.728   5.473   4.947 -0.1684 -0.1908  0.4310
  588PON     CO  588   4.154   4.863   4.748 -0.0046 -0.0290 -0.1068
  589PON     CO  589   1.396   5.381   3.770  0.0012  0.1220  0.0286
  590PON     CO  590   0.220   4.478   3.686  0.2222 -0.1999 -0.0269
  591PON     CO  591   6.130   3.266   3.037 -0.0071  0.1417 -0.0655
  592PON     CO  592   2.732   0.096   5.798  0.2302  0.1047 -0.1052
  593PON     CO  593   1.543   0.146   5.291 -0.4161  0.1189 -0.1829
  594PON     CO  594   5.674   2.198   5.575  0.1761 -0.0383  0.1867
  595PON     CO  595   5.685   1.841   1.166  0.1716  0.2111  0.0558
  596PON     CO  596   5.304   5.376   3.435 -0.0411  0.1227 -0.1857
  597PON     CO  597   0.733   4.517   3.745 -0.0891  0.1887  0.0567
  598PON     CO  598   5.438   2.119   2.159 -0.0107  0.2858  0.1728
  599PON     CO  599   1.432   5.968   6.019  0.1076  0.3603  0.0672
  600PON     CO  600   2.401   0.563   3.554  0.1840  0.1086 -0.3650
  601PON     CO  601   5.771   3.452   0.182 -0.2065 -0.2899 -0.1220
  602PON     CO  602   3.096   2.195   4.275  0.4161  0.0466  0.3074
  603PON     CO  603   1.149   4.934   5.784 -0.0448  0.2924 -0.2169
  604PON     CO  604   4.026   4.585   4.306  0.0715 -0.3496  0.0421
  605PON     CO  605   5.307   3.507   5.753  0.1375  0.2478  0.0557
  606PON     CO  606   3.821   1.477   0.024  0.0573 -0.1808 -0.0926
  607PON     CO  607   2.535   5.912   6.274 -0.0161  0.0507  0.0391
  608PON     CO  608   1.204   2.083   5.329 -0.1505  0.3398  0.3738
  609PON     CO  609   3.925   2.928   1.241  0.1100 -0.0782 -0.0319
  610PON     CO  610   4.506   5.704   1.861  0.0055 -0.1417 -0.1340
  611PON     CO  611   0.002   0.991   6.220  0.0080 -0.3706 -0.3052
  612PON     CO  612   3.775   0.402   0.081  0.1796 -0.3485 -0.1027
  613PON     CO  613   4.384   1.412   1.278 -0.3790  0.1641  0.2109
  614PON     CO  614   1.728   6.443   3.898  0.3039  0.0495  0.2454
  615PON     CO  615   0.947   1.597   3.110  0.0581 -0.3341 -0.0770
  616PON     CO  616   2.975   5.611   1.927 -0.1040 -0.1708  0.1176
  617PON     CO  617   4.095   3.718   3.814 -0.1568 -0.0211 -0.1996
  618PON     CO  618   3.748   1.354   1.328  0.1547 -0.0203  0.2442
  619PON     CO  619   5.210   2.263   4.612 -0.2190 -0.0681  0.0211
  620PON     CO  620   4.525   2.492   2.427 -0.0725  0.0592  0.0155
  621PON     CO  621   5.748   1.953   0.693  0.1845 -0.2814 -0.1063
  622PON     CO  622   2.754   5.207   2.496 -0.0722  0.3112  0.0199
  623PON     CO  623   4.097   4.054   5.019 -0.0738 -0.0158 -0.0979
  624PON     CO  624   5.813   4.705   5.350  0.1817  0.2751 -0.0288
  625PON     CO  625   4.195   6.355   4.683 -0.0655  0.0804 -0.0138
  626PON     CO  626   4.153   5.966   5.514 -0.1177 -0.0183 -0.0160
  627PON     CO  627   2.100   4.054   0.883  0.0458 -0.0274 -0.2646
  628PON     CO  628   2.100   2.672   4.467 -0.1122 -0.1392 -0.2714
  629PON     CO  629   4.666   1.562   0.807  0.0234 -0.2201 -0.1930
  630PON     CO  630   3.641   5.349   3.506 -0.0758 -0.2109  0.0177
  631PON     CO  631   3.024   4.966   4.260 -0.0802  0.0830  0.1407
  632PON     CO  632   2.138   5.448   2.002 -0.2226  0.0338  0.0576
  633PON     CO  633   5.967   2.656   1.238 -0.0659  0.2848  0.0041
  634PON     CO  634   5.949   5.453   5.765  0.0364  0.0414  0.1114
  635PON     CO  635   5.388   6.080   4.026 -0.1790 -0.0707  0.2632
  636PON     CO  636   5.178   2.824   0.604  0.1514  0.2353 -0.2242
  637PON     CO  637   6.039   5.888   1.116 -0.1850 -0.0216  0.0207
  638PON     CO  638   2.510   2.819   5.746 -0.1751  0.1643  0.2547
  639PON     CO  639   1.764   6.216   5.543 -0.0347 -0.1656  0.0118
  640PON     CO  640   1.599   0.814   4.211 -0.0720 -0.0763 -0.1898
  641PON     CO  641   0.037   3.900   4.206 -0.1706  0.2702  0.0948
  642PON     CO  642   5.662   4.417   6.440 -0.0620  0.0576  0.1037
  643PON     CO  643   0.528   4.356   0.306  0.0388  0.4325  0.2298
  644PON     CO  644   3.561   1.899   0.162  0.2832  0.2091 -0.3494
  645PON     CO  645   5.639   1.377   0.938 -0.2342  0.0860  0.1036
  646PON     CO  646   4.547   0.940   5.081  0.0708 -0.4425 -0.1633
  647PON     CO  647   2.579   3.883   4.595 -0.1263 -0.1452  0.1736
  648PON     CO  648   3.347   1.153   4.971  0.0836 -0.1250  0.3769
  649PON     CO  649   4.871   0.308   0.706 -0.1533  0.0440 -0.2179
  650PON     CO  650   4.667   4.126   5.696 -0.2575  0.0891  0.1514
  651PON     CO  651   2.508   1.427   5.656  0.3625 -0.1491 -0.0273
  652PON     CO  652   6.345   0.803   3.752  0.0538 -0.0063  0.1440
  653PON     CO  653   1.442   2.980   1.156  0.0782  0.4036  0.1040
  654PON     CO  654   1.437   1.050   5.223 -0.1671 -0.1811  0.2753
  655PON     CO  655   0.373   4.012   0.639 -0.1583 -0.1108 -0.0634
  656PON     CO  656   5.017   0.663   2.344  0.0505 -0.1052 -0.0324
  657PON     CO  657   1.504   1.887   1.197  0.0002  0.1686  0.5428
  658PON     CO  658   2.704   4.275   5.546 -0.0859 -0.2373 -0.1184
  659PON     CO  659   4.088   0.558   1.528  0.0775 -0.0693 -0.0710
  660PON     CO  660   5.423   0.189   5.551  0.0924 -0.0115 -0.1703
  661PON     CO  661   4.326   4.349   4.624  0.2607  0.3870  0.0154
  662PON     CO  662   1.131   4.786   4.697 -0.0395  0.0055  0.2585
  663PON     CO  663   0.228   1.269   1.823 -0.1691 -0.0401 -0.1029
  664PON     CO  664   4.541   4.517   6.134 -0.1886  0.1447 -0.0036
  665PON     CO  665   2.967   5.222   6.456 -0.0327 -0.1940  0.2652
  666PON     CO  666   1.323   0.460   0.018  0.0422  0.2537  0.2619
  667PON     CO  667   4.875   1.290   4.918 -0.1724  0.1626 -0.1860
  668PON     CO  668   6.299   2.774   6.377  0.1369 -0.3729  0.1814
  669PON     CO  669   5.123   5.334   6.327 -0.1304  0.1251 -0.2644
  670PON     CO  670   1.003   1.656   4.577 -0.1789  0.0278  0.2432
  671PON     CO  671   2.827   0.469   1.319  0.0081  0.3514 -0.0805
  672PON     CO  672   2.361   1.911   5.543  0.0149  0.0014 -0.3047
  673PON     CO  673   5.727   1.408   5.516  0.1903  0.0074 -0.0368
  674PON     CO  674   2.776   5.928   0.313  0.2898  0.2393  0.1631
  675PON     CO  675   5.933   5.269   4.675 -0.1365  0.0169  0.2060
  676PON     CO  676   4.835   1.817   5.333 -0.0010 -0.0889  0.1269
  677PON     CO  677   3.744   3.858   4.328 -0.2087  0.1528  0.0886
  678PON     CO  678   3.275   6.312   0.747 -0.2783 -0.2342 -0.3777
  679PON     CO  679   1.473   0.976   1.188 -0.0515 -0.0750 -0.1121
  680PON     CO  680   0.016   2.125   4.327 -0.1213 -0.0855  0.1250
  681PON     CO  681   6.341   0.003   2.822  0.2374  0.1998 -0.4126
  682PON     CO  682   5.722   1.167   2.176  0.2736 -0.0253  0.3270
  683PON     CO  683   1.040   0.165   1.318 -0.2520  0.0230 -0.1774
  684PON     CO  684   2.619   4.981   4.918 -0.0478 -0.2504  0.2284
  685PON     CO  685   6.021   1.551   1.929 -0.1457  0.1011  0.1211
  686PON     CO  686   4.824   4.453   0.496 -0.1630  0.0226 -0.0516
  687PON     CO  687   1.944   4.124   2.572 -0.0436  0.0993 -0.0648
  688PON     CO  688   0.147   5.668   0.418 -0.1561 -0.2459  0.2367
  689PON     CO  689   0.368   3.874   0.013  0.2834 -0.3079  0.0661
  690PON     CO  690   1.748   6.322   3.411  0.4315 -0.0594  0.1359
  691PON     CO  691   6.300   6.124   4.230  0.0777  0.0634  0.2085
  692PON     CO  692   1.740   3.563   2.178  0.1664 -0.3883  0.0197
  693PON     CO  693   6.388   2.348   0.185  0.3665  0.0539 -0.0411
  694PON     CO  694   6.471   0.948   5.694 -0.2265 -0.2533  0.0530
  695PON     CO  695   0.671   1.794   6.087  0.0422  0.1277  0.1506
  696PON     CO  696   5.489   6.463   4.354 -0.4109 -0.1331  0.0162
  697PON     CO  697   2.330   6.085   5.029 -0.2496  0.0650  0.4103
  698PON     CO  698   1.795   3.425   2.986  0.1204  0.3112  0.0460
  699PON     CO  699   6.279   2.315   3.496  0.0294 -0.3046  0.0656
  700PON     CO  700   5.709   0.813   0.840  0.0790 -0.1502 -0.0140
  701PON     CO  701   1.947   4.077   0.235 -0.1047 -0.1207  0.0305
  702PON     CO  702   0.786   0.049   2.666  0.1986  0.0396  0.1275
  703PON     CO  703   4.292   5.947   2.305  0.1199  0.1341  0.1845
  704PON     CO  704   1.002   3.907   1.205 -0.1988  0.0398  0.0124
  705PON     CO  705   1.296   4.673   6.177 -0.1650  0.2727  0.2222
  706PON     CO  706   2.359   0.409   1.635 -0.1331 -0.3812  0.0214
  707PON     CO  707   3.684   3.534   3.337  0.0824  0.1255 -0.2522
  708PON     CO  708   2.328   6.349   1.736 -0.0517 -0.3279 -0.0902
  709PON     CO  709   1.414   4.394   4.674  0.1117  0.1990 -0.0436
  710PON     CO  710   4.656   1.706   4.909  0.2097  0.0853 -0.1851
  711PON     CO  711   0.899   5.959   6.379  0.0733 -0.1205  0.0483
  712PON     CO  712   4.602   0.209   5.768  0.1682 -0.2817  0.0573
  713PON     CO  713   2.067   0.320   0.731 -0.1149  0.0652  0.0743
  714PON     CO  714   3.462   1.156   1.821  0.0453  0.0077 -0.1287
  715PON     CO  715   1.616   3.457   3.948 -0.2228  0.0423 -0.2995
  716PON     CO  716   3.715   4.794   3.557 -0.0964 -0.0774  0.1407
  717PON     CO  717   4.876   5.122   3.527 -0.0518  0.0073 -0.5393
  718PON     CO  718   0.823   4.360   1.370  0.0124 -0.0324 -0.1009
  719PON     CO  719   5.681   1.473   1.535 -0.1030  0.0152  0.0533
  720PON     CO  720   0.905   4.915   2.150  0.1749 -0.1048  0.0302
  721PON     CO  721   0.685   5.427   4.077  0.3326 -0.1823  0.1432
  722PON     CO  722   4.862   2.753   5.739  0.1817  0.1108 -0.0524
  723PON     CO  723   0.727   2.953   3.501  0.1684  0.2505 -0.2549
  724PON     CO  724   5.376   5.828   1.848  0.2118 -0.0343  0.1791
  725PON     CO  725   2.396   4.383   4.857 -0.0816 -0.0117 -0.1244
  726PON     CO  726   3.598   0.321   6.187 -0.0640 -0.1689 -0.0032
  727PON     CO  727   5.918   3.146   1.471 -0.0780  0.1342  0.2406
  728PON     CO  728   3.848   0.461   3.295 -0.0019  0.0914  0.3449
  729PON     CO  729   1.084   5.844   5.005  0.1431 -0.2142 -0.0155
  730PON     CO  730   0.862   3.807   3.270 -0.1616 -0.0177  0.0137
  731PON     CO  731   3.355   6.078   4.147 -0.1167  0.0561  0.0728
  732PON     CO  732   1.778   2.133   3.670  0.2026 -0.2354 -0.5327
  733PON     CO  733   1.861   3.340   5.051  0.0527  0.0534  0.1234
  734PON     CO  734   6.133   4.082   1.169 -0.0318 -0.1887  0.1713
  735PON     CO  735   3.058   0.147   3.063  0.0776  0.0530  0.3166
  736PON     CO  736   3.386   3.468   6.094 -0.1734  0.0198 -0.3548
  737PON     CO  737   2.473   1.166   1.515  0.1455  0.0731 -0.1205
  738PON     CO  738   5.443   1.127   0.436 -0.2289  0.0923 -0.2387
  739PON     CO  739   0.818   0.457   4.380  0.1369 -0.0047  0.1884
  740PON     CO  740   4.784   2.456   0.541 -0.1060  0.0775  0.0527
  741PON     CO  741   3.608   6.410   4.679  0.0309  0.1078 -0.0384
  742PON     CO  742   0.003   5.035   1.641  0.0420 -0.0501  0.4031
  743PON     CO  743   1.243   0.627   2.030 -0.1079 -0.0620 -0.2340
  744PON     CO  744   2.704   0.878   4.078 -0.1275 -0.0531 -0.0878
  745PON     CO  745   6.068   3.053   0.956  0.0500  0.1452  0.2943
  746PON     CO  746   3.356   2.586   6.241  0.0832 -0.1114  0.3081
  747PON     CO  747   1.172   6.081   4.011 -0.0982  0.1180  0.2745
  748PON     CO  748   2.292   0.948   3.230  0.2282  0.3208  0.2885
  749PON     CO  749   5.313   5.397   0.882  0.2273 -0.3244 -0.1124
  750PON     CO  750   3.716   4.634   5.546  0.0356 -0.0412  0.3405
  751PON     CO  751   5.484   6.394   3.544  0.1301  0.1241  0.1992
  752PON     CO  752   0.559   0.168   5.822  0.0409  0.2634  0.0852
  753PON     CO  753   2.130   3.924   3.079 -0.1767  0.1073  0.1981
  754PON     CO  754   1.118   3.373   1.264 -0.0387  0.1332  0.1831
  755PON     CO  755   6.046   4.371   4.981 -0.1191  0.1328  0.1279
  756PON     CO  756   4.030   4.598   0.889 -0.1114  0.0559 -0.2408
  757PON     CO  757   4.203   6.055   1.748 -0.1986 -0.1218  0.0368
  758PON     CO  758   4.439   1.573   6.141  0.1964 -0.0179 -0.2793
  759PON     CO  759   4.591   3.926   3.907 -0.0141  0.2184 -0.3388
  760PON     CO  760   3.081   5.111   0.833 -0.1688 -0.2775  0.0022
  761PON     CO  761   5.670   3.795   2.427  0.4460 -0.1956 -0.2695
  762PON     CO  762   2.218   1.583   0.258  0.0911  0.0764 -0.1564
  763PON     CO  763   1.502   4.606   3.195  0.2250 -0.3763 -0.0311
  764PON     CO  764   5.193   5.635   4.468  0.1160  0.0334 -0.2664
  765PON     CO  765   5.333   0.452   0.912  0.3562  0.0365  0.3044
  766PON     CO  766   5.493   4.915   3.302 -0.2216 -0.1383  0.0809
  767PON     CO  767   0.264   0.022   0.014  0.0235 -0.0933 -0.0513
  768PON     CO  768   3.151   1.680   5.670  0.0831 -0.1390 -0.0058
  769PON     CO  769   0.586   0.353   3.426 -0.0661  0.1411 -0.0905
  770PON     CO  770   2.073   4.640   3.886 -0.0369 -0.1890 -0.0204
  771PON     CO  771   4.015   3.333   2.159  0.1796 -0.0132 -0.0493
  772PON     CO  772   2.046   0.522   2.186 -0.0681  0.1943 -0.1592
  773PON     CO  773   3.261   0.727   1.131 -0.0592 -0.0995  0.0508
  774PON     CO  774   4.251   1.532   3.385 -0.0399 -0.0178  0.1611
  775PON     CO  775   5.430   4.271   0.337  0.0099  0.0011  0.3118
  776PON     CO  776   1.839   3.052   1.475 -0.0360 -0.0279 -0.2222
  777PON     CO  777   0.421   3.519   1.965 -0.0877  0.4606  0.0340
  778PON     CO  778   4.935   1.809   0.344 -0.1361 -0.4097 -0.2661
  779PON     CO  779   2.303   3.830   5.590  0.0269  0.0844 -0.0469
  780PON     CO  780   5.094   5.107   3.094 -0.0254 -0.1636 -0.2336
  781PON     CO  781   3.666   5.336   1.389 -0.2952  0.1944  0.2708
  782PON     CO  782   4.685   1.269   1.651  0.1286 -0.1006  0.2797
  783PON     CO  783   4.772   0.358   4.060 -0.2104  0.0130 -0.1035
  784PON     CO  784   2.892   3.918   0.521  0.0561  0.0225  0.0492
  785PON     CO  785   5.046   3.752   6.193  0.0608 -0.0939 -0.5290
  786PON     CO  786   0.212   5.377   5.864 -0.3840 -0.0511 -0.0957
  787PON     CO  787   3.589   1.958   5.894  0.1729 -0.0791 -0.1139
  788PON     CO  788   4.602   1.143   6.329 -0.1041 -0.0366  0.0470
  789PON     CO  789   1.980   5.995   1.678  0.2293 -0.1155  0.1288
  790PON     CO  790   4.675   0.152   4.820 -0.0604 -0.0937 -0.3405
  791PON     CO  791   4.033   1.432   5.808 -0.2128 -0.2471 -0.4009
  792PON     CO  792   3.282   1.019   0.329 -0.3342 -0.0459  0.2168
  793PON     CO  793   4.449   3.969   1.255  0.2168  0.0497  0.1275
  794PON     CO  794   6.523   4.304   5.532 -0.1164  0.0113 -0.0204
  795PON     CO  795   0.830   2.466   5.339 -0.3513  0.0325 -0.1481
  796PON     CO  796   6.331   0.467   5.791  0.3921 -0.1573  0.2009
  797PON     CO  797   3.792   1.783   3.668 -0.2561  0.0168  0.3660
  798PON     CO  798   2.538   0.074   1.242 -0.0877  0.5052 -0.2520
  799PON     CO  799   0.410   5.871   1.449 -0.0076 -0.1056  0.0039
  800PON     CO  800   1.958   5.816   3.181  0.0132 -0.0421 -0.2272
  801PON     CO  801   0.070   0.173   6.078 -0.2984 -0.1072 -0.2990
  802PON     CO  802   3.900   6.189   5.085 -0.0838  0.2188  0.0087
  803PON     CO  803   1.562   6.205   0.547  0.2799 -0.2592 -0.0477
  804PON     CO  804   4.861   2.680   5.279 -0.1793  0.0735  0.1022
  805PON     CO  805   0.249   4.899   5.716 -0.2601 -0.0007 -0.1732
  806PON     CO  806   0.418   4.356   5.754  0.0697 -0.0090 -0.1084
  807PON     CO  807   4.746   4.264   3.609 -0.1661  0.0775  0.1389
  808PON     CO  808   5.130   4.953   1.689 -0.0250 -0.3151 -0.1012
  809PON     CO  809   4.761   1.030   4.030 -0.0378  0.0693  0.0362
  810PON     CO  810   3.971   4.950   3.988 -0.1702  0.2626 -0.2981
  811PON     CO  811   2.689   0.446   2.799 -0.3577 -0.1405 -0.2119
  812PON     CO  812   3.284   6.072   0.285 -0.3267 -0.1433 -0.1488
  813PON     CO  813   1.269   3.704   2.117 -0.0890 -0.1984 -0.2008
  814PON     CO  814   1.328   2.698   2.471 -0.2487 -0.3268 -0.0874
  815PON     CO  815   0.543   5.681   3.209 -0.4482 -0.0371  0.2073
  816PON     CO  816   3.288   1.522   3.566  0.0777  0.2185  0.1175
  817PON     CO  817   4.207   3.083   5.054 -0.0751 -0.1347 -0.0027
  818PON     CO  818   3.401   6.109   5.021 -0.0918 -0.2052  0.3208
  819PON     CO  819   3.016   5.636   0.678  0.0550  0.0723 -0.1800
  820PON     CO  820   5.839   0.454   4.625 -0.0664 -0.1914 -0.3128
  821PON     CO  821   6.191   3.812   0.413 -0.2421  0.2568  0.1189
  822PON     CO  822   1.912   3.526   1.742 -0.4527  0.1008  0.3889
  823PON     CO  823   2.599   4.168   1.359 -0.3365  0.0823 -0.5829
  824PON     CO  824   2.701   3.188   3.336 -0.0603  0.0788 -0.1701
  825PON     CO  825   2.950   1.906   1.396  0.0014  0.1314  0.1007
  826PON     CO  826   3.979   3.498   5.183  0.2030 -0.2589  0.0890
  827PON     CO  827   3.368   3.981   4.796 -0.1454  0.0075  0.2000
  828PON     CO  828   2.657   3.575   0.776  0.2552 -0.1155 -0.0441
  829PON     CO  829   4.229   0.505   5.736 -0.0462  0.0341 -0.2845
  830PON     CO  830   3.400   0.128   2.640  0.1338  0.1033 -0.1362
  831PON     CO  831   0.917   0.357   3.763  0.2735 -0.0322 -0.0982
  832PON     CO  832   1.020   0.965   6.395 -0.0696 -0.1548 -0.2189
  833PON     CO  833   5.586   5.760   5.447 -0.0131 -0.2499 -0.2410
  834PON     CO  834   5.767   1.746   4.012 -0.2305  0.0811  0.0502
  835PON     CO  835   5.343   4.741   4.306 -0.1278 -0.0815  0.1122
  836PON     CO  836   0.711   1.268   4.405 -0.1606 -0.0954 -0.0840
  837PON     CO  837   6.161   6.435   5.149  0.3052  0.1000 -0.0710
  838PON     CO  838   1.912   0.316   3.595  0.0784 -0.1161 -0.0741
  839PON     CO  839   1.950   3.892   4.388 -0.0701  0.0504 -0.2801
  840PON     CO  840   4.622   5.203   2.810 -0.0279  0.2907 -0.0245
  841PON     CO  841   4.465   4.440   2.608  0.1761 -0.0965 -0.2449
  842PON     CO  842   2.021   5.877   2.625  0.0327  0.1726  0.0227
  843PON     CO  843   4.402   1.730   2.835  0.0262 -0.1002 -0.1777
  844PON     CO  844   2.113   1.435   2.733 -0.1697 -0.3741 -0.1581
  845PON     CO  845   1.370   0.585   1.504  0.0745  0.0610  0.0399
  846PON     CO  846   1.757   4.785   1.117 -0.1963 -0.3569 -0.0184
  847PON     CO  847   2.997   6.509   0.426  0.2413  0.2303  0.1585
  848PON     CO  848   6.329   5.347   2.320 -0.1929  0.4506  0.2299
  849PON     CO  849   6.518   4.076   3.442  0.1140  0.0725 -0.0856
  850PON     CO  850   1.255   2.626   5.783 -0.0100  0.2479 -0.2083
  851PON     CO  851   1.898   1.837   2.002 -0.1068  0.1617  0.1277
  852PON     CO  852   5.233   4.916   2.184  0.0103 -0.0944  0.0049
  853PON     CO  853   0.055   1.269   2.678 -0.1440 -0.0751 -0.0327
  854PON     CO  854   2.570   2.675   4.867  0.1291 -0.1583 -0.1074
  855PON     CO  855   1.645   1.768   3.384  0.4215  0.1301  0.2538
  856PON     CO  856   4.144   0.282   2.832  0.1959  0.0134  0.3138
  857PON     CO  857   2.117   4.427   2.982 -0.1555 -0.1542 -0.1588
  858PON     CO  858   3.674   2.915   2.104  0.0821 -0.2202 -0.0832
  859PON     CO  859   3.563   4.504   0.304  0.0887  0.0877 -0.0018
  860PON     CO  860   1.096   0.920   2.655 -0.0281  0.2526  0.1846
  861PON     CO  861   0.158   6.352   0.884  0.1899  0.1754  0.1665
  862PON     CO  862   5.814   1.489   4.732 -0.2224 -0.0758  0.2501
  863PON     CO  863   6.347   6.277   3.734 -0.4926 -0.3018  0.0443
  864PON     CO  864   4.755   2.549   3.355  0.0712 -0.1670  0.0313
  865PON     CO  865   1.754   3.161   2.522 -0.0624 -0.0603  0.2377
  866PON     CO  866   4.926   1.218   2.596 -0.0822 -0.0047 -0.0508
  867PON     CO  867   2.844   3.458   1.680 -0.1488  0.0069  0.0660
  868PON     CO  868   5.447   1.607   0.364 -0.2066  0.1398  0.1515
  869PON     CO  869   4.838   1.956   4.491  0.0534  0.1924 -0.2264
  870PON     CO  870   1.592   3.828   4.759  0.1406 -0.2906  0.1547
  871PON     CO  871   6.361   5.759   5.930 -0.2394  0.1691  0.2521
  872PON     CO  872   1.667   4.020   1.087 -0.2690 -0.0163  0.2923
  873PON     CO  873   1.940   1.768   5.207 -0.0215  0.0285 -0.0233
  874PON     CO  874   3.433   5.097   5.764 -0.1196 -0.3274 -0.3314
  875PON     CO  875   0.132   0.150   5.524 -0.2397  0.0955 -0.0341
  876PON     CO  876   4.944   6.118   3.086  0.1878  0.1834  0.1873
  877PON     CO  877   0.668   6.356   2.168  0.1705  0.0192  0.0856
  878PON     CO  878   2.874   5.562   6.126 -0.4998 -0.1526  0.0047
  879PON     CO  879   0.258   1.820   0.374  0.1466  0.0319 -0.3156
  880PON     CO  880   6.385   5.976   1.456 -0.0722 -0.2313 -0.0849
  881PON     CO  881   0.234   5.819   5.621 -0.1250  0.0699  0.1311
  882PON     CO  882   5.173   1.242   0.845  0.1261 -0.0111  0.0362
  883PON     CO  883   4.632   3.627   0.148 -0.1112 -0.2610 -0.0949
  884PON     CO  884   3.754   0.331   1.830 -0.2171  0.0633  0.0188
  885PON     CO  885   4.940   3.306   6.424 -0.1713 -0.2532 -0.1559
  886PON     CO  886   1.233   4.133   1.896  0.5313  0.1312 -0.0523
  887PON     CO  887   0.770   1.497   0.435 -0.0582  0.1575  0.1422
  888PON     CO  888   3.771   1.661   5.433  0.0239  0.1190  0.2021
  889PON     CO  889   3.310   2.701   1.135  0.0842 -0.0160 -0.2050
  890PON     CO  890   1.322   0.503   4.534  0.2196 -0.2088 -0.0264
  891PON     CO  891   3.327   3.312   4.863 -0.1975  0.3341  0.0014
  892PON     CO  892   1.675   4.821   4.588 -0.1817  0.2174  0.2321
  893PON     CO  893   5.154   1.763   4.839 -0.0326  0.3686  0.0607
  894PON     CO  894   1.331   2.408   0.079 -0.0078 -0.1148  0.0580
  895PON     CO  895   0.585   2.804   3.976 -0.4376  0.0622 -0.2280
  896PON     CO  896   0.348   0.817   2.149  0.2029 -0.0399  0.3629
  897PON     CO  897   1.212   4.533   5.295 -0.0691 -0.2744  0.0397
  898PON     CO  898   5.638   3.635   0.624  0.4427 -0.2160  0.2422
  899PON     CO  899   1.358   5.132   4.406 -0.0356  0.0715  0.4199
  900PON     CO  900   2.377   1.799   2.215 -0.1399 -0.1394 -0.1038
  901PON     CO  901   2.171   1.279   4.850 -0.1335 -0.1121 -0.0931
  902PON     CO  902   5.192   6.444   4.830  0.2809 -0.2749 -0.1715
  903PON     CO  903   1.568   6.059   0.018 -0.2804  0.0649  0.0785
  904PON     CO  904   5.804   0.222   1.260 -0.0086  0.0146  0.2750
  905PON     CO  905   3.275   0.427   4.857 -0.0568  0.0845  0.1392
  906PON     CO  906   1.409   1.337   4.367  0.2493 -0.1485  0.1962
  907PON     CO  907   0.936   1.273   3.960  0.0415 -0.2182  0.0151
  908PON     CO  908   0.229   3.241   3.594 -0.1451 -0.0039  0.1268
  909PON     CO  909   1.972   2.402   6.181  0.0008  0.1857 -0.0682
  910PON     CO  910   2.236   0.043   5.019  0.1008 -0.1440  0.4411
  911PON     CO  911   0.836   5.269   3.039 -0.0217  0.3575 -0.0966
  912PON     CO  912   5.749   3.712   1.902 -0.1818 -0.2331  0.2700
  913PON     CO  913   1.073   2.895   4.588 -0.1400 -0.0487  0.2246
  914PON     CO  914   0.584   2.069   0.634  0.2653 -0.0205  0.1445
  915PON     CO  915   2.779   1.810   5.290  0.0162  0.1157 -0.1304
  916PON     CO  916   2.736   2.393   1.520  0.1367 -0.1759  0.0865
  917PON     CO  917   4.887   0.355   0.088 -0.0528 -0.1573 -0.0281
  918PON     CO  918   6.493   4.815   3.974  0.0047  0.0457 -0.0188
  919PON     CO  919   2.671   0.274   4.228  0.1598 -0.3361 -0.1686
  920PON     CO  920   4.279   2.465   3.467  0.2156 -0.0824 -0.1178
  921PON     CO  921   6.279   1.488   3.058 -0.1407  0.1676 -0.0369
  922PON     CO  922   2.348   2.217   0.188  0.2821  0.1556  0.1023
  923PON     CO  923   0.160   3.840   2.210  0.2212 -0.0935 -0.4163
  924PON     CO  924   5.137   2.854   6.173  0.0140  0.1101  0.2856
  925PON     CO  925   6.275   4.796   5.505 -0.0494  0.0590 -0.1195
  926PON     CO  926   6.413   6.184   3.238 -0.0098 -0.0855  0.1212
  927PON     CO  927   6.317   5.644   3.222 -0.0042  0.1327 -0.1502
  928PON     CO  928   5.445   6.458   1.006 -0.1231  0.2493 -0.0214
  929PON     CO  929   1.851   3.621   0.808 -0.1159  0.3371 -0.0667
  930PON     CO  930   3.868   0.280   3.776  0.1170  0.0163 -0.1744
  931PON     CO  931   2.540   2.782   3.117 -0.1535 -0.1784  0.0587
  932PON     CO  932   1.001   2.829   5.043 -0.1389  0.0402 -0.0705
  933PON     CO  933   2.239   2.239   3.955 -0.4050  0.0843  0.1705
  934PON     CO  934   5.931   3.994   0.034 -0.1112 -0.1232  0.1160
  935PON     CO  935   3.334   1.746   4.473  0.1311 -0.4077 -0.0061
  936PON     CO  936   2.867   1.665   2.173 -0.1965  0.3347  0.2513
  937PON     CO  937   4.005   4.990   1.182 -0.1689  0.1479 -0.1461
  938PON     CO  938   2.552   0.537   2.312  0.0158  0.0867 -0.0146
  939PON     CO  939   2.323   2.742   1.097 -0.2580  0.0215 -0.0066
  940PON     CO  940   1.484   0.962   3.451 -0.2389  0.0667 -0.2090
  941PON     CO  941   4.357   0.761   4.171  0.3443 -0.2599  0.2084
  942PON     CO  942   0.359   4.494   1.595  0.0020 -0.0599 -0.1045
  943PON     CO  943   5.224   1.130   2.186 -0.2360  0.0421 -0.0452
  944PON     CO  944   3.251   5.752   3.288  0.0216  0.1805 -0.1904
  945PON     CO  945   5.670   0.182   5.949 -0.0580 -0.0223 -0.1515
  946PON     CO  946   0.703   3.965   5.892  0.2129  0.1743  0.1296
  947PON     CO  947   5.187   5.413   1.983 -0.0583 -0.0908 -0.2129
  948PON     CO  948   5.197   6.032   1.321 -0.2080 -0.2034 -0.1622
  949PON     CO  949   0.939   5.441   5.477  0.0241  0.0352  0.0986
  950PON     CO  950   4.517   3.538   4.235 -0.0699 -0.0616 -0.1548
  951PON     CO  951   3.091   6.407   5.447 -0.0105  0.0519  0.1346
  952PON     CO  952   1.131   2.775   3.048 -0.1613  0.0846  0.0147
  953PON     CO  953   3.487   2.410   0.181 -0.2369 -0.0032  0.1325
  954PON     CO  954   1.184   1.438   0.125 -0.2758  0.0055  0.0246
  955PON     CO  955   1.577   5.557   6.334  0.2525  0.0980 -0.0006
  956PON     CO  956   3.396   4.393   1.135  0.0027  0.1749 -0.0081
  957PON     CO  957   4.466   3.444   3.628 -0.0432  0.1846 -0.0731
  958PON     CO  958   3.895   3.151   1.661  0.1901 -0.3454 -0.0763
  959PON     CO  959   0.816   0.518   0.234  0.1321 -0.1130 -0.1712
  960PON     CO  960   5.485   1.317   5.072 -0.1881  0.0755 -0.2611
  961PON     CO  961   1.572   0.048   0.057  0.2455  0.1288 -0.1023
  962PON     CO  962   0.046   3.432   2.653  0.2269 -0.0125 -0.1689
  963PON     CO  963   0.192   2.480   5.256 -0.0932 -0.0287  0.0029
  964PON     CO  964   2.228   0.770   2.739  0.0584 -0.1704  0.0273
  965PON     CO  965   6.425   0.549   5.321  0.0106 -0.0922  0.1422
  966PON     CO  966   0.508   5.500   2.716 -0.2216  0.1943 -0.0331
  967PON     CO  967   6.034   1.965   3.069  0.0165  0.0243  0.0795
  968PON     CO  968   3.538   1.535   0.864 -0.1092  0.1641  0.1864
  969PON     CO  969   6.111   6.383   0.992  0.0517 -0.0672 -0.2171
  970PON     CO  970   1.238   3.223   6.248  0.0450 -0.1492 -0.4437
  971PON     CO  971   2.386   2.651   6.291 -0.1044 -0.1651  0.0016
  972PON     CO  972   5.056   3.833   2.916  0.2209 -0.0522 -0.0138
  973PON     CO  973   4.026   3.482   4.324  0.2896  0.1100 -0.0007
  974PON     CO  974   0.097   3.570   0.328  0.1347  0.2739 -0.1278
  975PON     CO  975   4.052   5.376   6.084  0.2135 -0.1348  0.0631
  976PON     CO  976   3.838   6.113   2.046  0.0817 -0.0132  0.0566
  977PON     CO  977   0.053   3.493   6.044 -0.1070  0.0573  0.2472
  978PON     CO  978   0.897   3.593   2.842  0.0363  0.0812  0.3103
  979PON     CO  979   4.219   3.267   0.931 -0.2411  0.1079 -0.0596
  980PON     CO  980   1.200   4.842   3.528 -0.1559 -0.1347  0.2224
  981PON     CO  981   4.155   4.119   4.115 -0.1517  0.1696 -0.0333
  982PON     CO  982   3.628   4.215   5.841  0.0345 -0.0259 -0.1729
  983PON     CO  983   1.170   5.531   1.333  0.1055 -0.0029  0.0927
  984PON     CO  984   6.065   2.260   4.728  0.3817 -0.2075  0.2887
  985PON     CO  985   6.009   3.882   2.762  0.3053  0.1028 -0.2233
  986PON     CO  986   3.836   1.563   4.293 -0.0458 -0.0798 -0.0651
  987PON     CO  987   2.201   4.555   2.512 -0.2859 -0.0361  0.1043
  988PON     CO  988   5.929   5.383   0.963  0.0273  0.2726  0.1973
  989PON     CO  989   2.857   6.281   6.481  0.2213  0.0200  0.0357
  990PON     CO  990   3.241   1.684   1.781  0.2496 -0.2410  0.2002
  991PON     CO  991   3.163   5.871   4.595 -0.1549 -0.1896 -0.1423
  992PON     CO  992   1.670   4.617   2.609  0.1395  0.0279 -0.0975
  993PON     CO  993   0.480   0.820   2.616 -0.0964 -0.2450 -0.1857
  994PON     CO  994   3.304   0.037   1.740  0.0029 -0.3883 -0.1557
  995PON     CO  995   1.607   2.730   0.306  0.0060  0.0610 -0.4392
  996PON     CO  996   1.834   2.241   5.502  0.2006  0.1853 -0.1074
  997PON     CO  997   3.907   6.066   3.982 -0.1048 -0.0098 -0.0039
  998PON     CO  998   1.700   1.113   2.734  0.0290 -0.0200  0.0527
  999PON     CO  999   5.181   3.659   1.027  0.2648  0.2082 -0.2383
 1000PON     CO 1000   1.317   0.565   5.030 -0.1434  0.0390 -0.0372
 1001PON     CO 1001   4.141   3.253   3.164 -0.4749 -0.1849  0.1962
 1002PON     CO 1002   1.012   5.228   1.717  0.0616 -0.0622 -0.3542
 1003PON     CO 1003   2.915   2.983   1.660  0.0380  0.1767  0.1445
 1004PON     CO 1004   2.960   1.163   5.792  0.1157  0.2282 -0.1358
 1005PON     CO 1005   1.867   1.318   6.374 -0.1433 -0.2539 -0.2888
 1006PON     CO 1006   3.884   4.453   4.782 -0.0051 -0.0263  0.0162
 1007PON     CO 1007   2.528   0.198   0.028 -0.3169 -0.3023  0.0444
 1008PON     CO 1008   5.417   0.937   5.624 -0.2393 -0.1095 -0.2516
 1009PON     CO 1009   3.410   4.672   6.027 -0.1505  0.1001 -0.1453
 1010PON     CO 1010   3.939   4.550   6.060 -0.3931 -0.2476 -0.0359
 1011PON     CO 1011   1.861   3.171   3.666 -0.0872 -0.2472 -0.0227
 1012PON     CO 1012   1.781   2.635   5.781  0.1423  0.2334  0.0107
 1013PON     CO 1013   5.023   2.250   3.599  0.0339  0.3780 -0.2252
 1014PON     CO 1014   5.789   4.765   2.240  0.0622 -0.0967  0.0244
 1015PON     CO 1015   1.836   4.505   2.130  0.0793 -0.2772 -0.5859
 1016PON     CO 1016   1.521   0.441   1.067  0.1412  0.1066 -0.0653
 1017PON     CO 1017   2.242   2.605   5.394 -0.0429 -0.1857  0.2492
 1018PON     CO 1018   2.437   4.825   4.180 -0.2488 -0.0276 -0.3653
 1019PON     CO 1019   3.432   4.752   0.758  0.2247  0.0130  0.0753
 1020PON     CO 1020   0.719   3.541   4.630  0.3117  0.3334  0.1754
 1021PON     CO 1021   3.267   4.605   4.670 -0.0881 -0.0554 -0.1500
 1022PON     CO 1022   3.745   0.056   3.050  0.2962  0.0081  0.3562
 1023PON     CO 1023   4.464   0.146   1.635 -0.2254  0.0823  0.0553
 1024PON     CO 1024   1.677   4.149   3.031 -0.0945  0.0852 -0.0148
 1025PON     CO 1025   6.414   3.186   0.600  0.2465 -0.1016  0.0490
 1026PON     CO 1026   1.400   0.605   3.018 -0.1666 -0.4642 -0.2685
 1027PON     CO 1027   4.864   3.762   1.940  0.1916  0.4250 -0.0929
 1028PON     CO 1028   6.385   3.776   6.416 -0.0021  0.3762 -0.0577
 1029PON     CO 1029   2.789   1.827   4.382 -0.1601  0.3361 -0.2664
 1030PON     CO 1030   0.340   6.180   3.417  0.2089  0.0005  0.1333
 1031PON     CO 1031   2.135   2.261   2.250  0.0777 -0.1813 -0.1331
 1032PON     CO 1032   3.352   3.001   0.386  0.3351  0.1912 -0.2053
 1033PON     CO 1033   0.326   0.145   3.083  0.2683  0.1503  0.0867
 1034PON     CO 1034   0.660   0.703   0.650  0.3580  0.2570  0.0130
 1035PON     CO 1035   3.375   5.453   0.349 -0.4151 -0.0783 -0.0725
 1036PON     CO 1036   4.459   4.315   0.918 -0.1137 -0.2692  0.1462
 1037PON     CO 1037   3.759   2.585   1.692 -0.0256  0.1226  0.0727
 1038PON     CO 1038   4.234   5.599   6.492  0.1859  0.0752 -0.2099
 1039PON     CO 1039   2.835   3.616   5.067 -0.2665  0.1109  0.0540
 1040PON     CO 1040   2.854   1.773   3.523 -0.0173  0.2597  0.0699
 1041PON     CO 1041   0.807   0.975   1.402 -0.2576 -0.0693  0.0155
 1042PON     CO 1042   4.691   4.773   2.215 -0.1170 -0.1419  0.4486
 1043PON     CO 1043   0.239   0.676   4.059  0.3947 -0.0849 -0.0426
 1044PON     CO 1044   1.630   3.551   6.310 -0.1460  0.0736  0.0519
 1045PON     CO 1045   1.505   1.868   0.709  0.0266  0.2228  0.1427
 1046PON     CO 1046   1.473   6.147   5.090 -0.1135 -0.2642 -0.1690
 1047PON     CO 1047   0.687   3.835   1.543 -0.0076 -0.0427  0.2371
 1048PON     CO 1048   5.179   4.290   0.945 -0.0085 -0.0056 -0.0266
 1049PON     CO 1049   0.260   3.398   4.140  0.1143 -0.0751 -0.1115
 1050PON     CO 1050   2.925   5.925   1.121 -0.0943  0.2375  0.1983
 1051PON     CO 1051   5.208   5.451   0.339  0.0824 -0.2016 -0.2421
 1052PON     CO 1052   1.659   2.821   2.856 -0.2007  0.2140  0.1891
 1053PON     CO 1053   4.342   5.406   2.376 -0.0775 -0.4305 -0.1065
 1054PON     CO 1054   1.770   2.380   4.133 -0.0170  0.0975  0.4279
 1055PON     CO 1055   1.864   0.326   4.377 -0.2694 -0.2619  0.1773
 1056PON     CO 1056   2.507   6.037   1.342  0.1306  0.3301  0.1349
 1057PON     CO 1057   3.697   5.626   2.975 -0.0723 -0.0783 -0.2488
 1058PON     CO 1058   0.494   5.225   5.430  0.2210  0.1919 -0.0817
 1059PON     CO 1059   2.954   5.507   2.810  0.1702  0.0480  0.3288
 1060PON     CO 1060   4.352   1.255   0.556  0.1502  0.2222  0.1215
 1061PON     CO 1061   2.969   0.745   0.748  0.3126 -0.2786  0.0031
 1062PON     CO 1062   3.095   2.650   0.670 -0.3098  0.2914 -0.0707
 1063PON     CO 1063   2.580   6.021   3.766  0.0565  0.0195 -0.0170
 1064PON     CO 1064   0.276   0.899   3.531  0.4049 -0.1240 -0.2227
 1065PON     CO 1065   2.666   5.279   4.421 -0.2792 -0.2857 -0.1017
 1066PON     CO 1066   4.693   3.536   1.171  0.2143 -0.0892 -0.2035
 1067PON     CO 1067   6.046   3.122   4.151 -0.0916  0.0126 -0.0807
 1068PON     CO 1068   5.076   2.220   5.476 -0.3212  0.0277  0.0441
 1069PON     CO 1069   1.764   5.297   4.595  0.1084  0.0558  0.3161
 1070PON     CO 1070   4.650   0.628   6.021  0.0162  0.3979 -0.1095
 1071PON     CO 1071   4.640   4.670   1.707 -0.0070  0.1933 -0.1838
 1072PON     CO 1072   5.104   1.351   6.466 -0.1032  0.1774 -0.2730
 1073PON     CO 1073   2.279   2.033   1.755  0.1016 -0.4975  0.1307
 1074PON     CO 1074   5.724   3.835   5.706  0.1141 -0.2471  0.1012
 1075PON     CO 1075   0.861   1.232   5.912  0.3965 -0.3510  0.0174
 1076PON     CO 1076   2.168   5.592   1.447  0.0072  0.2212 -0.3311
 1077PON     CO 1077   2.344   3.562   0.423  0.0505 -0.1526 -0.1455
 1078PON     CO 1078   2.631   1.849   3.078  0.0605  0.0975  0.0385
 1079PON     CO 1079   0.695   5.195   3.577  0.0279 -0.1247 -0.2212
 1080PON     CO 1080   4.445   2.825   3.051  0.1391  0.0530  0.0658
 1081PON     CO 1081   0.390   1.266   5.995  0.2924 -0.0908  0.0697
 1082PON     CO 1082   6.183   5.296   6.373 -0.0520  0.0498 -0.2563
 1083PON     CO 1083   0.802   0.501   2.365 -0.0599 -0.0319  0.1730
 1084PON     CO 1084   2.690   1.432   2.651  0.0111 -0.1033  0.3075
 1085PON     CO 1085   3.378   5.313   3.097 -0.0537  0.1082  0.1119
 1086PON     CO 1086   3.907   5.940   6.069  0.0339  0.1387 -0.2612
 1087PON     CO 1087   2.988   0.397   5.515 -0.1908  0.0647  0.1682
 1088PON     CO 1088   6.379   3.465   5.081 -0.3151 -0.1178 -0.0583
 1089PON     CO 1089   5.264   6.402   2.791  0.3038 -0.4276  0.0192
 1090PON     CO 1090   3.563   1.462   2.722 -0.1317  0.3147 -0.2124
 1091PON     CO 1091   3.288   2.102   3.163 -0.1333 -0.0852 -0.0365
 1092PON     CO 1092   2.733   4.450   3.866  0.2035 -0.0138  0.1400
 1093PON     CO 1093   0.792   4.287   5.374  0.2151  0.0042  0.2918
 1094PON     CO 1094   3.696   6.375   5.948  0.0018  0.0307 -0.0448
 1095PON     CO 1095   3.237   3.599   0.587  0.0479 -0.4740 -0.2768
 1096PON     CO 1096   0.287   3.166   0.023  0.2060  0.0911  0.1737
 1097PON     CO 1097   5.588   0.915   6.435  0.1978  0.1018 -0.1978
 1098PON     CO 1098   4.400   2.662   0.300 -0.0446 -0.0551 -0.0765
 1099PON     CO 1099   4.390   1.175   2.642  0.1332  0.1416  0.3951
 1100PON     CO 1100   4.489   0.627   6.459  0.0660  0.1934  0.2630
 1101PON     CO 1101   2.917   3.750   6.521  0.2468 -0.0453  0.0078
 1102PON     CO 1102   6.080   6.320   6.120 -0.1434 -0.1796 -0.1026
 1103PON     CO 1103   4.599   0.625   2.548 -0.0593  0.0989  0.0624
 1104PON     CO 1104   4.920   3.287   1.687  0.2003 -0.2913  0.1939
 1105PON     CO 1105   0.605   6.051   2.512 -0.1565  0.0323 -0.0453
 1106PON     CO 1106   1.637   2.952   4.235 -0.1428  0.1310 -0.0765
 1107PON     CO 1107   1.816   2.674   2.403 -0.0375  0.2235 -0.0220
 1108PON     CO 1108   5.023   0.397   5.487  0.3495 -0.0798  0.0254
 1109PON     CO 1109   1.596   6.410   4.372  0.3453  0.2569  0.0253
 1110PON     CO 1110   1.446   1.301   5.678  0.2250 -0.0905 -0.3118
 1111PON     CO 1111   4.309   6.321   5.842  0.4794  0.2601  0.1715
 1112PON     CO 1112   0.269   2.862   2.713 -0.0563  0.2711 -0.3071
 1113PON     CO 1113   6.189   3.623   0.912 -0.0982  0.0383  0.0580
 1114PON     CO 1114   1.230   1.412   6.125  0.0549  0.2719 -0.0222
 1115PON     CO 1115   6.449   2.612   0.919 -0.1893  0.1491 -0.1483
 1116PON     CO 1116   1.368   1.879   4.911  0.3058  0.0608  0.1148
 1117PON     CO 1117   4.348   3.400   2.688 -0.0534  0.1409 -0.0540
 1118PON     CO 1118   1.014   3.571   5.788  0.3005  0.0791 -0.3406
 1119PON     CO 1119   1.993   2.233   4.637  0.0766 -0.1534 -0.1137
 1120PON     CO 1120   4.114   5.021   5.240 -0.2533  0.1658  0.1145
 1121PON     CO 1121   1.642   0.076   2.660  0.0019  0.1331  0.2957
 1122PON     CO 1122   4.556   4.875   5.019  0.2211 -0.0085  0.0206
 1123PON     CO 1123   4.229   1.380   4.849 -0.1289  0.3731 -0.1372
 1124PON     CO 1124   5.976   5.754   2.591  0.1604 -0.2595  0.2768
 1125PON     CO 1125   3.994   0.693   6.182 -0.0916 -0.1304 -0.0547
 1126PON     CO 1126   3.838   3.169   2.612 -0.2700 -0.1572  0.1205
 1127PON     CO 1127   4.221   4.425   1.328 -0.3840  0.0585 -0.0538
 1128PON     CO 1128   0.893   4.607   4.252  0.0969 -0.0180 -0.1937
 1129PON     CO 1129   3.372   0.121   5.726 -0.1726  0.1076  0.0629
 1130PON     CO 1130   5.266   1.857   0.786 -0.1466 -0.2281  0.4104
 1131PON     CO 1131   0.647   4.376   0.899 -0.1807  0.1104 -0.0358
 1132PON     CO 1132   1.618   1.704   2.853 -0.1895  0.0999 -0.0543
 1133PON     CO 1133   5.254   0.343   3.607 -0.2586 -0.0692 -0.2106
 1134PON     CO 1134   2.953   4.375   5.979  0.3582 -0.2798 -0.1289
 1135PON     CO 1135   0.247   3.698   5.569 -0.2941 -0.1113  0.1584
 1136PON     CO 1136   1.682   5.703   0.449 -0.0413 -0.0826 -0.0343
 1137PON     CO 1137   5.058   2.527   1.044 -0.0662 -0.0903 -0.3333
 1138PON     CO 1138   6.062   1.166   1.302  0.0346 -0.0491  0.1662
 1139PON     CO 1139   5.347   3.780   4.563 -0.3037  0.0735  0.1120
 1140PON     CO 1140   4.938   4.389   2.876  0.1163  0.2042  0.1615
 1141PON     CO 1141   2.200   5.295   4.971  0.0168  0.1230 -0.3235
 1142PON     CO 1142   2.418   0.550   0.975  0.0267  0.1117 -0.0071
 1143PON     CO 1143   3.491   4.670   5.081 -0.0011 -0.0840 -0.0169
 1144PON     CO 1144   2.244   2.157   5.147 -0.1719  0.3430  0.3412
 1145PON     CO 1145   3.323   5.494   2.429  0.0414  0.0009 -0.0702
 1146PON     CO 1146   4.747   5.657   4.634  0.4089 -0.1144  0.1028
 1147PON     CO 1147   3.408   5.807   1.987 -0.0336 -0.0528 -0.0825
 1148PON     CO 1148   3.929   2.330   2.979 -0.1877 -0.0649  0.3997
 1149PON     CO 1149   5.054   0.495   2.761  0.4581 -0.1414 -0.2014
 1150PON     CO 1150   0.769   1.978   4.154  0.3670 -0.0619  0.1225
 1151PON     CO 1151   5.997   6.482   1.906 -0.0687  0.1753  0.0595
 1152PON     CO 1152   5.426   5.647   5.936  0.1773  0.0813 -0.5246
 1153PON     CO 1153   4.657   6.118   4.762 -0.0017 -0.2067 -0.1215
 1154PON     CO 1154   0.747   1.380   1.722  0.0104  0.1920 -0.1836
 1155PON     CO 1155   2.058   5.776   4.673  0.1642 -0.1275  0.3948
 1156PON     CO 1156   6.286   3.269   6.477  0.0466  0.1185 -0.1186
 1157PON     CO 1157   4.618   5.772   2.694 -0.0425  0.0747 -0.0267
 1158PON     CO 1158   1.876   1.347   3.263  0.4808  0.1278 -0.0861
 1159PON     CO 1159   3.437   4.843   6.519 -0.0551  0.0859  0.1263
 1160PON     CO 1160   1.176   2.522   4.078  0.2723  0.2263  0.0271
 1161PON     CO 1161   1.883   4.337   4.834  0.0117  0.0159  0.0769
 1162PON     CO 1162   2.349   3.279   3.020 -0.0967 -0.0476 -0.2534
 1163PON     CO 1163   1.976   5.028   1.762 -0.2444  0.0245  0.1037
 1164PON     CO 1164   2.553   3.235   6.241 -0.1255  0.0745  0.1217
 1165PON     CO 1165   1.431   0.979   0.178 -0.0099 -0.0759 -0.0876
 1166PON     CO 1166   1.223   4.306   3.892  0.0817 -0.0863  0.3761
 1167PON     CO 1167   5.202   2.140   6.070 -0.1406  0.0663  0.0355
 1168PON     CO 1168   0.726   3.977   4.881  0.0509  0.0587 -0.2036
 1169PON     CO 1169   3.540   2.394   3.893 -0.2047 -0.4900  0.1091
 1170PON     CO 1170   5.896   5.204   5.311  0.0537  0.1157  0.0371
 1171PON     CO 1171   4.218   1.278   2.162  0.2026  0.0983 -0.0035
 1172PON     CO 1172   0.728   5.821   1.096 -0.1809 -0.0434  0.1907
 1173PON     CO 1173   5.952   6.188   3.476 -0.0333 -0.3420 -0.1761
 1174PON     CO 1174   0.888   2.991   1.006 -0.1175  0.0210 -0.1433
 1175PON     CO 1175   4.690   5.451   5.130  0.1474  0.0062 -0.2919
 1176PON     CO 1176   2.097   2.952   6.050  0.2000 -0.0141  0.1590
 1177PON     CO 1177   1.515   3.239   0.653  0.0470  0.2728 -0.1652
 1178PON     CO 1178   1.215   6.357   6.303 -0.3096 -0.1770  0.0971
 1179PON     CO 1179   1.212   3.111   2.186 -0.3082 -0.3570  0.0661
 1180PON     CO 1180   1.155   6.113   0.263 -0.2539 -0.0279  0.1108
 1181PON     CO 1181   0.891   2.998   2.566  0.1995  0.0382  0.2985
 1182PON     CO 1182   4.627   3.629   0.664  0.2761  0.2398  0.0518
 1183PON     CO 1183   5.231   2.683   4.126  0.1181  0.5102 -0.0052
 1184PON     CO 1184   4.452   2.302   2.939  0.0872  0.1702 -0.0675
 1185PON     CO 1185   0.768   4.273   2.958 -0.0147  0.0719 -0.0353
 1186PON     CO 1186   5.119   4.611   4.915 -0.1163  0.1289  0.3697
 1187PON     CO 1187   5.667   0.418   6.407  0.0656 -0.1210 -0.0982
 1188PON     CO 1188   1.637   4.935   5.534 -0.0614  0.3959 -0.0292
 1189PON     CO 1189   2.671   5.779   2.359 -0.0668  0.2583 -0.0982
 1190PON     CO 1190   3.781   0.954   5.827 -0.1423  0.2382 -0.2141
 1191PON     CO 1191   1.750   4.593   1.618  0.2908  0.0478 -0.0372
 1192PON     CO 1192   2.596   5.986   5.803  0.0836 -0.0654 -0.1353
 1193PON     CO 1193   2.782   3.812   5.574  0.0982 -0.0154  0.1239
 1194PON     CO 1194   5.469   6.250   5.930 -0.0902  0.4208 -0.0003
 1195PON     CO 1195   0.963   1.199   5.413 -0.1445  0.0659 -0.3849
 1196PON     CO 1196   5.356   3.695   3.373  0.2835  0.3126  0.0858
 1197PON     CO 1197   0.437   2.221   2.164 -0.0292 -0.2007 -0.0280
 1198PON     CO 1198   6.005   1.864   5.453 -0.2396  0.1569 -0.1735
 1199PON     CO 1199   4.185   4.871   2.279  0.0237 -0.0889  0.0385
 1200PON     CO 1200   5.663   5.469   0.488  0.0836 -0.1203  0.2034
 1201PON     CO 1201   3.085   3.345   3.045  0.0544  0.1625 -0.1359
 1202PON     CO 1202   6.075   2.114   1.044 -0.0463  0.2764 -0.2616
 1203PON     CO 1203   1.435   1.578   5.269 -0.0039 -0.0099  0.1091
 1204PON     CO 1204   2.420   6.209   2.592  0.1192  0.2099  0.2016
 1205PON     CO 1205   2.728   4.004   4.044  0.1220  0.2740  0.2503
 1206PON     CO 1206   1.857   6.276   4.799  0.1031  0.4992  0.2338
 1207PON     CO 1207   3.023   6.279   3.427  0.2345 -0.0756  0.0310
 1208PON     CO 1208   3.512   5.169   4.024  0.0044 -0.0431 -0.0012
 1209PON     CO 1209   3.049   0.460   3.992  0.3235 -0.0699 -0.3340
 1210PON     CO 1210   5.953   4.454   2.755  0.0086 -0.0239 -0.2095
 1211PON     CO 1211   3.981   5.420   3.973  0.3025 -0.0478 -0.0023
 1212PON     CO 1212   2.711   0.791   1.800  0.1189  0.2160  0.3157
 1213PON     CO 1213   0.859   5.745   0.507 -0.0064  0.1175  0.0426
 1214PON     CO 1214   4.200   3.778   6.407  0.1058 -0.0788  0.0154
 1215PON     CO 1215   1.957   4.306   3.467  0.2069 -0.1378  0.1665
 1216PON     CO 1216   2.668   3.735   3.177  0.1275  0.1518 -0.1977
 1217PON     CO 1217   1.503   3.666   2.597 -0.1824  0.1801 -0.0560
 1218PON     CO 1218   0.262   0.475   0.327  0.1025 -0.0097  0.0155
 1219PON     CO 1219   4.393   2.376   1.738  0.0291 -0.0610  0.0254
 1220PON     CO 1220   1.708   1.852   4.589 -0.0497  0.1599  0.0796
 1221PON     CO 1221   5.367   1.816   5.700  0.1953 -0.0391  0.2724
 1222PON     CO 1222   0.823   4.422   1.883 -0.2654 -0.1327  0.0169
 1223PON     CO 1223   0.855   0.278   4.863  0.1102  0.0550  0.1483
 1224PON     CO 1224   5.140   5.896   2.687 -0.2307 -0.0428  0.2055
 1225PON     CO 1225   4.358   5.758   5.874  0.1189 -0.0619  0.0188
 1226PON     CO 1226   3.038   2.788   2.327 -0.1086 -0.0959  0.0422
 1227PON     CO 1227   0.844   3.998   3.741 -0.1020  0.1375  0.0797
 1228PON     CO 1228   6.176   3.782   2.317  0.0789 -0.2988 -0.0068
 1229PON     CO 1229   0.475   1.905   5.120 -0.3432  0.1060 -0.1626
 1230PON     CO 1230   1.209   2.741   3.574 -0.0435 -0.0355  0.0390
 1231PON     CO 1231   1.500   1.959   0.196 -0.0374  0.3440 -0.0220
 1232PON     CO 1232   1.903   1.068   5.293 -0.2345 -0.0697  0.0381
 1233PON     CO 1233   5.147   5.278   5.034  0.0266  0.2903 -0.0046
 1234PON     CO 1234   1.327   1.309   2.494  0.2628  0.0050  0.1266
 1235PON     CO 1235   3.545   3.461   2.264  0.0299 -0.3025 -0.0667
 1236PON     CO 1236   0.439   5.840   6.083  0.0122  0.0778 -0.0533
 1237PON     CO 1237   5.890   3.641   3.238 -0.4605 -0.1615  0.3494
 1238PON     CO 1238   5.008   3.806   4.187  0.0257 -0.1194  0.0468
 1239PON     CO 1239   2.731   4.029   1.876  0.0915  0.2852  0.1437
 1240PON     CO 1240   2.486   5.788   2.857  0.0577 -0.0656 -0.1032
 1241PON     CO 1241   2.699   0.716   0.259  0.1866 -0.1266  0.1054
 1242PON     CO 1242   0.852   0.750   4.790  0.1553 -0.0579 -0.1755
 1243PON     CO 1243   0.406   3.196   0.685 -0.4185  0.0882 -0.0425
 1244PON     CO 1244   5.569   3.022   5.879 -0.1256 -0.0780 -0.2000
 1245PON     CO 1245   4.337   6.288   2.969  0.2859 -0.1110  0.0410
 1246PON     CO 1246   2.438   3.218   3.785 -0.2587 -0.0729  0.1825
 1247PON     CO 1247   1.525   0.254   2.165 -0.1539  0.0674 -0.0155
 1248PON     CO 1248   5.820   4.972   2.649 -0.0647  0.1021  0.0079
 1249PON     CO 1249   5.098   0.904   5.155 -0.2638 -0.0033  0.0048
 1250PON     CO 1250   3.668   0.827   1.430  0.2903  0.0724  0.1326
 1251PON     CO 1251   3.157   4.486   4.168  0.0788 -0.1584  0.1832
 1252PON     CO 1252   1.547   2.396   3.261  0.1429  0.0818  0.0700
 1253PON     CO 1253   1.084   6.281   0.710 -0.1814 -0.0333  0.0726
 1254PON     CO 1254   0.705   4.318   6.338  0.2328  0.1432  0.0467
 1255PON     CO 1255   3.507   0.547   3.990 -0.0324 -0.2460 -0.1422
 1256PON     CO 1256   3.816   5.996   4.617  0.1173  0.0893 -0.3173
 1257PON     CO 1257   1.500   2.187   6.032 -0.2483 -0.0054 -0.2294
 1258PON     CO 1258   1.259   5.635   0.169 -0.1497  0.3365 -0.1227
 1259PON     CO 1259   2.046   3.581   6.019 -0.1265  0.2580 -0.0648
 1260PON     CO 1260   5.078   4.464   1.920 -0.3633  0.0305 -0.2630
 1261PON     CO 1261   4.112   5.042   0.702 -0.1100  0.0163 -0.0755
 1262PON     CO 1262   3.131   6.091   1.563 -0.0572  0.0654  0.0658
 1263PON     CO 1263   2.248   4.605   5.823  0.1071 -0.0112 -0.0379
 1264PON     CO 1264   4.611   0.683   5.496  0.0655 -0.1656 -0.0031
 1265PON     CO 1265   3.253   2.363   2.387 -0.1377  0.2013 -0.3107
 1266PON     CO 1266   0.675   2.944   6.319  0.0823  0.1191 -0.1536
 1267PON     CO 1267   3.432   3.052   6.388 -0.0211 -0.0482 -0.3197
 1268PON     CO 1268   6.420   5.775   2.492  0.1059  0.0513  0.2187
 1269PON     CO 1269   4.616   4.151   1.677  0.1007  0.0570 -0.1153
 1270PON     CO 1270   4.162   4.403   0.430  0.1465  0.1227 -0.1736
 1271PON     CO 1271   3.531   3.923   1.278  0.1133 -0.1577 -0.1076
 1272PON     CO 1272   4.895   5.817   2.263 -0.1743 -0.3773  0.1180
 1273PON     CO 1273   3.476   5.656   3.887 -0.3276 -0.0202  0.0701
 1274PON     CO 1274   6.348   3.866   4.805 -0.2306 -0.2134 -0.2052
 1275PON     CO 1275   4.532   0.967   0.910  0.4194 -0.3072 -0.0835
 1276PON     CO 1276   2.451   1.013   5.993 -0.1807  0.4187 -0.0778
 1277PON     CO 1277   3.828   2.401   6.165  0.2770 -0.3434 -0.1486
 1278PON     CO 1278   1.163   0.095   0.303 -0.4257 -0.0243  0.1584
 1279PON     CO 1279   5.290   5.998   0.451 -0.0090 -0.2769  0.0191
 1280PON     CO 1280   5.049   2.090   3.139  0.0313  0.0283 -0.1677
 1281PON     CO 1281   2.352   4.877   2.061  0.1045  0.2208 -0.1548
 1282PON     CO 1282   0.032   5.830   0.870 -0.1805 -0.1043 -0.3725
 1283PON     CO 1283   3.888   6.282   2.614  0.2099 -0.3378 -0.0216
 1284PON     CO 1284   6.394   0.784   4.778 -0.1747  0.0658 -0.0436
 1285PON     CO 1285   3.546   3.588   2.866  0.1526 -0.3049  0.0316
 1286PON     CO 1286   4.181   2.388   0.741 -0.3787 -0.0627 -0.4557
 1287PON     CO 1287   0.039   6.096   5.159 -0.1353  0.0784  0.0642
 1288PON     CO 1288   6.319   2.846   3.216 -0.1412  0.1420  0.0693
 1289PON     CO 1289   6.517   2.176   1.273 -0.2867 -0.4371 -0.0545
 1290PON     CO 1290   2.504   6.394   6.191 -0.1684 -0.2462  0.2759
 1291PON     CO 1291   1.469   4.523   5.727  0.2964 -0.0704 -0.1821
 1292PON     CO 1292   2.422   1.772   1.301 -0.1542 -0.1119 -0.1572
 1293PON     CO 1293   2.548   5.291   0.880 -0.1736  0.0183  0.1562
 1294PON     CO 1294   0.183   5.569   5.188  0.0218 -0.1612 -0.1794
 1295PON     CO 1295   6.005   1.379   2.548 -0.3227 -0.0526 -0.0351
 1296PON     CO 1296   3.201   0.802   2.067  0.1677 -0.2617 -0.1361
 1297PON     CO 1297   0.125   4.963   6.190  0.1316  0.1214  0.0488
 1298PON     CO 1298   3.124   0.032   4.600 -0.0051 -0.1032 -0.3991
 1299PON     CO 1299   1.261   3.524   0.135  0.2055  0.2325  0.0848
 1300PON     CO 1300   3.429   2.858   4.666  0.1105  0.1449  0.1539
 1301PON     CO 1301   0.768   3.285   4.170  0.0501 -0.1638 -0.1764
 1302PON     CO 1302   4.474   5.239   1.007  0.1571  0.0706 -0.0775
 1303PON     CO 1303   6.202   2.344   2.569 -0.0122  0.3173  0.2116
 1304PON     CO 1304   0.499   0.303   4.040  0.2971 -0.2821 -0.0489
 1305PON     CO 1305   6.095   5.672   3.914 -0.1582  0.1134  0.0268
 1306PON     CO 1306   6.211   1.069   0.790 -0.1809 -0.2384  0.1605
 1307PON     CO 1307   0.095   4.990   0.559 -0.4347 -0.4002  0.0940
 1308PON     CO 1308   1.935   0.757   0.850  0.1043  0.0181  0.2116
 1309PON     CO 1309   4.615   0.672   0.417 -0.1042 -0.0603  0.0279
 1310PON     CO 1310   2.097   0.156   5.472 -0.1895  0.3291  0.2141
 1311PON     CO 1311   6.014   0.987   1.790  0.0963  0.0055  0.1750
 1312PON     CO 1312   1.082   0.880   4.267 -0.3032 -0.3525 -0.0774
 1313PON     CO 1313   4.933   6.289   0.701  0.1303 -0.1226 -0.0482
 1314PON     CO 1314   3.669   4.940   2.490  0.1976 -0.0252 -0.2832
 1315PON     CO 1315   2.046   1.375   1.289 -0.0363 -0.2134 -0.0949
 1316PON     CO 1316   1.287   5.054   1.028 -0.5096  0.1257  0.0159
 1317PON     CO 1317   0.325   4.891   1.014 -0.2719 -0.0041  0.0084
 1318PON     CO 1318   0.055   1.588   4.229  0.0447  0.2088 -0.0750
 1319PON     CO 1319   2.687   4.669   2.397  0.2747 -0.1175  0.0859
 1320PON     CO 1320   6.019   0.692   2.481 -0.0926  0.2338  0.0628
 1321PON     CO 1321   4.726   1.702   3.356 -0.0224 -0.2572  0.0544
 1322PON     CO 1322   5.936   0.895   0.329 -0.3035 -0.2683 -0.2907
 1323PON     CO 1323   5.889   5.293   3.220  0.1539 -0.0587 -0.1223
 1324PON     CO 1324   4.619   3.396   3.134  0.0396  0.2003 -0.0759
 1325PON     CO 1325   6.180   1.025   2.873  0.2124  0.2042 -0.4797
 1326PON     CO 1326   3.283   5.556   5.324  0.4084 -0.2437 -0.0744
 1327PON     CO 1327   1.589   4.564   3.725  0.1788  0.1028  0.4909
 1328PON     CO 1328   3.394   0.132   3.489  0.1847 -0.0057 -0.1870
 1329PON     CO 1329   3.267   4.359   2.078  0.0581 -0.4002 -0.1885
 1330PON     CO 1330   4.865   0.719   4.582 -0.2334 -0.0597  0.1381
 1331PON     CO 1331   2.467   4.580   6.297  0.3152 -0.0793 -0.3820
 1332PON     CO 1332   5.672   1.175   5.981  0.0082 -0.0838  0.1276
 1333PON     CO 1333   2.956   1.778   0.895  0.0194  0.0097 -0.0850
 1334PON     CO 1334   2.960   4.218   4.614 -0.1495  0.0646 -0.1187
 1335PON     CO 1335   3.951   4.467   3.209 -0.0674  0.0642  0.1437
 1336PON     CO 1336   5.499   6.361   1.715 -0.2367 -0.0343 -0.0895
 1337PON     CO 1337   3.420   3.020   1.535 -0.0080  0.1528 -0.1639
 1338PON     CO 1338   5.566   2.372   1.080  0.0030 -0.1202 -0.0855
 1339PON     CO 1339   4.723   3.074   0.819 -0.1060 -0.1199 -0.2440
 1340PON     CO 1340   4.376   6.201   3.962  0.1690  0.0672 -0.1304
 1341PON     CO 1341   6.402   1.495   5.501  0.0431 -0.0000 -0.1666
 1342PON     CO 1342   4.071   5.382   4.884 -0.0365 -0.1137 -0.0832
 1343PON     CO 1343   4.256   2.292   4.620 -0.0980  0.2276 -0.3277
 1344PON     CO 1344   1.744   5.019   4.058  0.1047  0.2143  0.1787
 1345PON     CO 1345   3.294   2.033   3.668  0.1831  0.0322 -0.2381
 1346PON     CO 1346   6.053   5.733   5.327 -0.4315  0.1481  0.0739
 1347PON     CO 1347   0.485   5.275   6.270  0.2265 -0.0917  0.0466
 1348PON     CO 1348   0.159   5.870   2.973 -0.1652  0.2700  0.0246
 1349PON     CO 1349   6.237   5.937   2.018  0.0097 -0.2676  0.0045
 1350PON     CO 1350   5.879   5.577   2.168  0.1189  0.0737  0.1597
 1351PON     CO 1351   0.059   1.607   5.019 -0.0055  0.0086  0.0459
 1352PON     CO 1352   0.494   1.002   5.552 -0.0499 -0.1893  0.2331
 1353PON     CO 1353   5.566   2.624   0.214 -0.1779  0.1982  0.1312
 1354PON     CO 1354   5.243   1.916   1.749 -0.2460  0.1223  0.1638
 1355PON     CO 1355   1.755   0.179   3.134  0.0287 -0.3261  0.0483
 1356PON     CO 1356   0.315   0.626   4.527  0.0438  0.0268 -0.1265
 1357PON     CO 1357   0.334   0.725   5.077  0.0179 -0.2007  0.1337
 1358PON     CO 1358   3.108   4.176   1.452  0.2388 -0.0398  0.0089
 1359PON     CO 1359   2.033   4.923   2.854  0.1605 -0.1170  0.3797
 1360PON     CO 1360   3.607   0.312   1.373  0.1501 -0.2908  0.3166
 1361PON     CO 1361   1.898   5.013   2.278 -0.2072  0.1566 -0.0466
 1362PON     CO 1362   3.193   4.476   5.511  0.1306 -0.2356 -0.2685
 1363PON     CO 1363   1.460   5.541   5.364 -0.3346  0.1036  0.2124
 1364PON     CO 1364   0.831   2.452   4.443 -0.1623  0.0050  0.2762
 1365PON     CO 1365   0.187   5.398   1.401  0.0245  0.3994 -0.5302
 1366PON     CO 1366   0.988   0.134   3.171 -0.1335 -0.0376  0.0793
 1367PON     CO 1367   3.364   0.969   6.093  0.2117  0.1379 -0.0412
 1368PON     CO 1368   4.389   1.732   4.508 -0.0358 -0.0179  0.2294
 1369PON     CO 1369   5.606   0.072   2.204  0.1184  0.0837  0.1550
 1370PON     CO 1370   1.605   3.090   5.942 -0.1879 -0.0849  0.0722
 1371PON     CO 1371   4.094   3.686   1.348 -0.1332 -0.2865 -0.3035
 1372PON     CO 1372   1.207   0.564   6.097  0.1745  0.1502  0.1198
 1373PON     CO 1373   3.168   3.239   2.547 -0.0846 -0.3840  0.0660
 1374PON     CO 1374   5.623   1.161   4.046 -0.2700 -0.0871 -0.1349
 1375PON     CO 1375   3.767   1.562   1.821  0.1382 -0.0380 -0.2957
 1376PON     CO 1376   2.015   6.419   2.292  0.1763  0.0861 -0.3036
 1377PON     CO 1377   3.448   4.688   3.028  0.0125  0.0332 -0.0261
 1378PON     CO 1378   5.490   4.637   3.840  0.6497 -0.0493 -0.1370
 1379PON     CO 1379   2.722   2.306   0.510 -0.1509  0.2157  0.0917
 1380PON     CO 1380   4.783   4.004   0.905 -0.1645  0.1494 -0.2565
 1381PON     CO 1381   0.024   3.213   5.563 -0.5987 -0.3887  0.0010
 1382PON     CO 1382   3.053   1.723   4.038  0.2463  0.0894 -0.1304
 1383PON     CO 1383   5.893   2.715   2.357  0.0212 -0.3533 -0.0148
 1384PON     CO 1384   5.529   5.261   1.653 -0.3286  0.0273  0.0606
 1385PON     CO 1385   0.699   6.433   3.855 -0.1286  0.1208  0.2471
 1386PON     CO 1386   5.820   2.163   4.284 -0.0732  0.0623  0.1312
 1387PON     CO 1387   0.430   3.832   2.738  0.1345 -0.0192 -0.1527
 1388PON     CO 1388   2.023   6.048   3.751  0.0136 -0.1251 -0.3479
 1389PON     CO 1389   0.997   0.593   3.282  0.4243  0.1816 -0.2223
 1390PON     CO 1390   3.208   3.184   2.032 -0.2271 -0.0395  0.0311
 1391PON     CO 1391   0.776   3.148   3.057 -0.2639  0.0063  0.0706
 1392PON     CO 1392   4.787   1.143   0.296  0.0197 -0.0291  0.1898
 1393PON     CO 1393   2.487   2.131   3.494 -0.3088  0.0938 -0.0345
 1394PON     CO 1394   3.502   2.198   4.526  0.2980 -0.0490 -0.0765
 1395PON     CO 1395   1.685   5.637   1.264  0.2029 -0.0157  0.0343
 1396PON     CO 1396   2.231   3.259   2.315 -0.1246  0.0199  0.3945
 1397PON     CO 1397   4.368   1.376   4.160 -0.0740 -0.1637 -0.2086
 1398PON     CO 1398   6.046   5.062   0.315  0.0408  0.3338  0.1498
 1399PON     CO 1399   3.150   5.904   5.838  0.0414 -0.3533  0.0038
 1400PON     CO 1400   2.066   2.951   3.265 -0.1225  0.1967  0.1007
 1401PON     CO 1401   3.201   2.112   6.150  0.1540 -0.0263  0.1968
 1402PON     CO 1402   3.608   1.411   6.021  0.2458  0.1060  0.0934
 1403PON     CO 1403   2.711   3.504   2.754  0.1543 -0.0192  0.0168
 1404PON     CO 1404   0.542   1.571   3.512 -0.1493 -0.0809 -0.2047
 1405PON     CO 1405   2.411   4.062   0.390 -0.2236  0.0845 -0.0264
 1406PON     CO 1406   0.487   2.251   6.224 -0.1793  0.0095 -0.0442
 1407PON     CO 1407   1.728   3.690   3.415 -0.1815  0.3510 -0.0626
 1408PON     CO 1408   4.610   3.788   2.393 -0.1203 -0.2020 -0.0988
 1409PON     CO 1409   3.065   5.936   3.786  0.0122  0.1603  0.0471
 1410PON     CO 1410   2.018   0.828   1.377 -0.2690 -0.0148 -0.0817
 1411PON     CO 1411   3.357   3.508   1.605 -0.2091  0.0228  0.2516
 1412PON     CO 1412   3.964   2.813   3.287  0.1871  0.1839  0.0385
 1413PON     CO 1413   5.402   5.998   6.342 -0.1096 -0.2395  0.2509
 1414PON     CO 1414   0.656   1.976   0.105 -0.0387  0.1031 -0.2902
 1415PON     CO 1415   5.832   4.653   4.634 -0.2591 -0.0497 -0.0190
 1416PON     CO 1416   6.345   4.302   4.556 -0.0949  0.1935  0.1972
 1417PON     CO 1417   2.233   3.686   1.211 -0.0128  0.0944  0.0555
 1418PON     CO 1418   4.820   6.288   2.598 -0.1526 -0.0180 -0.1826
 1419PON     CO 1419   0.227   2.970   1.639 -0.0557  0.4058 -0.0668
 1420PON     CO 1420   1.369   0.266   3.940 -0.1513  0.2498  0.0591
 1421PON     CO 1421   3.175   5.281   1.681 -0.3562  0.0993  0.3713
 1422PON     CO 1422   3.400   6.226   3.139 -0.2072 -0.3219 -0.1710
 1423PON     CO 1423   2.543   0.595   6.301  0.1176 -0.2520 -0.0190
 1424PON     CO 1424   2.868   0.049   5.047 -0.0707 -0.0316 -0.2133
 1425PON     CO 1425   4.536   0.855   1.464 -0.0790  0.3256  0.0523
 1426PON     CO 1426   1.056   4.309   3.377 -0.2803  0.1478  0.0213
 1427PON     CO 1427   4.214   1.969   1.485  0.1714 -0.0552 -0.2176
 1428PON     CO 1428   5.495   4.337   4.763 -0.0156 -0.2263 -0.2735
 1429PON     CO 1429   6.359   3.602   3.440  0.4561  0.0091  0.2341
 1430PON     CO 1430   4.144   3.768   3.310  0.1565  0.0160 -0.1804
 1431PON     CO 1431   6.437   1.312   3.660 -0.1615 -0.0298 -0.1345
 1432PON     CO 1432   4.511   0.410   1.124  0.1559 -0.1686 -0.1074
 1433PON     CO 1433   4.072   1.331   2.983 -0.0009  0.2084  0.0426
 1434PON     CO 1434   4.962   5.937   0.030  0.0211 -0.0880 -0.2588
 1435PON     CO 1435   0.848   3.339   0.011  0.1447 -0.1066  0.0151
 1436PON     CO 1436   0.719   4.784   6.162 -0.1291 -0.4459 -0.1221
 1437PON     CO 1437   2.941   6.024   5.051  0.2028 -0.3674 -0.0033
 1438PON     CO 1438   5.289   3.220   3.856 -0.1415  0.4714 -0.0307
 1439PON     CO 1439   0.233   4.486   6.307 -0.2242 -0.0420 -0.1873
 1440PON     CO 1440   1.497   3.651   5.783  0.1407 -0.1020 -0.0246
 1441PON     CO 1441   3.747   4.413   1.488  0.0389  0.0485 -0.1548
 1442PON     CO 1442   1.845   4.894   3.373  0.1233 -0.1775  0.2176
 1443PON     CO 1443   5.749   1.352   6.506 -0.3791  0.0766 -0.0953
 1444PON     CO 1444   0.269   4.662   2.386 -0.0802  0.1941  0.0448
 1445PON     CO 1445   1.061   3.672   4.088  0.1673  0.0457  0.1916
 1446PON     CO 1446   2.317   5.832   4.178  0.0614  0.3099 -0.0740
 1447PON     CO 1447   1.909   1.397   4.488 -0.0292 -0.0849  0.1123
 1448PON     CO 1448   6.469   0.324   1.018  0.0230  0.1131  0.0416
 1449PON     CO 1449   0.384   3.599   5.079 -0.2161 -0.0001  0.1410
 1450PON     CO 1450   2.873   6.382   2.623 -0.0093 -0.1314 -0.1449
 1451PON     CO 1451   2.411   5.208   1.629  0.2426  0.2563 -0.0492
 1452PON     CO 1452   0.117   3.589   0.822  0.0544 -0.2272 -0.0005
 1453PON     CO 1453   3.754   3.825   6.171  0.1293 -0.0548 -0.2272
 1454PON     CO 1454   0.946   5.703   4.497  0.1683  0.0235  0.1299
 1455PON     CO 1455   1.217   6.262   1.148  0.1323  0.0459  0.1199
 1456PON     CO 1456   2.409   1.137   0.999 -0.2344  0.2661  0.0307
 1457PON     CO 1457   5.907   5.941   5.776  0.3726  0.0172  0.1180
 1458PON     CO 1458   2.855   5.493   5.000 -0.3337 -0.1130  0.1692
 1459PON     CO 1459   2.424   4.094   5.975 -0.0670  0.0985  0.2136
 1460PON     CO 1460   6.001   4.286   2.098 -0.2187  0.2492  0.1140
 1461PON     CO 1461   6.092   1.353   4.093  0.1391 -0.4322 -0.1119
 1462PON     CO 1462   4.128   6.288   0.355 -0.3520 -0.0322  0.0634
 1463PON     CO 1463   2.683   4.266   0.822 -0.0684  0.0334 -0.2221
 1464PON     CO 1464   4.794   0.815   3.604  0.2418 -0.1392  0.0604
 1465PON     CO 1465   5.088   6.129   4.466  0.0266  0.1953 -0.3592
 1466PON     CO 1466   3.623   6.472   3.974 -0.1437  0.0113 -0.2634
 1467PON     CO 1467   5.053   4.767   0.816 -0.0353 -0.1481 -0.1284
 1468PON     CO 1468   3.292   0.770   5.653  0.0902  0.2292 -0.0055
 1469PON     CO 1469   0.013   3.826   1.260 -0.3908 -0.5256 -0.2067
 1470PON     CO 1470   5.085   2.743   4.682  0.1151 -0.3150 -0.1131
 1471PON     CO 1471   4.240   4.197   3.593  0.2100  0.1501 -0.1477
 1472PON     CO 1472   2.854   2.997   3.832 -0.0081 -0.0483  0.0353
 1473PON     CO 1473   2.192   3.533   4.679 -0.1781 -0.0668 -0.0013
 1474PON     CO 1474   1.878   3.990   5.710  0.1949  0.3452 -0.0138
 1475PON     CO 1475   3.466   1.033   3.748  0.0948 -0.0290  0.2619
 1476PON     CO 1476   2.032   2.395   2.883 -0.0960  0.0996  0.3437
 1477PON     CO 1477   1.621   4.236   5.301  0.0473 -0.2841  0.0830
 1478PON     CO 1478   5.756   0.284   0.778 -0.0686 -0.2125  0.0141
 1479PON     CO 1479   5.356   4.247   1.459 -0.0673  0.0736  0.3061
 1480PON     CO 1480   4.912   3.069   3.413  0.0908 -0.1625  0.0457
 1481PON     CO 1481   1.161   0.167   1.805 -0.0069 -0.2801 -0.1526
 1482PON     CO 1482   2.695   0.567   4.810  0.0536 -0.0144  0.1048
 1483PON     CO 1483   2.338   1.132   6.506  0.2154 -0.1144 -0.2879
 1484PON     CO 1484   1.525   2.424   1.249  0.1125  0.2107  0.4091
 1485PON     CO 1485   4.422   0.012   2.467  0.1435 -0.1366 -0.0445
 1486PON     CO 1486   2.333   3.529   5.233  0.2715 -0.0408  0.1694
 1487PON     CO 1487   6.461   3.340   1.154 -0.0301 -0.0015 -0.1194
 1488PON     CO 1488   5.696   2.696   3.427 -0.2075  0.0664  0.1190
 1489PON     CO 1489   6.508   5.552   1.869 -0.1303  0.2372 -0.1785
 1490PON     CO 1490   3.843   3.659   1.828  0.3247 -0.1238 -0.1040
 1491PON     CO 1491   0.370   4.083   5.270  0.3959 -0.1563 -0.0200
 1492PON     CO 1492   5.557   3.995   2.983 -0.2802  0.2310 -0.2512
 1493PON     CO 1493   5.964   4.783   3.216 -0.0763  0.0527 -0.0690
 1494PON     CO 1494   0.341   1.865   3.883 -0.4089 -0.2259 -0.1780
 1495PON     CO 1495   5.965   2.447   6.498  0.1578  0.1944 -0.0058
 1496PON     CO 1496   3.638   5.133   5.296  0.3315 -0.2247 -0.4383
 1497PON     CO 1497   1.596   2.209   2.781 -0.1836 -0.2064  0.0830
 1498PON     CO 1498   5.063   5.503   1.546  0.0566  0.1199 -0.2435
 1499PON     CO 1499   6.090   0.281   6.186 -0.4017  0.3324  0.0504
 1500PON     CO 1500   2.214   4.543   0.268  0.0186  0.1655  0.1238
 1501PON     CO 1501   2.176   5.125   3.773  0.1100 -0.0543  0.2249
 1502PON     CO 1502   1.989   3.118   0.451 -0.2185 -0.0218 -0.0137
 1503PON     CO 1503   2.479   1.443   5.192 -0.4181 -0.0726 -0.1532
 1504PON     CO 1504   6.215   1.058   2.194 -0.2856 -0.2730 -0.1834
 1505PON     CO 1505   0.943   3.245   0.593  0.0635  0.0493  0.0629
 1506PON     CO 1506   1.903   4.420   4.277  0.2972  0.2473 -0.1603
 1507PON     CO 1507   2.422   1.054   3.726 -0.1210 -0.0294 -0.3716
 1508PON     CO 1508   0.484   4.832   0.094 -0.0866 -0.1733 -0.2492
 1509PON     CO 1509   0.548   5.486   1.859  0.2437  0.1372 -0.1325
 1510PON     CO 1510   0.534   3.105   4.571 -0.0934  0.0298  0.0607
 1511PON     CO 1511   5.778   0.739   1.403 -0.0493  0.0010 -0.0084
 1512PON     CO 1512   2.622   6.298   0.831  0.3415  0.1658  0.2412
 1513PON     CO 1513   1.419   0.442   3.473  0.1402  0.0995 -0.1539
 1514PON     CO 1514   1.950   1.882   2.500  0.0167  0.0618 -0.0427
 1515PON     CO 1515   2.912   4.475   5.073  0.3605 -0.2353 -0.2304
 1516PON     CO 1516   4.072   0.790   2.427  0.0901 -0.0955 -0.0863
 1517PON     CO 1517   3.807   1.974   1.020 -0.1856 -0.1818  0.0327
 1518PON     CO 1518   3.542   4.779   4.318  0.2083 -0.2244  0.5763
 1519PON     CO 1519   2.104   0.166   6.262 -0.2076  0.1694  0.0257
 1520PON     CO 1520   3.466   2.403   5.797 -0.4725  0.2243 -0.1529
 1521PON     CO 1521   0.672   5.057   2.575  0.2378 -0.0760  0.2604
 1522PON     CO 1522   1.027   5.641   3.719 -0.2422 -0.2445  0.0030
 1523PON     CO 1523   0.620   2.869   0.404  0.0543  0.0360 -0.0458
 1524PON     CO 1524   3.162   4.836   3.804 -0.1234  0.1062 -0.3855
 1525PON     CO 1525   5.559   5.923   0.861  0.2433 -0.2750 -0.1222
 1526PON     CO 1526   4.280   1.006   5.808 -0.3371 -0.2422 -0.1132
 1527PON     CO 1527   0.923   6.141   5.918  0.1731 -0.0891  0.2119
 1528PON     CO 1528   4.718   0.024   6.227  0.2459 -0.0923  0.1141
 1529PON     CO 1529   1.990   2.645   4.948  0.2024  0.1413  0.0984
 1530PON     CO 1530   3.081   0.183   2.221 -0.0117 -0.1647  0.2600
 1531PON     CO 1531   3.589   2.542   5.295  0.0918  0.4015  0.0319
 1532PON     CO 1532   4.326   1.833   0.995 -0.0963  0.1588  0.2529
 1533PON     CO 1533   3.621   2.102   5.120 -0.0676  0.2644  0.0630
 1534PON     CO 1534   4.685   2.159   1.436  0.0675  0.2403 -0.0761
 1535PON     CO 1535   5.468   2.273   3.112  0.0899 -0.1776  0.2047
 1536PON     CO 1536   0.997   4.694   0.143  0.2779 -0.0510 -0.3442
 1537PON     CO 1537   1.751   4.487   6.376 -0.1309  0.0697 -0.5704
 1538PON     CO 1538   5.118   3.150   1.264 -0.1938 -0.0248  0.0469
 1539PON     CO 1539   4.352   2.354   6.157  0.0781  0.1252  0.0683
 1540PON     CO 1540   1.365   2.555   5.305 -0.0931 -0.0212 -0.1125
 1541PON     CO 1541   3.323   1.526   0.466  0.1616 -0.1185 -0.0823
 1542PON     CO 1542   1.291   5.398   0.655  0.1405 -0.1877 -0.0028
 1543PON     CO 1543   6.292   0.521   4.402 -0.2538 -0.0138  0.0514
 1544PON     CO 1544   0.466   3.951   1.101  0.2326 -0.0236 -0.1435
 1545PON     CO 1545   5.000   4.994   0.237  0.0153 -0.2216 -0.0539
 1546PON     CO 1546   0.950   4.824   1.260  0.0902 -0.0997 -0.0256
 1547PON     CO 1547   5.832   4.185   3.791  0.2697 -0.1490 -0.0551
 1548PON     CO 1548   3.940   1.991   4.410  0.2108 -0.0893 -0.1292
 1549PON     CO 1549   2.227   0.062   3.968 -0.0696  0.0589  0.1344
 1550PON     CO 1550   1.683   5.549   2.217 -0.0179  0.1142  0.2583
 1551PON     CO 1551   6.113   1.704   1.369  0.0330  0.1536 -0.2202
 1552PON     CO 1552   1.967   1.582   5.709 -0.1395 -0.0779 -0.2713
 1553PON     CO 1553   5.051   5.623   3.076  0.1180  0.0439 -0.2870
 1554PON     CO 1554   4.333   3.151   4.552 -0.0621 -0.1359  0.0441
 1555PON     CO 1555   0.751   1.973   2.480  0.3664 -0.2051  0.0740
 1556PON     CO 1556   5.209   2.841   3.083 -0.0157  0.2332 -0.0032
 1557PON     CO 1557   5.998   6.008   2.989 -0.0559  0.2025 -0.1053
 1558PON     CO 1558   1.954   0.285   1.235  0.0366 -0.0391 -0.2090
 1559PON     CO 1559   1.304   3.802   3.082  0.0239 -0.0377  0.1188
 1560PON     CO 1560   5.959   0.349   0.225 -0.0604 -0.0397 -0.0934
 1561PON     CO 1561   6.174   0.148   3.279 -0.0456 -0.0164 -0.1858
 1562PON     CO 1562   4.025   6.379   3.529 -0.0139  0.0888  0.0315
 1563PON     CO 1563   3.319   0.038   0.062 -0.1224 -0.0261  0.1344
 1564PON     CO 1564   5.690   2.210   2.573 -0.1276 -0.6360 -0.1007
 1565PON     CO 1565   5.443   2.657   2.171 -0.1193 -0.3596  0.2361
 1566PON     CO 1566   0.981   6.266   4.737  0.0393 -0.0466 -0.1590
 1567PON     CO 1567   5.495   1.653   2.118 -0.2269 -0.0307 -0.0953
 1568PON     CO 1568   3.391   5.390   6.142 -0.1877  0.0342  0.2268
 1569PON     CO 1569   2.218   1.849   4.346  0.0818  0.0332  0.0926
 1570PON     CO 1570   6.064   1.760   6.414  0.1863 -0.0139  0.0086
 1571PON     CO 1571   4.015   6.482   1.566 -0.2139  0.2300 -0.3542
 1572PON     CO 1572   4.497   1.062   4.555  0.4575  0.0651  0.1402
 1573PON     CO 1573   0.832   5.189   0.875  0.0926 -0.1380  0.2935
 1574PON     CO 1574   2.641   5.183   2.986  0.1714  0.0915  0.1264
 1575PON     CO 1575   6.395   0.624   2.034  0.0373  0.1873  0.1674
 1576PON     CO 1576   2.975   0.825   5.234  0.5229 -0.1057 -0.2296
 1577PON     CO 1577   5.080   6.474   5.803 -0.1036  0.1589  0.1730
 1578PON     CO 1578   0.294   6.358   1.521  0.0332  0.1112  0.0393
 1579PON     CO 1579   5.160   3.367   4.298 -0.0915 -0.0184  0.0251
 1580PON     CO 1580   0.924   3.691   5.267  0.2269  0.1573  0.2221
 1581PON     CO 1581   0.664   6.368   1.046  0.2172 -0.2077  0.0633
 1582PON     CO 1582   4.428   5.126   0.205  0.1265 -0.0440  0.1089
 1583PON     CO 1583   6.056   2.479   3.954 -0.0967 -0.1196  0.1539
 1584PON     CO 1584   3.614   5.043   4.755 -0.1214  0.2864  0.3106
 1585PON     CO 1585   4.478   3.456   6.226  0.1747  0.2766 -0.0084
 1586PON     CO 1586   0.341   3.043   1.183  0.0431  0.1485 -0.0122
 1587PON     CO 1587   5.130   2.063   4.118 -0.0216  0.1293  0.0582
 1588PON     CO 1588   1.843   5.335   3.042  0.3109  0.1261 -0.3734
 1589PON     CO 1589   2.434   0.956   5.399  0.0341  0.1063 -0.0887
 1590PON     CO 1590   1.212   4.064   5.585  0.1745  0.0587  0.0968
 1591PON     CO 1591   5.463   0.347   4.075 -0.0592 -0.0429 -0.0551
 1592PON     CO 1592   0.589   3.623   0.362  0.1958  0.2758 -0.2778
 1593PON     CO 1593   3.578   6.080   3.603 -0.1756  0.1758 -0.0129
 1594PON     CO 1594   0.906   0.663   5.347  0.1420 -0.2298  0.0450
 1595PON     CO 1595   1.023   1.646   5.689  0.1359  0.0966 -0.3017
 1596PON     CO 1596   1.689   2.225   5.045  0.1584  0.2092  0.1818
 1597PON     CO 1597   0.816   2.258   1.513  0.1122  0.0484 -0.3005
 1598PON     CO 1598   0.198   6.203   4.581 -0.3008 -0.3103 -0.0290
 1599PON     CO 1599   0.859   0.975   2.138  0.1029  0.2824 -0.0376
 1600PON     CO 1600   5.351   0.934   2.669  0.2142  0.2772 -0.1244
 1601PON     CO 1601   1.698   4.887   6.038  0.3312 -0.4109  0.2974
 1602PON     CO 1602   0.662   2.578   2.453  0.2311  0.0173  0.1044
 1603PON     CO 1603   1.462   6.087   1.555  0.1775 -0.1538  0.2579
 1604PON     CO 1604   2.503   3.039   4.370 -0.1649 -0.0054 -0.2959
 1605PON     CO 1605   5.122   4.556   0.069  0.3977  0.1626  0.0560
 1606PON     CO 1606   2.240   3.034   4.786  0.0097  0.1958  0.0779
 1607PON     CO 1607   4.044   1.998   2.053 -0.0796  0.0738  0.0707
 1608PON     CO 1608   4.754   2.135   0.909  0.0677 -0.3627 -0.4694
 1609PON     CO 1609   0.698   1.267   4.912  0.0188  0.2784  0.1008
 1610PON     CO 1610   2.995   4.599   1.007 -0.1776  0.0721  0.0424
 1611PON     CO 1611   3.063   3.144   4.405 -0.1826  0.0619 -0.2995
 1612PON     CO 1612   5.203   5.956   3.525  0.0852 -0.4709  0.2188
 1613PON     CO 1613   2.946   1.353   4.353  0.0675 -0.0254  0.0469
 1614PON     CO 1614   4.557   4.461   4.145  0.2763 -0.0293 -0.0764
 1615PON     CO 1615   1.411   2.342   0.589  0.0210  0.0691 -0.1859
 1616PON     CO 1616   2.723   5.369   0.422  0.2087 -0.1347 -0.2292
 1617PON     CO 1617   4.145   2.003   3.291  0.2509 -0.0712 -0.0693
 1618PON     CO 1618   0.130   0.244   4.965  0.2316  0.3346  0.0900
 1619PON     CO 1619   1.296   5.212   2.253  0.0539 -0.2544  0.3822
 1620PON     CO 1620   3.570   3.058   0.897  0.2349 -0.1912  0.0141
 1621PON     CO 1621   4.984   5.064   1.203  0.0580 -0.1426  0.0362
 1622PON     CO 1622   1.941   5.848   6.128 -0.2414  0.0990 -0.2018
 1623PON     CO 1623   3.921   0.794   1.926  0.1624  0.1056 -0.0376
 1624PON     CO 1624   4.676   0.175   2.890 -0.0590  0.0002 -0.1676
 1625PON     CO 1625   1.020   6.345   5.308  0.1205  0.2022  0.0257
 1626PON     CO 1626   1.718   0.624   5.350  0.0936 -0.2268  0.0056
 1627PON     CO 1627   5.897   0.152   4.178  0.0088  0.2983  0.1419
 1628PON     CO 1628   1.401   4.629   4.236  0.2714 -0.2123  0.4133
 1629PON     CO 1629   3.088   5.039   4.758  0.1581 -0.2035  0.2768
 1630PON     CO 1630   5.182   3.946   4.984  0.1306  0.0051  0.0214
 1631PON     CO 1631   1.858   3.420   5.542  0.0852 -0.2852 -0.0362
 1632PON     CO 1632   2.907   2.383   3.321  0.2691  0.2387 -0.0346
 1633PON     CO 1633   2.421   1.780   4.853  0.0135 -0.0700  0.0723
 1634PON     CO 1634   1.576   5.673   4.885  0.0793 -0.0750 -0.0588
 1635PON     CO 1635   1.260   4.244   0.027 -0.1118 -0.1265  0.1002
 1636PON     CO 1636   4.050   4.648   2.754  0.0607 -0.1129 -0.0967
 1637PON     CO 1637   4.378   4.940   4.267  0.0040  0.1644  0.0208
 1638PON     CO 1638   3.399   2.253   0.964  0.0510  0.0925  0.0812
 1639PON     CO 1639   3.898   3.308   6.286 -0.0668 -0.0325  0.1979
 1640PON     CO 1640   5.857   6.168   3.958 -0.1646  0.2733  0.0832
 1641PON     CO 1641   3.264   3.978   4.252 -0.0033 -0.0346  0.1929
 1642PON     CO 1642   3.125   2.910   3.318  0.1221  0.1928 -0.0584
 1643PON     CO 1643   0.225   6.246   3.953 -0.0595  0.0520 -0.1667
 1644PON     CO 1644   3.875   6.487   5.461 -0.4597 -0.0401  0.3741
 1645PON     CO 1645   0.689   5.011   4.579 -0.3155  0.0901 -0.1707
 1646PON     CO 1646   3.546   2.135   1.913 -0.4009  0.3216 -0.1525
 1647PON     CO 1647   4.705   6.261   2.035 -0.0363  0.0606  0.3326
 1648PON     CO 1648   3.271   0.630   6.462 -0.1654  0.0538 -0.2689
 1649PON     CO 1649   1.890   1.360   2.275 -0.3959  0.2586 -0.2098
 1650PON     CO 1650   1.346   5.115   3.121 -0.2153  0.3482  0.2928
 1651PON     CO 1651   2.747   2.336   5.173  0.1302 -0.2590 -0.0870
 1652PON     CO 1652   4.818   5.560   5.790 -0.1883  0.0805 -0.0848
 1653PON     CO 1653   6.471   1.040   4.308 -0.0386  0.1025  0.1855
 1654PON     CO 1654   0.074   5.754   4.740  0.0162 -0.0254 -0.0333
 1655PON     CO 1655   5.970   0.615   3.364  0.1693  0.2548  0.1397
 1656PON     CO 1656   0.133   1.887   6.329  0.0445 -0.0123  0.0363
 1657PON     CO 1657   1.359   6.314   3.071  0.0688 -0.3535  0.2847
 1658PON     CO 1658   6.191   5.990   0.633  0.0855 -0.1348  0.1983
 1659PON     CO 1659   4.362   3.839   5.356 -0.1243 -0.0565  0.1596
 1660PON     CO 1660   1.262   5.836   0.860  0.0455  0.0837  0.0367
 1661PON     CO 1661   6.237   6.030   0.119  0.4433  0.0731  0.0180
 1662PON     CO 1662   4.500   4.680   3.603  0.1712  0.1031  0.1258
 1663PON     CO 1663   5.514   4.965   0.100  0.2655 -0.1148  0.3279
 1664PON     CO 1664   1.604   1.760   6.206 -0.1500 -0.0049  0.0660
 1665PON     CO 1665   0.171   0.791   0.712 -0.0181  0.1376  0.1225
 1666PON     CO 1666   2.648   4.130   2.358 -0.2325  0.2553 -0.1096
 1667PON     CO 1667   5.698   2.796   0.668  0.1170  0.0852 -0.0951
 1668PON     CO 1668   5.369   1.003   1.326  0.1192 -0.1068  0.0330
 1669PON     CO 1669   2.696   0.044   3.719  0.7507  0.2376 -0.2041
 1670PON     CO 1670   4.402   0.111   0.080 -0.0225 -0.1238 -0.2912
 1671PON     CO 1671   2.664   3.062   2.115 -0.1252  0.0255  0.2076
 1672PON     CO 1672   0.949   3.841   0.613  0.0527  0.0315 -0.2289
 1673PON     CO 1673   0.544   5.604   0.123  0.1642  0.2275 -0.0348
 1674PON     CO 1674   1.355   3.693   0.890 -0.1465 -0.3139  0.1583
 1675PON     CO 1675   6.394   6.308   5.748 -0.0679  0.0676  0.1523
 1676PON     CO 1676   6.431   3.425   2.100 -0.0921  0.0508  0.2145
 1677PON     CO 1677   2.546   5.088   6.160 -0.1621 -0.1400 -0.2551
 1678PON     CO 1678   5.233   6.267   5.367  0.1913 -0.0127  0.2505
 1679PON     CO 1679   3.477   1.769   2.253  0.0121 -0.1614 -0.1816
 1680PON     CO 1680   3.349   1.680   5.107 -0.1580 -0.1499  0.1874
 1681PON     CO 1681   5.435   4.789   5.613  0.2891 -0.5264 -0.1669
 1682PON     CO 1682   5.897   4.071   4.500  0.0773 -0.0215 -0.1661
 1683PON     CO 1683   5.256   0.867   3.782 -0.0828  0.0537 -0.0488
 1684PON     CO 1684   0.847   5.232   0.201  0.0922  0.2121  0.1577
 1685PON     CO 1685   0.245   0.401   2.667  0.2286 -0.2043  0.2382
 1686PON     CO 1686   0.093   3.219   3.130 -0.1896  0.1727 -0.0585
 1687PON     CO 1687   3.381   2.897   5.616 -0.1995  0.1322  0.0006
 1688PON     CO 1688   1.332   3.185   2.831  0.2137 -0.0756  0.1810
 1689PON     CO 1689   0.957   2.296   1.036 -0.2586  0.0880 -0.3535
 1690PON     CO 1690   0.655   0.804   3.876  0.0452 -0.1265  0.0919
 1691PON     CO 1691   3.910   5.496   0.378 -0.1164  0.1618 -0.1253
 1692PON     CO 1692   1.007   4.352   0.532  0.0254 -0.2000  0.0593
 1693PON     CO 1693   1.078   2.708   1.466  0.0158 -0.0673  0.2369
 1694PON     CO 1694   3.445   1.472   4.019 -0.0274  0.4657 -0.0484
 1695PON     CO 1695   2.070   5.948   2.138 -0.2699  0.3402 -0.0340
 1696PON     CO 1696   2.241   0.618   0.249  0.0338  0.0862  0.1679
 1697PON     CO 1697   2.501   1.095   0.530  0.0619 -0.2469  0.0209
 1698PON     CO 1698   0.763   3.213   5.044 -0.2486 -0.1492  0.0904
 1699PON     CO 1699   0.460   1.304   0.799 -0.2882  0.0054  0.1255
 1700PON     CO 1700   4.203   1.939   0.037 -0.1324 -0.3165 -0.0361
 1701PON     CO 1701   3.021   0.524   4.458  0.1207  0.2571 -0.2313
 1702PON     CO 1702   4.404   3.681   1.733 -0.3337  0.2663  0.0392
 1703PON     CO 1703   3.017   0.950   4.694  0.4611  0.1743  0.0774
 1704PON     CO 1704   6.383   0.039   4.591 -0.2603  0.1265 -0.0801
 1705PON     CO 1705   6.078   2.411   0.595  0.2121  0.1988  0.0674
 1706PON     CO 1706   0.835   3.933   0.077 -0.3039  0.1000  0.2362
 1707PON     CO 1707   4.302   3.021   5.861  0.0163 -0.4470 -0.0239
 1708PON     CO 1708   4.066   1.191   1.693  0.0330 -0.0859  0.3848
 1709PON     CO 1709   0.054   4.302   2.009  0.3347 -0.3384  0.0379
 1710PON     CO 1710   5.929   4.520   1.361  0.1900 -0.3502  0.3261
 1711PON     CO 1711   6.516   0.111   0.537 -0.0075  0.1563  0.1255
 1712PON     CO 1712   2.880   1.244   3.381 -0.0385 -0.0799  0.0570
 1713PON     CO 1713   0.625   1.149   2.945  0.3491  0.3778 -0.2359
 1714PON     CO 1714   1.195   2.087   4.372  0.1265 -0.0357 -0.0227
 1715PON     CO 1715   5.806   2.981   6.300 -0.3377 -0.0235  0.0966
 1716PON     CO 1716   6.139   2.972   3.623  0.3594  0.4339 -0.1228
 1717PON     CO 1717   3.482   3.975   2.473  0.2500 -0.1946  0.0284
 1718PON     CO 1718   3.245   3.869   3.250  0.0923  0.0003  0.1783
 1719PON     CO 1719   2.814   2.444   6.105  0.3981 -0.1758 -0.1055
 1720PON     CO 1720   3.157   0.649   2.686  0.0465  0.0320 -0.2351
 1721PON     CO 1721   2.448   1.430   4.444 -0.2304  0.0343 -0.2723
 1722PON     CO 1722   3.587   2.023   2.699  0.0161  0.0968 -0.0629
 1723PON     CO 1723   3.296   2.696   4.206  0.1296  0.0123  0.1437
 1724PON     CO 1724   3.811   2.484   2.281 -0.1632 -0.2339 -0.0363
 1725PON     CO 1725   0.854   0.247   0.725 -0.1204  0.0570  0.1013
 1726PON     CO 1726   3.268   3.524   1.101  0.1495  0.1367  0.1256
 1727PON     CO 1727   4.677   4.005   4.985  0.0111  0.3246 -0.0228
 1728PON     CO 1728   3.331   1.061   3.203 -0.2664  0.0607  0.4036
 1729PON     CO 1729   4.888   4.840   6.274  0.2139  0.0964 -0.0576
 1730PON     CO 1730   3.105   2.909   5.241  0.1559 -0.1799  0.2703
 1731PON     CO 1731   1.840   0.682   3.265 -0.1238  0.2066 -0.0063
 1732PON     CO 1732   3.278   0.411   0.395  0.0453  0.0044  0.0053
 1733PON     CO 1733   6.470   2.681   4.881  0.2243  0.0957  0.3510
 1734PON     CO 1734   2.807   5.005   1.919 -0.2329  0.2159  0.0103
 1735PON     CO 1735   6.226   4.524   3.584  0.1375  0.0764 -0.0693
 1736PON     CO 1736   4.842   3.691   5.724 -0.0238 -0.0743  0.1689
 1737PON     CO 1737   3.924   1.304   3.800 -0.5329  0.0192  0.3536
 1738PON     CO 1738   1.779   5.492   3.482  0.1868  0.2092  0.2391
 1739PON     CO 1739   4.095   4.265   6.422  0.0197  0.2322 -0.4126
 1740PON     CO 1740   4.953   4.814   2.684  0.0990 -0.1958 -0.3413
 1741PON     CO 1741   4.224   5.476   5.374 -0.0023  0.1333 -0.0185
 1742PON     CO 1742   3.630   6.144   1.579  0.0687 -0.3515 -0.0213
 1743PON     CO 1743   5.975   2.457   3.011  0.2697 -0.3272 -0.0964
 1744PON     CO 1744   4.456   6.465   0.649  0.1311 -0.0246 -0.3045
 1745PON     CO 1745   0.741   3.122   1.513 -0.1158  0.1792 -0.5746
 1746PON     CO 1746   3.572   0.573   2.258  0.2558 -0.1110  0.0378
 1747PON     CO 1747   5.734   3.920   5.082  0.2444  0.0068 -0.0439
 1748PON     CO 1748   2.380   1.992   2.692 -0.2133 -0.1867  0.1152
 1749PON     CO 1749   1.267   5.047   5.218 -0.0859 -0.3020 -0.1571
 1750PON     CO 1750   6.285   2.912   2.094 -0.0596  0.0646  0.0391
 1751PON     CO 1751   4.810   1.445   4.361 -0.1614 -0.1396 -0.0195
 1752PON     CO 1752   4.637   5.977   5.313  0.1258 -0.0532 -0.0569
 1753PON     CO 1753   2.168   2.659   0.521 -0.1660  0.0173 -0.3066
 1754PON     CO 1754   4.962   2.257   5.007 -0.0456  0.0479 -0.0404
 1755PON     CO 1755   4.075   0.327   0.452  0.0473  0.3980  0.0183
 1756PON     CO 1756   0.165   5.767   4.192  0.0549 -0.0288 -0.3392
 1757PON     CO 1757   4.502   4.741   3.047 -0.2246 -0.0683  0.2481
 1758PON     CO 1758   4.163   1.847   5.141 -0.0046  0.1275 -0.0298
 1759PON     CO 1759   1.333   4.546   0.910 -0.4063  0.1715 -0.1118
 1760PON     CO 1760   0.319   5.131   4.903 -0.0100  0.0803 -0.0541
 1761PON     CO 1761   1.747   0.582   0.235  0.1642 -0.2847  0.3035
 1762PON     CO 1762   4.048   5.521   0.979 -0.5491  0.0342  0.2707
 1763PON     CO 1763   3.800   5.677   5.181  0.0209 -0.0675  0.1266
 1764PON     CO 1764   4.275   4.923   6.172 -0.3276 -0.2870 -0.1610
 1765PON     CO 1765   5.054   3.801   1.499  0.0126  0.1435  0.0559
 1766PON     CO 1766   2.212   5.286   4.341  0.0110  0.0064 -0.0858
 1767PON     CO 1767   0.038   1.343   0.565  0.1611  0.0006 -0.0921
 1768PON     CO 1768   1.989   5.353   1.023 -0.0838  0.0099  0.1753
 1769PON     CO 1769   6.238   1.915   5.991  0.1920 -0.4012 -0.1298
 1770PON     CO 1770   2.704   3.263   1.231 -0.0230  0.1298  0.4017
 1771PON     CO 1771   0.621   6.234   2.981  0.4377 -0.1003  0.1339
 1772PON     CO 1772   3.672   0.757   0.470 -0.1593  0.1417  0.4323
 1773PON     CO 1773   3.357   6.136   6.287 -0.1723 -0.0280 -0.1316
 1774PON     CO 1774   2.231   0.577   5.776  0.0837 -0.0990 -0.0280
 1775PON     CO 1775   0.223   5.021   4.357  0.3115 -0.2029  0.0624
 1776PON     CO 1776   1.737   0.872   2.129  0.2270  0.1546  0.0691
 1777PON     CO 1777   5.405   3.459   1.572 -0.0897 -0.3823  0.2198
 1778PON     CO 1778   6.061   4.699   6.333 -0.0111  0.1801 -0.3372
 1779PON     CO 1779   6.384   5.197   1.091  0.3060  0.1101  0.1609
 1780PON     CO 1780   2.391   5.553   5.954 -0.0473 -0.0704 -0.1451
 1781PON     CO 1781   2.170   5.881   5.582  0.1588 -0.0780  0.1352
 1782PON     CO 1782   4.858   1.696   1.455  0.0628  0.2171 -0.0004
 1783PON     CO 1783   4.233   3.901   0.706 -0.0592 -0.3291 -0.0929
 1784PON     CO 1784   2.390   2.799   1.767  0.1998  0.0269  0.1169
 1785PON     CO 1785   0.234   3.075   5.066 -0.1567 -0.1797  0.3882
 1786PON     CO 1786   4.767   2.083   2.633  0.0129 -0.1763  0.0964
 1787PON     CO 1787   5.737   3.454   2.810 -0.1065  0.3194  0.1366
 1788PON     CO 1788   6.163   2.354   2.038  0.0693 -0.2011 -0.0527
 1789PON     CO 1789   1.235   5.322   4.808 -0.2153  0.1425  0.3193
 1790PON     CO 1790   5.060   0.243   4.459  0.4257  0.1173  0.2697
 1791PON     CO 1791   0.503   0.392   6.293 -0.0637  0.0580 -0.0049
 1792PON     CO 1792   1.241   5.814   2.435 -0.0526 -0.1916 -0.1338
 1793PON     CO 1793   6.220   5.663   4.366 -0.1415 -0.1750  0.0762
 1794PON     CO 1794   0.159   5.137   2.556  0.0758 -0.1474  0.2379
 1795PON     CO 1795   1.816   2.894   5.367  0.0614 -0.1680  0.0572
 1796PON     CO 1796   4.028   1.687   0.403 -0.1294  0.0148 -0.2130
 1797PON     CO 1797   1.431   4.178   6.038 -0.3081  0.0159 -0.0580
 1798PON     CO 1798   0.263   5.107   2.030 -0.1022 -0.2662 -0.0211
 1799PON     CO 1799   1.774   6.310   6.166  0.1743 -0.0767  0.2476
 1800PON     CO 1800   6.181   0.589   0.657 -0.0148 -0.1661  0.0146
 1801PON     CO 1801   4.124   2.737   2.716  0.1093  0.1261  0.3649
 1802PON     CO 1802   3.908   3.824   5.588  0.1876  0.0836  0.2529
 1803PON     CO 1803   3.785   5.892   0.085 -0.0383 -0.0300  0.3672
 1804PON     CO 1804   5.246   2.012   2.631 -0.1377 -0.0256  0.0689
 1805PON     CO 1805   2.843   0.245   1.781  0.0684  0.1374  0.1974
 1806PON     CO 1806   4.130   0.771   2.949 -0.1411 -0.0124 -0.3340
 1807PON     CO 1807   5.132   0.184   2.406 -0.1225 -0.0441 -0.1959
 1808PON     CO 1808   6.453   4.730   0.179  0.0038 -0.0308  0.2451
 1809PON     CO 1809   2.956   2.612   5.579 -0.2321 -0.4704  0.1585
 1810PON     CO 1810   6.017   4.205   6.050  0.0866  0.2537 -0.0296
 1811PON     CO 1811   2.402   1.698   0.741  0.2472  0.2291 -0.0923
 1812PON     CO 1812   2.475   1.630   3.935  0.0570 -0.3525  0.1337
 1813PON     CO 1813   2.970   1.208   1.767 -0.3420  0.0126 -0.0981
 1814PON     CO 1814   4.821   5.598   3.485 -0.1759  0.2898  0.0785
 1815PON     CO 1815   2.701   6.296   4.189 -0.1139 -0.1128  0.1741
 1816PON     CO 1816   1.021   0.701   1.026 -0.2381 -0.1423  0.0025
 1817PON     CO 1817   5.854   0.200   2.630  0.4091 -0.2930  0.1591
 1818PON     CO 1818   4.142   2.740   2.020  0.0169 -0.1265 -0.0902
 1819PON     CO 1819   0.147   1.729   0.967 -0.1857 -0.0137  0.2021
 1820PON     CO 1820   0.719   5.187   5.871 -0.0108 -0.2735 -0.0441
 1821PON     CO 1821   0.192   2.339   5.834 -0.0845  0.0536 -0.1121
 1822PON     CO 1822   4.182   1.776   3.932 -0.3550 -0.2243 -0.2871
 1823PON     CO 1823   2.988   3.034   5.898 -0.1217  0.0234  0.0421
 1824PON     CO 1824   6.130   0.462   1.643 -0.3320  0.0772 -0.1019
 1825PON     CO 1825   4.065   1.418   0.900  0.2945 -0.1201  0.2731
 1826PON     CO 1826   0.311   4.754   2.871  0.0157  0.2077  0.3760
 1827PON     CO 1827   3.125   4.801   0.376  0.0640 -0.1479  0.0992
 1828PON     CO 1828   6.409   4.299   1.550 -0.3203 -0.2230 -0.0600
 1829PON     CO 1829   1.376   5.987   4.606 -0.1337 -0.0893  0.1953
 1830PON     CO 1830   4.865   1.881   5.858  0.0323  0.0198  0.0131
 1831PON     CO 1831   0.462   1.654   2.067  0.0073 -0.1083 -0.1880
 1832PON     CO 1832   0.373   0.863   1.626  0.2305  0.1683  0.0225
 1833PON     CO 1833   4.973   2.685   0.099 -0.4542  0.1909  0.0479
 1834PON     CO 1834   5.129   1.373   5.393  0.0454 -0.1208 -0.0220
 1835PON     CO 1835   4.330   3.136   1.404 -0.3991 -0.2193  0.0296
 1836PON     CO 1836   2.739   2.637   4.150 -0.0790  0.0920 -0.2936
 1837PON     CO 1837   3.586   4.350   6.360  0.0887  0.1768 -0.1778
 1838PON     CO 1838   4.263   0.224   3.327 -0.0561 -0.2136 -0.3520
 1839PON     CO 1839   0.347   2.214   3.384  0.0362  0.0348  0.0299
 1840PON     CO 1840   5.117   0.911   5.951  0.2443  0.3479 -0.1520
 1841PON     CO 1841   1.385   2.194   1.691  0.0255  0.0023 -0.0182
 1842PON     CO 1842   2.859   1.319   3.884  0.0175 -0.0036  0.1887
 1843PON     CO 1843   5.572   2.367   5.085  0.0660 -0.0553 -0.1925
 1844PON     CO 1844   6.149   1.775   4.468  0.0769 -0.1712  0.2582
 1845PON     CO 1845   4.641   3.857   3.369 -0.0960 -0.2947  0.2758
 1846PON     CO 1846   2.748   1.788   0.448 -0.0517 -0.1964 -0.1206
 1847PON     CO 1847   0.016   5.756   3.700 -0.4394 -0.1280 -0.1555
 1848PON     CO 1848   1.990   5.458   5.404  0.0698 -0.2325 -0.1917
 1849PON     CO 1849   5.695   0.129   5.083  0.0050 -0.0487  0.1015
 1850PON     CO 1850   0.807   6.454   0.044 -0.0862 -0.1908 -0.1271
 1851PON     CO 1851   2.568   4.032   5.166 -0.2664 -0.1074  0.1784
 1852PON     CO 1852   1.675   2.333   2.118 -0.0489  0.2800 -0.2921
 1853PON     CO 1853   1.035   5.940   2.894  0.2478 -0.1467 -0.0954
 1854PON     CO 1854   0.913   4.406   5.887  0.2608 -0.2225  0.0053
 1855PON     CO 1855   5.004   1.751   2.196  0.2106 -0.2282 -0.0883
 1856PON     CO 1856   0.460   6.061   0.038  0.5224  0.1377 -0.1980
 1857PON     CO 1857   6.516   2.111   0.662  0.1962 -0.0657 -0.1768
 1858PON     CO 1858   1.104   5.591   6.066 -0.0837 -0.0642  0.4703
 1859PON     CO 1859   1.284   2.403   4.844  0.2665  0.1718 -0.1933
 1860PON     CO 1860   5.223   1.166   3.158  0.0149 -0.0304 -0.0993
 1861PON     CO 1861   6.323   4.327   4.032  0.1307  0.0330  0.2510
 1862PON     CO 1862   5.055   4.208   4.522 -0.1956 -0.1390  0.1215
 1863PON     CO 1863   4.790   6.512   5.332 -0.3042 -0.3094 -0.0876
 1864PON     CO 1864   3.696   6.492   0.492 -0.1569 -0.0669 -0.0231
 1865PON     CO 1865   4.413   3.834   2.865  0.0162 -0.1238 -0.0206
 1866PON     CO 1866   5.259   4.690   1.227 -0.0239  0.3513 -0.1579
 1867PON     CO 1867   1.059   1.905   0.498  0.0421 -0.1149 -0.1899
 1868PON     CO 1868   6.265   5.437   0.602 -0.1826 -0.0544 -0.2790
 1869PON     CO 1869   5.335   3.100   0.168 -0.0270 -0.1508 -0.0274
 1870PON     CO 1870   2.986   1.980   4.840  0.4625 -0.0795  0.3052
 1871PON     CO 1871   1.776   0.530   2.618  0.1925 -0.1053  0.2715
 1872PON     CO 1872   2.032   3.293   4.215 -0.2060  0.3798 -0.0352
 1873PON     CO 1873   1.778   3.553   0.277  0.1200  0.3201 -0.1495
 1874PON     CO 1874   0.404   6.028   1.878 -0.0415  0.0252  0.0108
 1875PON     CO 1875   6.400   4.791   2.057 -0.1970  0.1746 -0.2695
 1876PON     CO 1876   2.588   4.826   0.649  0.0978 -0.0747 -0.1121
 1877PON     CO 1877   2.582   5.848   4.638  0.2885  0.3499  0.2061
 1878PON     CO 1878   5.008   6.488   1.690  0.0355 -0.2408 -0.0931
 1879PON     CO 1879   5.930   6.199   1.488  0.2441 -0.0316  0.2799
 1880PON     CO 1880   2.640   6.331   4.687 -0.1059  0.0507 -0.1156
 1881PON     CO 1881   6.066   1.132   3.404 -0.1827 -0.0369 -0.0722
 1882PON     CO 1882   0.247   0.651   5.986  0.0925  0.0889 -0.0526
 1883PON     CO 1883   3.645   4.170   5.300 -0.0778 -0.1200  0.2278
 1884PON     CO 1884   2.514   2.264   4.529  0.5269 -0.0089 -0.0165
 1885PON     CO 1885   2.682   3.028   2.712  0.0469 -0.0510 -0.0728
 1886PON     CO 1886   4.903   1.189   1.269 -0.2882  0.1731 -0.1751
 1887PON     CO 1887   1.235   0.319   2.669 -0.1902  0.2990 -0.1185
 1888PON     CO 1888   5.915   1.878   2.292  0.1471 -0.0828 -0.0775
 1889PON     CO 1889   2.060   1.343   4.014  0.4454 -0.1135  0.1679
 1890PON     CO 1890   2.530   5.450   4.003 -0.4881  0.0114  0.3645
 1891PON     CO 1891   0.076   5.243   0.155 -0.0164  0.1119  0.0488
 1892PON     CO 1892   4.964   4.681   3.286 -0.0618  0.0189  0.3175
 1893PON     CO 1893   0.258   6.425   2.604 -0.3209 -0.2396 -0.0821
 1894PON     CO 1894   5.265   3.332   0.593  0.2906  0.1842 -0.1457
 1895PON     CO 1895   1.969   1.043   0.309 -0.1696 -0.0356  0.0370
 1896PON     CO 1896   5.014   0.876   1.824 -0.1382  0.0416  0.1766
 1897PON     CO 1897   4.126   4.095   1.680 -0.0944  0.0071  0.1826
 1898PON     CO 1898   2.589   1.688   6.493 -0.1538  0.1658  0.2496
 1899PON     CO 1899   4.391   6.124   6.283 -0.4513 -0.1012 -0.0250
 1900PON     CO 1900   1.203   1.578   3.590  0.0376  0.0714 -0.2795
 1901PON     CO 1901   4.574   0.634   3.146  0.1670  0.0347 -0.1406
 1902PON     CO 1902   5.745   4.632   0.350  0.0900 -0.0040 -0.1744
 1903PON     CO 1903   5.411   0.600   0.283 -0.0029  0.2489 -0.1242
 1904PON     CO 1904   0.836   1.941   3.567  0.2609 -0.0430  0.0773
 1905PON     CO 1905   6.142   5.347   2.787  0.1288  0.3049  0.1370
 1906PON     CO 1906   5.591   5.681   1.407 -0.0335 -0.3613 -0.1917
 1907PON     CO 1907   5.386   4.389   5.284 -0.2249 -0.1702  0.2071
 1908PON     CO 1908   4.475   1.669   1.825  0.1437 -0.0174 -0.0950
 1909PON     CO 1909   0.920   3.510   1.797  0.1111  0.0578  0.1832
 1910PON     CO 1910   1.096   2.744   6.211  0.0786  0.0410 -0.0028
 1911PON     CO 1911   2.066   5.107   5.760  0.0618 -0.0486  0.1011
 1912PON     CO 1912   6.136   2.316   5.245 -0.0698 -0.1843  0.0265
 1913PON     CO 1913   2.552   0.464   5.313  0.1370 -0.1043 -0.3064
 1914PON     CO 1914   0.525   6.340   6.164 -0.0489  0.0477  0.3516
 1915PON     CO 1915   1.806   4.031   1.904  0.4165  0.4774  0.1064
 1916PON     CO 1916   1.509   1.672   2.223  0.1752  0.0055  0.0234
 1917PON     CO 1917   3.744   1.986   1.528 -0.0192 -0.0684 -0.1211
 1918PON     CO 1918   2.194   5.889   0.501 -0.0544  0.1868  0.0341
 1919PON     CO 1919   0.186   3.512   4.619 -0.2000  0.0265  0.0889
 1920PON     CO 1920   5.934   4.855   3.781  0.1760 -0.1748  0.0064
 1921PON     CO 1921   2.065   2.498   3.475  0.0728 -0.3430 -0.2223
 1922PON     CO 1922   4.016   2.419   5.075  0.0934  0.2143  0.1000
 1923PON     CO 1923   2.242   2.776   3.999  0.0194  0.2302 -0.0048
 1924PON     CO 1924   6.378   4.656   0.996 -0.0604  0.0939 -0.2609
 1925PON     CO 1925   4.996   5.129   5.905 -0.2220 -0.2044 -0.1462
 1926PON     CO 1926   5.320   0.268   1.413  0.0604 -0.0280 -0.1392
 1927PON     CO 1927   5.238   2.938   1.796  0.2329  0.3715  0.0554
 1928PON     CO 1928   3.792   2.442   1.207 -0.0747  0.0713 -0.2275
 1929PON     CO 1929   3.477   1.935   4.082 -0.1641 -0.0739 -0.1975
 1930PON     CO 1930   5.659   4.554   0.921 -0.1379 -0.1846 -0.0637
 1931PON     CO 1931   1.190   5.909   5.530 -0.2336  0.1974 -0.0901
 1932PON     CO 1932   5.795   6.306   5.444  0.3011 -0.2321 -0.2629
 1933PON     CO 1933   4.409   3.539   4.940  0.0859  0.0046  0.0065
 1934PON     CO 1934   1.182   4.062   5.030  0.1944  0.1350  0.0333
 1935PON     CO 1935   3.734   1.206   2.303  0.0691 -0.1886 -0.0532
 1936PON     CO 1936   1.595   3.167   0.076 -0.0566 -0.0530 -0.0396
 1937PON     CO 1937   1.681   3.426   4.487 -0.1489 -0.0630  0.0371
 1938PON     CO 1938   4.686   5.985   1.393  0.0028  0.1819  0.1962
 1939PON     CO 1939   2.907   4.726   6.396 -0.0148  0.0044 -0.2114
 1940PON     CO 1940   6.282   4.825   2.646 -0.1229 -0.0550  0.0184
 1941PON     CO 1941   4.832   2.461   6.154 -0.0679 -0.1726  0.0263
 1942PON     CO 1942   1.184   1.808   2.672  0.0734  0.2967  0.1027
 1943PON     CO 1943   4.754   3.153   4.993  0.3822 -0.1265  0.1518
 1944PON     CO 1944   5.286   1.542   1.286  0.2638  0.2762  0.0204
 1945PON     CO 1945   6.257   3.847   1.797 -0.0938 -0.3068 -0.1699
 1946PON     CO 1946   0.779   3.930   2.032  0.1809  0.0063  0.1482
 1947PON     CO 1947   5.507   4.541   2.914  0.1044  0.0238  0.2770
 1948PON     CO 1948   0.558   4.156   3.413  0.1851  0.1194  0.0789
 1949PON     CO 1949   1.495   4.157   2.328 -0.1730 -0.1659  0.3638
 1950PON     CO 1950   4.183   3.496   5.812 -0.1159  0.2928  0.0716
 1951PON     CO 1951   4.402   2.952   3.504  0.3167  0.1257 -0.2407
 1952PON     CO 1952   3.824   2.519   4.286 -0.0961  0.1558 -0.3737
 1953PON     CO 1953   2.511   0.950   4.546 -0.0168 -0.1217  0.3969
 1954PON     CO 1954   4.596   5.162   1.483  0.1445 -0.2376 -0.0401
 1955PON     CO 1955   4.224   6.451   2.024  0.0835  0.1362 -0.0525
 1956PON     CO 1956   1.972   0.785   6.333  0.0914 -0.2035 -0.0045
 1957PON     CO 1957   5.571   5.967   4.564 -0.1184  0.1056  0.3103
 1958PON     CO 1958   5.211   6.233   2.226  0.0801  0.1245  0.1661
 1959PON     CO 1959   0.942   4.034   2.602 -0.0387 -0.0568  0.1952
 1960PON     CO 1960   1.323   3.790   1.576 -0.0783  0.4792 -0.1585
 1961PON     CO 1961   0.214   1.163   4.700 -0.2219  0.0466 -0.0531
 1962PON     CO 1962   2.911   0.419   3.494 -0.0831 -0.2129  0.0122
 1963PON     CO 1963   0.250   4.495   4.225 -0.0538  0.3955 -0.3145
 1964PON     CO 1964   6.055   0.811   6.294 -0.3367 -0.0911  0.1694
 1965PON     CO 1965   5.304   1.522   4.033  0.3130 -0.1216  0.2978
 1966PON     CO 1966   4.339   0.569   3.627 -0.3563 -0.1750 -0.1162
 1967PON     CO 1967   2.137   4.317   5.358  0.0370 -0.0149  0.1502
 1968PON     CO 1968   1.518   1.272   3.834  0.0439 -0.3028 -0.2208
 1969PON     CO 1969   5.529   4.359   5.842 -0.1148 -0.0898  0.1250
 1970PON     CO 1970   4.416   5.481   0.559 -0.0356 -0.1389  0.1767
 1971PON     CO 1971   2.124   4.959   0.781  0.0619  0.0392  0.0061
 1972PON     CO 1972   0.466   6.022   0.635  0.0078 -0.2014  0.3897
 1973PON     CO 1973   1.352   0.068   4.788  0.1687 -0.4159  0.1887
 1974PON     CO 1974   3.489   2.578   3.095 -0.0991  0.0993 -0.2822
 1975PON     CO 1975   5.422   1.694   6.319  0.2033 -0.1564 -0.0030
 1976PON     CO 1976   5.754   0.696   5.952 -0.0366  0.2977  0.0166
 1977PON     CO 1977   4.754   0.281   3.516 -0.0044  0.1237  0.0411
 1978PON     CO 1978   1.582   2.683   3.835  0.0757  0.1361  0.1417
 1979PON     CO 1979   3.285   1.204   1.334  0.2848 -0.0258  0.0186
 1980PON     CO 1980   6.340   4.286   6.437 -0.0944  0.2223 -0.0556
 1981PON     CO 1981   2.317   0.577   4.126 -0.0907  0.2391 -0.1978
 1982PON     CO 1982   5.762   5.298   3.793  0.0329  0.0121  0.3319
 1983PON     CO 1983   5.121   5.952   4.923  0.3124  0.1555 -0.0530
 1984PON     CO 1984   3.070   3.159   0.776 -0.2557  0.2822 -0.1788
 1985PON     CO 1985   5.734   5.165   6.069  0.2293 -0.0975  0.1451
 1986PON     CO 1986   0.817   2.455   3.410 -0.0789  0.0181  0.1564
 1987PON     CO 1987   1.325   3.891   3.636 -0.1684  0.0085 -0.0991
 1988PON     CO 1988   2.065   6.297   2.988 -0.4512  0.1169 -0.1975
 1989PON     CO 1989   3.785   3.271   0.455  0.1676  0.1134 -0.1362
 1990PON     CO 1990   2.364   3.951   3.524  0.0985 -0.1116 -0.1457
 1991PON     CO 1991   5.190   0.445   5.976  0.2903 -0.0623  0.2037
 1992PON     CO 1992   5.714   5.955   0.221  0.2175  0.1905  0.3031
 1993PON     CO 1993   3.191   4.908   5.326  0.0162  0.0695 -0.0329
 1994PON     CO 1994   6.256   5.398   5.044  0.1155  0.4115  0.2963
 1995PON     CO 1995   2.801   2.081   5.785  0.3210 -0.0308 -0.0599
 1996PON     CO 1996   4.586   2.553   3.889  0.2728 -0.2218 -0.1560
 1997PON     CO 1997   5.997   4.858   0.807  0.2201  0.1139 -0.2868
 1998PON     CO 1998   2.231   5.243   0.427  0.0737 -0.2519  0.1198
 1999PON     CO 1999   3.869   0.232   2.406  0.1372  0.0435 -0.2976
 2000PON     CO 2000   1.878   5.932   5.157 -0.1682 -0.0703 -0.0601
 2001PON     CO 2001   4.560   3.386   2.065 -0.4599 -0.0438 -0.0895
 2002PON     CO 2002   3.621   4.077   1.892  0.0573  0.0178  0.2612
 2003PON     CO 2003   4.849   2.540   1.859 -0.1524  0.1227 -0.2130
 2004PON     CO 2004   4.109   1.217   6.245 -0.2772 -0.0904 -0.1245
 2005PON     CO 2005   4.240   3.146   4.012 -0.1283  0.0555  0.1291
 2006PON     CO 2006   1.023   5.106   3.983 -0.2508  0.0241 -0.2166
 2007PON     CO 2007   3.915   4.068   1.089  0.1497 -0.0879  0.0828
 2008PON     CO 2008   6.316   4.810   4.516 -0.0273  0.2357  0.1663
 2009PON     CO 2009   2.313   1.463   6.145 -0.0330 -0.0940  0.3890
 2010PON     CO 2010   3.468   2.837   2.592  0.2152 -0.0765  0.0823
 2011PON     CO 2011   4.744   5.394   4.180  0.0232 -0.0504  0.0834
 2012PON     CO 2012   3.087   3.877   2.786 -0.0478  0.0491  0.0428
 2013PON     CO 2013   0.157   4.013   6.070  0.4669 -0.1409  0.2284
 2014PON     CO 2014   5.733   2.115   3.525 -0.5830  0.1663 -0.1160
 2015PON     CO 2015   3.733   0.439   5.572  0.0207  0.0972 -0.2643
 2016PON     CO 2016   2.497   3.038   5.270 -0.3840 -0.1646  0.1038
 2017PON     CO 2017   4.626   3.997   4.424  0.1294 -0.2480  0.3331
 2018PON     CO 2018   0.140   5.602   6.352  0.2850  0.1967 -0.0018
 2019PON     CO 2019   5.607   1.356   3.613 -0.0507 -0.2362 -0.2439
 2020PON     CO 2020   1.586   6.142   2.245  0.0913  0.2696  0.0338
 2021PON     CO 2021   6.158   1.247   5.970  0.0343  0.1571  0.1663
 2022PON     CO 2022   5.136   2.092   1.249  0.0642  0.0529 -0.2641
 2023PON     CO 2023   2.537   6.511   2.197 -0.1071  0.0485  0.0877
 2024PON     CO 2024   3.858   3.024   4.281 -0.1698  0.0029  0.0004
 2025PON     CO 2025   2.036   1.875   6.375 -0.2089  0.1141  0.1971
 2026PON     CO 2026   2.364   1.432   3.399 -0.3144 -0.1279  0.0922
 2027PON     CO 2027   0.238   2.622   4.393 -0.0988  0.2014 -0.0540
 2028PON     CO 2028   0.030   1.803   1.774  0.0668  0.1293  0.3963
 2029PON     CO 2029   1.839   2.318   0.125  0.0117 -0.0429  0.0435
 2030PON     CO 2030   5.515   0.507   2.459  0.0930  0.1581 -0.0994
 2031PON     CO 2031   4.462   4.253   3.149 -0.1094 -0.2314  0.1087
 2032PON     CO 2032   0.166   1.704   5.864  0.0634 -0.4194  0.2333
 2033PON     CO 2033   2.001   5.631   0.083  0.1606  0.0893 -0.0322
 2034PON     CO 2034   6.393   4.520   5.982  0.1427  0.0497  0.1353
 2035PON     CO 2035   1.625   0.847   4.740 -0.3405  0.0851 -0.1077
 2036PON     CO 2036   4.529   5.988   0.414 -0.0895  0.2693  0.3328
 2037PON     CO 2037   5.051   5.402   2.536 -0.1128  0.2800  0.3753
 2038PON     CO 2038   3.489   1.220   5.400  0.0575 -0.0024  0.0165
 2039PON     CO 2039   5.469   3.099   2.489 -0.0802 -0.0167 -0.2553
 2040PON     CO 2040   1.257   3.261   4.378  0.1741  0.1886  0.1095
 2041PON     CO 2041   4.342   0.152   3.904  0.0825  0.1254  0.0022
 2042PON     CO 2042   4.110   4.302   5.532 -0.3045 -0.0007  0.1022
 2043PON     CO 2043   5.471   2.840   1.340 -0.0928  0.0395 -0.0602
 2044PON     CO 2044   2.175   3.497   3.410 -0.4421  0.1828  0.1515
 2045PON     CO 2045   5.311   0.814   4.307 -0.0681 -0.2463  0.3180
 2046PON     CO 2046   0.284   2.216   2.638 -0.2957 -0.0676 -0.1399
 2047PON     CO 2047   6.290   3.792   5.788  0.5345  0.0708 -0.2307
 2048PON     CO 2048   2.928   1.002   6.327  0.1737  0.0569  0.1841
 2049PON     CO 2049   6.368   4.264   2.498 -0.1920 -0.0524  0.1206
 2050PON     CO 2050   1.179   4.902   0.570 -0.1810 -0.0078  0.1862
 2051PON     CO 2051   4.824   3.536   4.685  0.2302  0.0401  0.1245
 2052PON     CO 2052   1.224   4.848   2.627  0.0391  0.3856  0.0826
 2053PON     CO 2053   5.115   0.657   3.203  0.0613  0.0070  0.0948
 2054PON     CO 2054   3.585   4.309   4.428 -0.2596  0.1146  0.2433
 2055PON     CO 2055   4.771   4.880   3.980 -0.1714 -0.0519  0.0784
 2056PON     CO 2056   2.589   6.459   3.065 -0.2469 -0.1256  0.1665
 2057PON     CO 2057   0.666   4.893   1.652 -0.2247  0.1729 -0.0444
 2058PON     CO 2058   5.300   1.842   3.638 -0.4278 -0.1270  0.2684
 2059PON     CO 2059   4.570   2.253   5.704 -0.2624 -0.2021  0.0215
 2060PON     CO 2060   1.060   5.746   1.900  0.0815 -0.0284  0.2139
 2061PON     CO 2061   4.123   5.192   2.749  0.2094 -0.0671 -0.0744
 2062PON     CO 2062   2.806   2.717   1.127 -0.1776 -0.0267  0.0069
 2063PON     CO 2063   0.815   4.588   2.564  0.1150  0.2545  0.2161
 2064PON     CO 2064   0.669   0.205   5.333  0.2220 -0.1458  0.3189
 2065PON     CO 2065   0.441   6.256   5.705  0.0466 -0.1635 -0.1984
 2066PON     CO 2066   6.297   3.521   4.371 -0.0422  0.0297  0.0996
 2067PON     CO 2067   0.992   4.096   4.440 -0.2175  0.0338  0.0746
 2068PON     CO 2068   0.697   6.133   4.256  0.1139 -0.1542 -0.3051
 2069PON     CO 2069   1.023   2.631   2.032 -0.1122  0.1990 -0.1334
 2070PON     CO 2070   6.390   2.317   6.219 -0.4771  0.1426 -0.2996
 2071PON     CO 2071   0.680   2.609   2.938  0.1643 -0.3131  0.1510
 2072PON     CO 2072   2.458   4.474   3.356 -0.3244 -0.1788 -0.4278
 2073PON     CO 2073   3.776   1.286   3.350 -0.2559 -0.2443 -0.0614
 2074PON     CO 2074   4.560   1.275   3.677  0.1800 -0.0909 -0.0638
 2075PON     CO 2075   5.932   6.393   0.450  0.1058 -0.1276  0.5739
 2076PON     CO 2076   6.135   5.986   4.772  0.4296  0.1297 -0.0581
 2077PON     CO 2077   3.088   4.963   2.788  0.0726  0.2413  0.1702
 2078PON     CO 2078   3.848   5.650   1.765  0.0658  0.0235  0.3281
 2079PON     CO 2079   0.222   4.523   0.613  0.0019  0.3826 -0.0467
 2080PON     CO 2080   5.897   3.619   1.356 -0.2586  0.0803 -0.0218
 2081PON     CO 2081   5.328   0.416   4.808  0.2528 -0.0214 -0.1150
 2082PON     CO 2082   4.579   1.381   5.305 -0.3448  0.0957 -0.0292
 2083PON     CO 2083   2.496   4.762   2.824 -0.0848 -0.1206  0.1316
 2084PON     CO 2084   5.823   2.706   1.697 -0.0385 -0.0399 -0.6679
 2085PON     CO 2085   0.019   6.151   6.218  0.0234  0.1722  0.0378
 2086PON     CO 2086   3.506   3.525   0.099 -0.0288 -0.0147  0.0776
 2087PON     CO 2087   1.820   0.417   1.750 -0.0533 -0.2167 -0.1357
 2088PON     CO 2088   3.601   4.468   2.585 -0.2311 -0.0601  0.3240
 2089PON     CO 2089   1.219   4.621   1.671  0.0459 -0.0839 -0.1094
 2090PON     CO 2090   2.493   5.915   1.835 -0.0129  0.1050 -0.1162
 2091PON     CO 2091   1.071   2.868   0.185  0.0521 -0.1967  0.0709
 2092PON     CO 2092   5.309   4.004   1.883  0.1724  0.0102  0.0073
 2093PON     CO 2093   2.728   2.457   2.086 -0.0609 -0.3162 -0.0930
 2094PON     CO 2094   0.765   0.554   1.791  0.0796 -0.0629  0.1079
 2095PON     CO 2095   3.829   3.609   0.834  0.1283  0.1499  0.1137
 2096PON     CO 2096   3.853   6.463   6.453 -0.3390 -0.0393 -0.0663
 2097PON     CO 2097   2.030   5.254   6.268 -0.2268  0.2621 -0.0428
 2098PON     CO 2098   1.947   1.789   0.954 -0.0650 -0.1022 -0.2808
 2099PON     CO 2099   2.296   5.652   3.646 -0.4303 -0.2158  0.0608
 2100PON     CO 2100   4.276   1.010   3.379 -0.2330 -0.0173  0.3311
 2101PON     CO 2101   5.000   5.073   4.614  0.0547  0.0085  0.1005
 2102PON     CO 2102   2.067   3.381   6.484 -0.0335  0.0270 -0.1622
 2103PON     CO 2103   2.874   3.382   0.378  0.0941  0.1868  0.5298
 2104PON     CO 2104   0.673   3.434   3.579  0.1868 -0.0576  0.3579
 2105PON     CO 2105   4.631   3.986   6.206  0.2471 -0.1402 -0.1850
 2106PON     CO 2106   2.983   2.625   4.562 -0.0962 -0.0438 -0.0220
 2107PON     CO 2107   4.867   3.596   5.193 -0.0329 -0.1128 -0.3738
 2108PON     CO 2108   6.271   1.990   3.888  0.2957 -0.1146  0.1666
 2109PON     CO 2109   6.016   0.946   4.508 -0.2263  0.1452  0.0236
 2110PON     CO 2110   5.654   3.687   4.176 -0.0196  0.2122 -0.1364
 2111PON     CO 2111   2.504   4.945   0.117  0.0184  0.0370 -0.2731
 2112PON     CO 2112   5.454   3.377   6.262  0.3284  0.0904 -0.1628
 2113PON     CO 2113   1.301   4.579   2.206  0.0340 -0.0229  0.0640
 2114PON     CO 2114   0.568   0.869   6.389  0.1359  0.1929 -0.4454
 2115PON     CO 2115   2.243   3.883   1.659  0.0234 -0.4139 -0.1008
 2116PON     CO 2116   5.004   3.176   5.505  0.4067 -0.2187  0.2064
 2117PON     CO 2117   1.272   1.686   1.766 -0.1967  0.1026 -0.2497
 2118PON     CO 2118   5.440   2.552   5.817  0.1867  0.0280  0.1804
 2119PON     CO 2119   2.865   0.809   3.133 -0.0179 -0.2418 -0.2107
 2120PON     CO 2120   1.163   1.729   4.043  0.0420  0.1154 -0.2517
 2121PON     CO 2121   6.222   1.296   6.468  0.5380 -0.3339 -0.0855
 2122PON     CO 2122   6.291   1.766   2.698  0.2053 -0.0167 -0.1434
 2123PON     CO 2123   5.008   2.909   2.274  0.0879  0.1216  0.1873
 2124PON     CO 2124   4.033   0.299   1.077  0.0036  0.2634 -0.1505
 2125PON     CO 2125   4.374   5.696   3.858 -0.0477  0.1781  0.0166
 2126PON     CO 2126   0.054   4.165   0.283 -0.3179  0.2565  0.1429
 2127PON     CO 2127   2.043   6.320   1.317  0.1224  0.0789  0.1979
 2128PON     CO 2128   4.933   3.531   3.747  0.0689 -0.4479 -0.0735
 2129PON     CO 2129   4.081   2.236   3.938 -0.0048  0.1628 -0.1408
 2130PON     CO 2130   1.079   1.810   0.991 -0.2225  0.0209  0.0215
 2131PON     CO 2131   3.508   6.000   2.741 -0.0363  0.2517  0.1201
 2132PON     CO 2132   4.869   0.051   1.164  0.0499  0.0583  0.0666
 2133PON     CO 2133   1.483   2.679   1.792 -0.0200 -0.4236 -0.4544
 2134PON     CO 2134   6.103   6.296   2.351  0.0855  0.0221  0.2415
 2135PON     CO 2135   5.246   2.747   3.624  0.2467  0.1010  0.3567
 2136PON     CO 2136   2.158   0.932   1.866  0.1390  0.1600  0.0699
 2137PON     CO 2137   0.426   1.012   0.343  0.1207  0.0324  0.2146
 2138PON     CO 2138   2.873   6.272   1.932 -0.1043 -0.1730  0.1684
 2139PON     CO 2139   1.246   5.145   6.214  0.0812 -0.1108  0.0051
 2140PON     CO 2140   6.496   2.067   4.924 -0.0822  0.1809  0.0380
 2141PON     CO 2141   5.568   0.932   3.366  0.1165 -0.1660 -0.1022
 2142PON     CO 2142   3.561   2.879   3.592  0.3891  0.1211  0.2318
 2143PON     CO 2143   6.266   5.337   3.597  0.2636 -0.2214  0.2188
 2144PON     CO 2144   1.584   1.436   1.004 -0.0881 -0.0804 -0.1171
 2145PON     CO 2145   5.376   2.591   2.689 -0.2549 -0.0304 -0.2366
 2146PON     CO 2146   5.932   3.653   6.212 -0.2647 -0.1369 -0.0658
 2147PON     CO 2147   5.039   6.428   3.984  0.1160 -0.2055 -0.3327
 2148PON     CO 2148   5.528   5.569   4.876  0.0114 -0.1884 -0.1573
 2149PON     CO 2149   4.193   3.853   4.580 -0.0773 -0.2522  0.1211
 2150PON     CO 2150   3.169   1.593   3.086 -0.3247  0.0024 -0.0559
 2151PON     CO 2151   2.818   0.941   1.230 -0.4007  0.3464 -0.1549
 2152PON     CO 2152   0.667   5.906   5.379  0.3369  0.0753 -0.2630
 2153PON     CO 2153   1.905   3.985   6.246 -0.1799 -0.0273  0.3814
 2154PON     CO 2154   4.464   5.168   5.791 -0.0796 -0.1093 -0.0960
 2155PON     CO 2155   6.451   1.537   2.236 -0.0531 -0.0576  0.2168
 2156PON     CO 2156   2.720   1.138   2.263 -0.2615  0.4242  0.2582
 2157PON     CO 2157   6.247   2.334   5.719 -0.0171  0.1692  0.2567
 2158PON     CO 2158   4.186   2.116   2.523 -0.1047 -0.0537  0.3089
 2159PON     CO 2159   0.725   4.769   5.587  0.0572 -0.2131  0.2075
 2160PON     CO 2160   1.565   4.004   0.552 -0.0956 -0.1704  0.2943
 2161PON     CO 2161   4.151   5.746   2.784 -0.1203 -0.0802 -0.0456
 2162PON     CO 2162   5.176   2.171   0.073 -0.1351  0.1072  0.0524
 2163PON     CO 2163   6.027   3.539   5.409 -0.0896  0.2642 -0.1386
 2164PON     CO 2164   3.057   3.550   4.054  0.3967 -0.3211 -0.2478
 2165PON     CO 2165   2.442   6.297   0.316 -0.2041 -0.0900  0.0943
 2166PON     CO 2166   3.751   4.938   0.430 -0.1331  0.0203 -0.0226
 2167PON     CO 2167   2.544   5.766   0.797  0.0160 -0.0065 -0.2021
 2168PON     CO 2168   4.634   2.215   0.042 -0.1600  0.2076 -0.0675
 2169PON     CO 2169   6.042   4.233   5.572 -0.0175  0.0883  0.0247
 2170PON     CO 2170   5.818   0.564   2.035  0.0899 -0.2143 -0.3083
 2171PON     CO 2171   2.792   3.723   1.230  0.1333  0.0970 -0.0520
 2172PON     CO 2172   5.814   4.124   1.610 -0.0796  0.2230  0.2940
 2173PON     CO 2173   2.423   3.129   0.173  0.0382 -0.0977  0.1331
 2174PON     CO 2174   2.711   3.652   3.703 -0.0559  0.0955  0.0986
 2175PON     CO 2175   4.507   2.066   3.684  0.1828 -0.2632 -0.4137
 2176PON     CO 2176   5.957   1.032   4.999  0.2431 -0.0205 -0.2560
 2177PON     CO 2177   2.183   6.318   4.435  0.0943  0.0634 -0.0386
 2178PON     CO 2178   2.551   3.544   4.222  0.1202 -0.1121 -0.2007
 2179PON     CO 2179   6.502   3.354   1.629 -0.0733  0.0263 -0.0415
 2180PON     CO 2180   3.200   4.326   0.531  0.1012 -0.1566 -0.0027
 2181PON     CO 2181   3.936   2.867   5.553 -0.1382 -0.2837  0.1610
 2182PON     CO 2182   3.386   5.476   4.863 -0.0055  0.1823 -0.4875
 2183PON     CO 2183   5.498   4.876   4.979 -0.0877 -0.1523 -0.0237
 2184PON     CO 2184   3.021   6.345   6.033  0.1809  0.1310 -0.0172
 2185PON     CO 2185   6.080   2.883   0.329 -0.0862  0.3044  0.1031
 2186PON     CO 2186   6.318   0.287   2.355 -0.0895  0.3711  0.1810
 2187PON     CO 2187   2.156   2.850   2.719 -0.0454  0.1838 -0.2260
 2188PON     CO 2188   1.222   1.445   0.689  0.1167  0.1047  0.4050
 2189PON     CO 2189   2.346   2.209   0.796  0.0540  0.3770 -0.1362
 2190PON     CO 2190   1.174   6.314   2.525  0.0620  0.2128 -0.1167
 2191PON     CO 2191   0.719   1.437   6.420 -0.1730 -0.3688  0.2473
 2192PON     CO 2192   3.815   1.243   0.459  0.3394  0.2354 -0.0732
 2193PON     CO 2193   2.024   3.839   5.042  0.1828  0.0758 -0.4860
 2194PON     CO 2194   1.652   4.730   5.090  0.0849  0.0608  0.1335
 2195PON     CO 2195   3.129   1.186   2.737  0.2285  0.1333  0.0095
 2196PON     CO 2196   5.319   0.385   1.934 -0.2086 -0.3326  0.4027
 2197PON     CO 2197   4.527   5.906   0.908 -0.0027  0.1112 -0.1753
   6.52695   6.52695   6.52695
