Acetamide box
 2197
    1ACE    NCO    1   0.399   2.653   4.564 -0.0563  0.2245 -0.0682
    2ACE    NCO    2   1.897   5.416   4.338 -0.0543 -0.1003 -0.1652
    3ACE    NCO    3   3.635   3.619   3.660  0.2546 -0.1550  0.1208
    4ACE    NCO    4   1.075   4.596   0.955 -0.1320 -0.0353  0.0397
    5ACE    NCO    5   4.920   0.994   5.438 -0.0974 -0.0186  0.1682
    6ACE    NCO    6   0.597   3.595   4.348  0.0311 -0.0158 -0.0289
    7ACE    NCO    7   2.780   1.328   4.583  0.0540 -0.1295 -0.4353
    8ACE    NCO    8   4.631   5.288   3.028  0.0867  0.2370 -0.2171
    9ACE    NCO    9   0.251   5.281   6.012 -0.1840  0.0797  0.1024
   10ACE    NCO   10   4.123   0.855   1.775  0.1011 -0.0074  0.3227
   11ACE    NCO   11   2.035   0.454   1.379  0.2946 -0.3096 -0.1891
   12ACE    NCO   12   3.841   4.925   5.883 -0.0919  0.0061  0.2316
   13ACE    NCO   13   0.126   3.441   4.206  0.2867 -0.1181  0.1070
   14ACE    NCO   14   1.472   2.900   3.486  0.1315  0.0025 -0.3352
   15ACE    NCO   15   3.869   3.992   4.336  0.5336  0.0212  0.1094
   16ACE    NCO   16   3.482   0.793   0.530  0.1009  0.1097  0.3833
   17ACE    NCO   17   0.259   5.917   3.798  0.1003 -0.0343  0.1074
   18ACE    NCO   18   1.867   1.084   1.920 -0.1913 -0.5250 -0.0075
   19ACE    NCO   19   5.109   2.865   3.119  0.2023  0.2059 -0.2941
   20ACE    NCO   20   5.648   5.244   2.394  0.0071 -0.3728 -0.1913
   21ACE    NCO   21   3.174   3.542   3.409  0.2214 -0.1849  0.1177
   22ACE    NCO   22   3.589   2.157   4.140 -0.2335  0.0583  0.1416
   23ACE    NCO   23   2.288   1.188   4.449 -0.0034 -0.2971 -0.0393
   24ACE    NCO   24   1.416   6.089   2.390  0.1372  0.1961  0.2526
   25ACE    NCO   25   3.851   5.477   1.304  0.2638 -0.0828  0.2186
   26ACE    NCO   26   2.499   5.779   2.258  0.3422 -0.2503 -0.0844
   27ACE    NCO   27   0.214   4.435   1.067  0.1874  0.3203  0.1039
   28ACE    NCO   28   3.693   3.097   2.148  0.2755  0.3726 -0.0869
   29ACE    NCO   29   1.645   4.488   5.469 -0.0946 -0.0175  0.0920
   30ACE    NCO   30   4.142   4.676   1.226 -0.0326  0.0682 -0.2063
   31ACE    NCO   31   4.743   1.227   0.204  0.0325  0.0248  0.2488
   32ACE    NCO   32   5.272   2.160   4.886 -0.0043  0.1984  0.1076
   33ACE    NCO   33   5.410   3.599   0.557 -0.2278  0.2107 -0.1393
   34ACE    NCO   34   2.641   3.904   4.721 -0.0548 -0.0284  0.0558
   35ACE    NCO   35   0.414   2.482   0.705 -0.2184 -0.1637 -0.1455
   36ACE    NCO   36   0.640   3.496   2.906 -0.2386 -0.1144  0.1169
   37ACE    NCO   37   3.534   3.522   0.804  0.1801  0.2406  0.0572
   38ACE    NCO   38   0.378   2.561   4.063 -0.0841  0.1803  0.1422
   39ACE    NCO   39   1.198   4.674   4.854 -0.2210 -0.0269 -0.0679
   40ACE    NCO   40   4.363   1.576   0.155  0.1429 -0.0475  0.0874
   41ACE    NCO   41   1.191   2.826   1.994  0.0979 -0.0093 -0.2396
   42ACE    NCO   42   0.169   4.664   3.992 -0.1952  0.1103  0.2473
   43ACE    NCO   43   1.133   5.325   1.627 -0.0420 -0.0946  0.3900
   44ACE    NCO   44   3.043   2.856   5.122  0.1711  0.1421 -0.2112
   45ACE    NCO   45   3.726   4.182   3.785  0.2172  0.0052 -0.1467
   46ACE    NCO   46   1.572   0.896   2.700 -0.0480  0.2220  0.0212
   47ACE    NCO   47   3.414   1.521   3.541 -0.0279  0.0273 -0.2236
   48ACE    NCO   48   6.072   3.186   3.566 -0.0618 -0.1787 -0.1447
   49ACE    NCO   49   5.856   3.572   0.215 -0.1263 -0.0161  0.1911
   50ACE    NCO   50   2.514   0.500   0.157 -0.0094  0.0961 -0.0274
   51ACE    NCO   51   5.117   1.731   3.733  0.1422 -0.2918  0.0744
   52ACE    NCO   52   3.710   1.166   1.679  0.0552 -0.0045 -0.2605
   53ACE    NCO   53   1.273   1.402   5.536  0.0484 -0.0667  0.1764
   54ACE    NCO   54   4.204   1.388   1.929  0.0095 -0.0378 -0.2211
   55ACE    NCO   55   0.091   1.766   3.324  0.1551  0.1280  0.0892
   56ACE    NCO   56   0.125   5.247   3.147 -0.2470 -0.1874  0.1288
   57ACE    NCO   57   5.833   3.506   5.844 -0.3673  0.0695 -0.1820
   58ACE    NCO   58   4.405   1.213   2.445  0.0969  0.1342 -0.1349
   59ACE    NCO   59   4.598   0.113   4.615 -0.4255  0.0459  0.2282
   60ACE    NCO   60   2.431   5.913   4.202  0.3019  0.1146  0.0317
   61ACE    NCO   61   4.595   5.643   4.978 -0.1317  0.0126  0.0454
   62ACE    NCO   62   3.172   5.454   0.081  0.2396 -0.3240  0.0771
   63ACE    NCO   63   0.159   0.075   4.804 -0.0629 -0.1124 -0.2659
   64ACE    NCO   64   3.999   3.456   5.203 -0.0410  0.1736 -0.0667
   65ACE    NCO   65   4.591   2.067   1.281  0.0369  0.3910  0.0685
   66ACE    NCO   66   2.754   4.785   1.690 -0.3339 -0.2005  0.2328
   67ACE    NCO   67   5.941   4.641   0.529 -0.2730 -0.0644  0.0477
   68ACE    NCO   68   5.508   4.913   3.734 -0.1453 -0.0968  0.1287
   69ACE    NCO   69   5.846   2.720   4.774 -0.0059  0.0275  0.1969
   70ACE    NCO   70   3.518   0.349   2.866 -0.1602  0.2231  0.0037
   71ACE    NCO   71   4.963   0.146   4.286 -0.2077 -0.1367  0.0025
   72ACE    NCO   72   0.806   4.942   1.883 -0.0794  0.1965  0.1731
   73ACE    NCO   73   3.635   0.707   1.577 -0.2091 -0.1327 -0.0943
   74ACE    NCO   74   1.305   6.115   0.445 -0.0376 -0.0752 -0.1298
   75ACE    NCO   75   1.819   2.383   5.507  0.1214 -0.2676  0.5785
   76ACE    NCO   76   5.621   0.326   3.182 -0.2358 -0.1620 -0.1420
   77ACE    NCO   77   3.622   4.995   4.859  0.1682 -0.0502  0.0817
   78ACE    NCO   78   1.208   1.032   5.890  0.1299  0.1412 -0.0943
   79ACE    NCO   79   4.275   5.129   6.078  0.0019  0.1430  0.1415
   80ACE    NCO   80   5.173   4.476   3.992  0.1133  0.0705  0.0865
   81ACE    NCO   81   3.976   4.536   4.912 -0.0557 -0.1750 -0.0507
   82ACE    NCO   82   5.023   2.962   4.530  0.0690  0.0704 -0.0342
   83ACE    NCO   83   4.132   2.986   0.388 -0.0379  0.0882  0.0739
   84ACE    NCO   84   6.064   0.137   3.759 -0.0526 -0.2216  0.0018
   85ACE    NCO   85   2.595   0.356   4.897  0.1316  0.3826  0.0383
   86ACE    NCO   86   2.622   1.539   4.140  0.1167 -0.2145  0.2897
   87ACE    NCO   87   0.536   3.480   1.036 -0.0817 -0.3725 -0.1288
   88ACE    NCO   88   3.716   4.995   1.179  0.3064 -0.1424  0.0498
   89ACE    NCO   89   3.241   3.381   2.070  0.1869  0.0648  0.2293
   90ACE    NCO   90   1.522   5.772   4.254  0.3215 -0.2409 -0.2247
   91ACE    NCO   91   0.319   3.681   1.473  0.0306  0.0203 -0.0897
   92ACE    NCO   92   0.512   1.196   1.386 -0.0858 -0.1636  0.1429
   93ACE    NCO   93   5.943   1.775   0.377 -0.1084  0.1479  0.0926
   94ACE    NCO   94   4.129   5.486   4.736 -0.1884 -0.1197 -0.0140
   95ACE    NCO   95   3.506   6.111   5.621 -0.2072 -0.0904  0.3728
   96ACE    NCO   96   4.415   2.025   5.040  0.2969  0.2428 -0.1735
   97ACE    NCO   97   2.336   0.766   1.099  0.3310  0.3175 -0.1470
   98ACE    NCO   98   3.912   1.330   4.684 -0.4484 -0.4518 -0.2663
   99ACE    NCO   99   2.918   5.741   1.977 -0.1541  0.1391  0.1313
  100ACE    NCO  100   1.767   3.917   0.144 -0.1901  0.0022  0.1009
  101ACE    NCO  101   1.280   4.972   0.722 -0.2923  0.0603  0.0180
  102ACE    NCO  102   1.256   2.439   4.790  0.1066 -0.0590  0.0114
  103ACE    NCO  103   2.412   4.248   3.276  0.1504 -0.1135  0.0379
  104ACE    NCO  104   1.080   4.924   4.409 -0.0407 -0.3151  0.1045
  105ACE    NCO  105   5.104   0.892   0.270 -0.1540 -0.1356  0.0459
  106ACE    NCO  106   0.272   0.844   0.735 -0.0644 -0.1394  0.0278
  107ACE    NCO  107   2.421   0.747   2.980 -0.1233  0.2593  0.1845
  108ACE    NCO  108   2.369   0.559   5.297  0.3087  0.1672 -0.0242
  109ACE    NCO  109   0.484   2.979   0.872  0.1631  0.2101 -0.0426
  110ACE    NCO  110   1.698   2.703   0.352  0.1811 -0.4146 -0.3388
  111ACE    NCO  111   5.129   2.220   1.516  0.3247 -0.0102  0.0419
  112ACE    NCO  112   6.141   2.637   5.792 -0.0938 -0.2532  0.2580
  113ACE    NCO  113   3.335   1.487   1.120 -0.2564 -0.0672 -0.0728
  114ACE    NCO  114   0.637   1.678   1.577  0.0452 -0.1366  0.0235
  115ACE    NCO  115   3.395   5.346   1.078  0.3155 -0.3173 -0.2073
  116ACE    NCO  116   3.462   3.735   0.252  0.2284  0.1001 -0.2705
  117ACE    NCO  117   0.630   3.686   4.882  0.0849  0.0058 -0.0524
  118ACE    NCO  118   4.082   1.155   5.156  0.0439  0.0972 -0.0369
  119ACE    NCO  119   0.566   4.508   5.943  0.0674  0.4650  0.1125
  120ACE    NCO  120   4.190   4.985   0.840  0.2940  0.1748 -0.2360
  121ACE    NCO  121   3.242   0.239   4.127  0.1470  0.2362 -0.0035
  122ACE    NCO  122   3.288   3.343   3.929 -0.1652  0.1835  0.2770
  123ACE    NCO  123   5.056   3.511   2.746 -0.0838  0.2043  0.1181
  124ACE    NCO  124   5.541   2.384   1.745 -0.0862  0.3597 -0.3128
  125ACE    NCO  125   2.042   1.619   1.136  0.0365  0.0278 -0.0045
  126ACE    NCO  126   0.965   5.541   4.968  0.0094  0.1664  0.0826
  127ACE    NCO  127   2.667   2.708   1.189  0.2192  0.0343  0.3610
  128ACE    NCO  128   5.008   1.113   3.115  0.1929 -0.1119 -0.0573
  129ACE    NCO  129   3.252   4.284   5.607 -0.2274  0.0382 -0.1968
  130ACE    NCO  130   1.418   2.137   1.493  0.1708  0.1631 -0.1328
  131ACE    NCO  131   2.157   5.827   0.275  0.0480  0.0166 -0.1844
  132ACE    NCO  132   4.510   3.673   5.904 -0.0292  0.2230  0.0220
  133ACE    NCO  133   4.096   6.113   4.404 -0.1106 -0.0241  0.0489
  134ACE    NCO  134   4.210   3.517   0.537  0.0997 -0.2073 -0.0822
  135ACE    NCO  135   3.135   4.098   4.977 -0.2609 -0.0828 -0.1627
  136ACE    NCO  136   0.420   3.531   1.946 -0.1093 -0.1388 -0.0230
  137ACE    NCO  137   0.746   3.830   1.680 -0.1747 -0.2924 -0.0638
  138ACE    NCO  138   1.496   1.505   1.871 -0.2036  0.0941  0.1917
  139ACE    NCO  139   0.211   3.158   1.257  0.0031 -0.2404 -0.2545
  140ACE    NCO  140   5.113   2.459   5.835 -0.0913  0.1327 -0.1960
  141ACE    NCO  141   6.124   2.286   0.481 -0.0372  0.1818  0.0875
  142ACE    NCO  142   0.004   0.615   3.953  0.0682  0.2913  0.2105
  143ACE    NCO  143   3.335   2.524   0.473 -0.1698  0.1500  0.0105
  144ACE    NCO  144   0.985   1.254   3.980  0.0327  0.2415 -0.0403
  145ACE    NCO  145   4.263   0.883   4.185 -0.1562  0.1500 -0.0976
  146ACE    NCO  146   1.914   2.998   3.747  0.0029 -0.2668  0.0315
  147ACE    NCO  147   2.621   5.625   3.307  0.1696 -0.2510 -0.1701
  148ACE    NCO  148   5.947   4.802   1.018  0.1275 -0.0981  0.1745
  149ACE    NCO  149   2.110   1.578   3.041 -0.0114  0.0317  0.0669
  150ACE    NCO  150   1.101   2.749   5.732  0.1095  0.2409  0.0109
  151ACE    NCO  151   4.912   0.490   1.506 -0.0375  0.0050  0.2214
  152ACE    NCO  152   6.144   5.393   2.666 -0.4485 -0.1761 -0.1439
  153ACE    NCO  153   0.298   5.802   6.124  0.0314 -0.4675 -0.2695
  154ACE    NCO  154   0.703   3.997   3.067  0.1362  0.2077  0.0624
  155ACE    NCO  155   6.019   5.344   1.165  0.0737  0.0448 -0.0914
  156ACE    NCO  156   0.695   2.202   1.658 -0.1891  0.3378 -0.0080
  157ACE    NCO  157   1.868   1.718   0.157 -0.0146 -0.0549  0.1150
  158ACE    NCO  158   5.876   3.120   2.467  0.0748  0.1656  0.0909
  159ACE    NCO  159   2.761   2.127   1.974 -0.3036  0.0650  0.3162
  160ACE    NCO  160   3.339   0.050   4.649 -0.1513  0.4316 -0.0271
  161ACE    NCO  161   5.084   4.695   3.528 -0.2518 -0.2024 -0.0591
  162ACE    NCO  162   1.850   3.832   1.118 -0.0580  0.2146 -0.2015
  163ACE    NCO  163   5.632   2.375   4.133  0.0544  0.1073 -0.3029
  164ACE    NCO  164   5.825   0.867   0.055 -0.3614 -0.1892 -0.1953
  165ACE    NCO  165   1.484   4.522   4.452  0.0537 -0.0240  0.0108
  166ACE    NCO  166   1.733   0.003   0.206 -0.1366  0.2587  0.0996
  167ACE    NCO  167   3.127   3.523   1.127 -0.3545  0.5468  0.1188
  168ACE    NCO  168   5.542   1.815   3.444 -0.0148 -0.0757 -0.2251
  169ACE    NCO  169   1.146   4.610   1.987  0.1191  0.1104 -0.0616
  170ACE    NCO  170   0.102   5.755   4.721  0.1875 -0.3970 -0.1545
  171ACE    NCO  171   5.319   2.047   4.411 -0.2318 -0.0393 -0.1935
  172ACE    NCO  172   4.858   1.320   2.628 -0.1545  0.1961 -0.0002
  173ACE    NCO  173   1.659   2.313   0.741  0.2381 -0.3090 -0.0920
  174ACE    NCO  174   4.885   0.634   2.931 -0.0290 -0.0287 -0.0263
  175ACE    NCO  175   2.144   1.332   3.947 -0.0011  0.0043 -0.1271
  176ACE    NCO  176   3.967   2.793   3.595  0.0844  0.0821 -0.2579
  177ACE    NCO  177   5.250   5.445   1.832 -0.3091 -0.0799  0.0977
  178ACE    NCO  178   0.652   4.565   2.215 -0.2505 -0.1088  0.0687
  179ACE    NCO  179   2.093   3.934   3.561  0.1064 -0.4749 -0.0088
  180ACE    NCO  180   2.227   0.796   2.041 -0.1151 -0.1102 -0.2489
  181ACE    NCO  181   2.963   3.828   4.354  0.1287 -0.0657 -0.3847
  182ACE    NCO  182   1.698   5.184   2.285  0.4113 -0.2119 -0.2358
  183ACE    NCO  183   4.247   3.789   2.472  0.4034 -0.0599  0.0503
  184ACE    NCO  184   2.929   0.106   0.203  0.0733 -0.1743  0.0815
  185ACE    NCO  185   4.949   3.397   5.964  0.0446  0.3483 -0.0817
  186ACE    NCO  186   3.687   4.007   3.294 -0.0485  0.1772 -0.1620
  187ACE    NCO  187   1.639   0.715   5.998  0.0390 -0.1706  0.3269
  188ACE    NCO  188   6.121   5.491   0.284 -0.0013 -0.0215  0.2563
  189ACE    NCO  189   2.976   1.212   5.660 -0.1607  0.1368  0.0873
  190ACE    NCO  190   0.454   3.796   3.901  0.0095 -0.1968 -0.2240
  191ACE    NCO  191   0.807   2.154   0.829  0.0909  0.2143  0.2194
  192ACE    NCO  192   1.042   1.413   4.474  0.1878  0.1914 -0.2259
  193ACE    NCO  193   0.739   4.331   1.696  0.2684  0.3318 -0.1799
  194ACE    NCO  194   3.610   0.582   1.023  0.4385 -0.0753  0.4288
  195ACE    NCO  195   1.725   2.977   2.210  0.1418 -0.1495 -0.0692
  196ACE    NCO  196   6.040   6.045   5.597  0.1043  0.0045  0.2534
  197ACE    NCO  197   2.370   2.420   1.954 -0.1001 -0.3027  0.5709
  198ACE    NCO  198   5.430   3.432   0.035  0.2051 -0.2930  0.0212
  199ACE    NCO  199   0.094   6.090   4.241  0.1747  0.0404 -0.3373
  200ACE    NCO  200   2.603   2.697   4.897 -0.1310 -0.1157 -0.0328
  201ACE    NCO  201   2.888   0.660   4.082 -0.2877 -0.0316  0.0164
  202ACE    NCO  202   5.331   2.866   5.527  0.2228 -0.0580 -0.0507
  203ACE    NCO  203   1.971   1.681   4.908 -0.0361  0.0808  0.0089
  204ACE    NCO  204   2.447   6.005   4.692 -0.1018  0.0595  0.0243
  205ACE    NCO  205   5.381   0.327   2.079 -0.0219  0.2826 -0.2136
  206ACE    NCO  206   1.793   1.751   3.892  0.2125  0.0859  0.1573
  207ACE    NCO  207   5.445   1.984   2.952 -0.2124  0.1956 -0.0930
  208ACE    NCO  208   0.115   0.031   1.870  0.0767  0.1455  0.3164
  209ACE    NCO  209   1.175   0.517   5.794 -0.1751 -0.1377 -0.0557
  210ACE    NCO  210   4.897   4.839   2.566  0.0291  0.1294 -0.0465
  211ACE    NCO  211   4.783   4.981   4.376  0.2702  0.3267 -0.2053
  212ACE    NCO  212   1.361   5.958   4.712  0.0503 -0.2945  0.0728
  213ACE    NCO  213   2.376   0.317   3.363  0.1502 -0.1508 -0.0452
  214ACE    NCO  214   4.354   4.518   0.798  0.2368 -0.1179 -0.3294
  215ACE    NCO  215   1.448   5.234   4.158  0.2826  0.1630  0.2571
  216ACE    NCO  216   4.961   6.048   2.350 -0.1134  0.1381  0.1254
  217ACE    NCO  217   1.175   0.722   1.037 -0.1325  0.0342  0.1317
  218ACE    NCO  218   4.772   4.618   1.015 -0.0041 -0.0328  0.1991
  219ACE    NCO  219   4.419   2.104   0.291  0.1547  0.0084 -0.0618
  220ACE    NCO  220   3.800   4.203   2.390 -0.0810 -0.1030  0.0146
  221ACE    NCO  221   2.890   5.324   2.329  0.2714  0.1856  0.0305
  222ACE    NCO  222   5.783   1.407   1.092 -0.0582  0.0168 -0.1286
  223ACE    NCO  223   3.574   5.811   3.166  0.0913  0.0261 -0.0281
  224ACE    NCO  224   2.070   0.405   6.077 -0.3490  0.1532  0.1946
  225ACE    NCO  225   0.539   1.286   1.913  0.0515 -0.0683  0.1278
  226ACE    NCO  226   4.515   6.003   2.139  0.0258  0.1260  0.1422
  227ACE    NCO  227   5.589   0.869   5.167 -0.1352 -0.1754 -0.1485
  228ACE    NCO  228   0.092   2.401   2.957  0.0784  0.0955  0.1154
  229ACE    NCO  229   1.362   4.183   5.710 -0.0774  0.0615 -0.2283
  230ACE    NCO  230   3.276   5.830   4.980 -0.4290  0.0892 -0.0227
  231ACE    NCO  231   5.735   0.899   0.990  0.2116  0.3157  0.0964
  232ACE    NCO  232   0.763   2.021   0.297 -0.2169  0.0543  0.1938
  233ACE    NCO  233   4.066   0.152   5.827  0.2055  0.1170  0.1836
  234ACE    NCO  234   0.181   0.480   4.426 -0.1711  0.0700  0.1289
  235ACE    NCO  235   0.719   5.596   1.511 -0.0640 -0.0677  0.0862
  236ACE    NCO  236   6.011   1.384   2.117 -0.0482  0.2854 -0.1237
  237ACE    NCO  237   5.902   4.503   0.015 -0.2153 -0.0604 -0.1387
  238ACE    NCO  238   1.063   0.140   0.900 -0.0602 -0.0270 -0.1513
  239ACE    NCO  239   6.155   3.023   4.510  0.2625  0.0818  0.2525
  240ACE    NCO  240   0.959   4.505   5.672 -0.1292 -0.1199 -0.0464
  241ACE    NCO  241   0.818   0.010   1.699 -0.0439  0.0942 -0.0699
  242ACE    NCO  242   4.544   2.782   4.298  0.0996  0.0317 -0.0716
  243ACE    NCO  243   4.566   1.934   0.793 -0.3055  0.0300 -0.2851
  244ACE    NCO  244   3.509   1.701   4.581  0.0115  0.2792  0.2842
  245ACE    NCO  245   3.818   0.557   2.013  0.0785 -0.1403  0.0533
  246ACE    NCO  246   1.126   0.591   3.396 -0.1768 -0.0623  0.1363
  247ACE    NCO  247   2.126   2.900   0.478  0.3329  0.0304 -0.1574
  248ACE    NCO  248   0.977   2.223   5.671 -0.3619 -0.0089  0.1823
  249ACE    NCO  249   1.137   0.890   2.946  0.0271  0.0202  0.0015
  250ACE    NCO  250   0.783   4.098   3.596  0.0877 -0.2013 -0.0007
  251ACE    NCO  251   5.553   4.155   4.052  0.2202  0.5145 -0.1476
  252ACE    NCO  252   5.649   6.067   5.861  0.0479  0.1809 -0.2007
  253ACE    NCO  253   2.868   3.877   1.990  0.0056 -0.1016  0.0121
  254ACE    NCO  254   5.087   1.617   3.226  0.1500  0.0080  0.0557
  255ACE    NCO  255   1.080   0.033   5.668 -0.3610 -0.0148 -0.3940
  256ACE    NCO  256   4.160   0.186   2.086  0.2849  0.1703 -0.1918
  257ACE    NCO  257   2.720   4.104   1.594 -0.1088 -0.0746  0.0584
  258ACE    NCO  258   5.181   0.235   3.028 -0.0894  0.0695 -0.0081
  259ACE    NCO  259   0.352   0.241   4.006  0.0418  0.0327 -0.2503
  260ACE    NCO  260   5.811   1.494   1.659 -0.0030  0.1379 -0.0441
  261ACE    NCO  261   1.992   0.288   5.566 -0.1469 -0.2304  0.1409
  262ACE    NCO  262   4.506   3.195   5.807  0.1531  0.0204 -0.0258
  263ACE    NCO  263   5.383   5.040   3.276 -0.0230  0.0865 -0.3391
  264ACE    NCO  264   4.292   0.975   4.681 -0.3474  0.1442 -0.1096
  265ACE    NCO  265   5.287   5.453   4.215  0.0812  0.1081  0.2768
  266ACE    NCO  266   2.222   2.171   3.662 -0.1827  0.1498  0.4412
  267ACE    NCO  267   1.770   0.165   0.681 -0.1316  0.0318 -0.0739
  268ACE    NCO  268   1.099   1.748   4.131  0.3393 -0.0663  0.0305
  269ACE    NCO  269   4.077   0.750   1.273  0.4266 -0.2188  0.1587
  270ACE    NCO  270   3.348   1.548   1.642  0.1088 -0.0725 -0.0752
  271ACE    NCO  271   3.150   5.551   1.542  0.1672 -0.1491 -0.3738
  272ACE    NCO  272   1.488   2.748   5.442 -0.2908  0.2932 -0.2216
  273ACE    NCO  273   0.653   1.754   4.469 -0.1554  0.0873 -0.1735
  274ACE    NCO  274   4.401   1.882   4.519  0.0397 -0.0466  0.0666
  275ACE    NCO  275   3.311   5.921   0.228  0.0806  0.1032 -0.0913
  276ACE    NCO  276   1.356   2.768   1.121 -0.1345  0.4964  0.2776
  277ACE    NCO  277   1.824   6.098   4.930 -0.0285  0.0901  0.0033
  278ACE    NCO  278   2.699   4.379   1.990 -0.0490  0.0944 -0.2337
  279ACE    NCO  279   3.325   4.502   6.092  0.2144 -0.0313  0.0829
  280ACE    NCO  280   1.991   4.931   0.438 -0.4387 -0.0879  0.3723
  281ACE    NCO  281   0.387   5.290   1.841 -0.1949 -0.0423  0.1651
  282ACE    NCO  282   0.029   3.651   3.658 -0.0053  0.2143  0.1682
  283ACE    NCO  283   0.604   3.087   3.260 -0.0944 -0.0704  0.3674
  284ACE    NCO  284   0.299   2.172   4.381 -0.2815 -0.1418  0.0232
  285ACE    NCO  285   5.036   0.220   4.820  0.2087 -0.0282  0.2748
  286ACE    NCO  286   3.397   6.001   2.651  0.1812  0.1350 -0.0507
  287ACE    NCO  287   0.562   1.903   3.441 -0.1540 -0.0547 -0.2367
  288ACE    NCO  288   2.712   0.447   1.214  0.0132 -0.0453  0.1673
  289ACE    NCO  289   5.624   2.959   3.300  0.1340 -0.0956  0.2857
  290ACE    NCO  290   5.777   3.858   2.139  0.0824  0.0483  0.1931
  291ACE    NCO  291   1.850   2.545   3.583  0.0733 -0.3223  0.1732
  292ACE    NCO  292   1.869   3.497   4.776  0.1987 -0.3080 -0.1964
  293ACE    NCO  293   3.561   1.907   2.302  0.0983 -0.0097  0.0529
  294ACE    NCO  294   2.417   2.166   4.750  0.0193  0.0297  0.0492
  295ACE    NCO  295   3.529   5.455   3.513 -0.3933  0.3083  0.0625
  296ACE    NCO  296   0.857   0.866   4.350 -0.0023  0.1565  0.1217
  297ACE    NCO  297   1.480   3.317   3.169 -0.2481 -0.0520 -0.1178
  298ACE    NCO  298   4.986   1.855   2.742 -0.0897  0.1922 -0.1329
  299ACE    NCO  299   4.550   3.283   2.043  0.2463 -0.2571  0.2336
  300ACE    NCO  300   3.166   0.336   5.560  0.1724  0.2875 -0.1028
  301ACE    NCO  301   0.743   1.907   5.973  0.0507  0.2760  0.0059
  302ACE    NCO  302   6.097   2.501   4.339  0.0001 -0.0398  0.1382
  303ACE    NCO  303   5.018   1.528   6.122 -0.1747 -0.0055 -0.0882
  304ACE    NCO  304   3.155   2.121   4.572  0.1169 -0.1825  0.2798
  305ACE    NCO  305   5.583   4.459   1.364  0.1943  0.0053  0.1658
  306ACE    NCO  306   1.336   0.911   3.997  0.2342 -0.2865 -0.3324
  307ACE    NCO  307   0.348   3.271   3.754 -0.3014  0.1834  0.1148
  308ACE    NCO  308   4.573   5.249   5.294 -0.2632 -0.0928 -0.0056
  309ACE    NCO  309   1.688   1.059   5.653 -0.0177  0.1546 -0.1750
  310ACE    NCO  310   5.352   5.520   4.736 -0.0839  0.1408 -0.2391
  311ACE    NCO  311   1.777   5.353   2.829 -0.1719  0.2145  0.0081
  312ACE    NCO  312   4.552   2.993   5.287  0.0494  0.1219  0.2841
  313ACE    NCO  313   5.509   0.527   2.770 -0.1407 -0.2674  0.2148
  314ACE    NCO  314   5.483   0.823   2.269  0.1866 -0.0018  0.1189
  315ACE    NCO  315   0.993   2.020   3.650  0.1068  0.0430 -0.1350
  316ACE    NCO  316   1.371   4.788   3.946 -0.1082  0.1888  0.1825
  317ACE    NCO  317   1.488   3.430   5.099 -0.1456  0.1852  0.0630
  318ACE    NCO  318   4.422   0.807   5.199 -0.1476  0.2987  0.1463
  319ACE    NCO  319   0.912   2.592   2.793  0.2350 -0.1886 -0.0960
  320ACE    NCO  320   4.475   3.474   3.978  0.1069  0.2446  0.1702
  321ACE    NCO  321   0.482   2.848   0.369  0.0406  0.2627  0.1643
  322ACE    NCO  322   5.848   0.465   2.344 -0.1628  0.1923  0.2168
  323ACE    NCO  323   1.188   0.019   4.252  0.1432  0.3302  0.0126
  324ACE    NCO  324   1.295   2.844   4.405 -0.1978 -0.0971  0.2516
  325ACE    NCO  325   4.317   2.917   1.426  0.0273  0.0163  0.0274
  326ACE    NCO  326   1.193   1.789   2.756  0.2454 -0.1482 -0.0522
  327ACE    NCO  327   1.346   3.062   0.250 -0.3836  0.3978  0.1155
  328ACE    NCO  328   0.726   6.034   4.045  0.1706 -0.1555  0.1281
  329ACE    NCO  329   4.252   5.696   2.949  0.1485 -0.0807 -0.2355
  330ACE    NCO  330   2.191   5.016   5.264 -0.1289  0.2193  0.2310
  331ACE    NCO  331   3.344   3.180   0.124 -0.0294 -0.2207 -0.0404
  332ACE    NCO  332   2.414   0.017   6.158 -0.0315 -0.1447 -0.2620
  333ACE    NCO  333   0.934   3.798   2.666 -0.0107 -0.3418  0.0837
  334ACE    NCO  334   4.309   4.756   4.155 -0.2493 -0.2890  0.0469
  335ACE    NCO  335   5.660   5.116   4.308  0.0823  0.3106  0.0168
  336ACE    NCO  336   0.692   4.806   0.439 -0.2844  0.1708  0.2233
  337ACE    NCO  337   3.529   1.389   2.114 -0.2224  0.1211  0.2055
  338ACE    NCO  338   1.605   1.925   1.086 -0.3583 -0.0044  0.0437
  339ACE    NCO  339   2.343   3.733   5.578  0.0849  0.0865  0.2901
  340ACE    NCO  340   6.151   1.805   4.617  0.3342 -0.2591 -0.2068
  341ACE    NCO  341   0.046   4.698   2.995  0.2322 -0.3953  0.2595
  342ACE    NCO  342   2.470   4.201   5.683 -0.3454  0.1159  0.2984
  343ACE    NCO  343   0.916   3.185   1.074 -0.3214 -0.0276 -0.1665
  344ACE    NCO  344   2.757   2.757   3.502 -0.1319 -0.0166  0.2118
  345ACE    NCO  345   4.554   5.703   0.179  0.2250  0.0932 -0.4077
  346ACE    NCO  346   3.539   3.035   5.840  0.0207  0.2871 -0.0618
  347ACE    NCO  347   1.031   1.436   2.136  0.2285  0.2158  0.1475
  348ACE    NCO  348   3.818   1.123   3.646 -0.1652  0.1127 -0.0830
  349ACE    NCO  349   1.946   5.894   5.432 -0.1235 -0.2305 -0.0572
  350ACE    NCO  350   3.271   4.732   0.423 -0.3381 -0.1649 -0.2037
  351ACE    NCO  351   2.747   0.791   0.747  0.1150  0.0368 -0.0349
  352ACE    NCO  352   5.337   0.742   3.176  0.0918 -0.0664  0.0465
  353ACE    NCO  353   5.146   2.132   3.417  0.2532  0.0176  0.0213
  354ACE    NCO  354   2.832   0.958   1.333  0.0858  0.1403  0.3064
  355ACE    NCO  355   3.457   5.846   1.241  0.1351 -0.1420  0.0095
  356ACE    NCO  356   6.120   4.335   3.350  0.1448 -0.2489  0.1451
  357ACE    NCO  357   5.965   2.360   1.401 -0.0427 -0.2425  0.0499
  358ACE    NCO  358   0.933   1.497   3.495  0.0807  0.1934  0.2642
  359ACE    NCO  359   0.934   0.307   0.404 -0.0708 -0.0424  0.1938
  360ACE    NCO  360   3.557   0.228   1.425 -0.3461  0.1618 -0.1992
  361ACE    NCO  361   4.812   0.022   1.420 -0.2273  0.2132 -0.1374
  362ACE    NCO  362   1.031   3.686   4.576 -0.2752 -0.1193 -0.0919
  363ACE    NCO  363   2.695   5.772   3.772  0.0836 -0.1602  0.0597
  364ACE    NCO  364   0.611   2.641   5.522  0.0581  0.1822 -0.0545
  365ACE    NCO  365   5.684   0.526   1.341 -0.0797  0.0871  0.0260
  366ACE    NCO  366   4.849   1.066   0.644  0.0839  0.1115  0.0390
  367ACE    NCO  367   0.914   5.020   3.414  0.0204 -0.3848  0.2039
  368ACE    NCO  368   5.340   1.477   2.807 -0.1798  0.2957 -0.1865
  369ACE    NCO  369   0.488   2.112   2.990  0.0792  0.2042  0.0920
  370ACE    NCO  370   5.850   4.577   5.199 -0.1186  0.1231  0.0422
  371ACE    NCO  371   4.464   2.291   4.149  0.0581 -0.0127  0.2875
  372ACE    NCO  372   5.927   1.892   1.267 -0.0188  0.2543 -0.1327
  373ACE    NCO  373   0.337   3.340   5.133 -0.1388 -0.1081  0.0758
  374ACE    NCO  374   2.904   6.098   4.934 -0.1905 -0.0186 -0.1292
  375ACE    NCO  375   2.875   2.582   2.150 -0.1533 -0.3571 -0.0144
  376ACE    NCO  376   0.995   3.327   4.929 -0.0736 -0.0322  0.0097
  377ACE    NCO  377   3.004   1.481   3.825  0.2154 -0.1667 -0.0639
  378ACE    NCO  378   1.132   0.417   5.261  0.2092  0.0232  0.0536
  379ACE    NCO  379   5.510   5.621   3.383  0.0507 -0.0247 -0.1602
  380ACE    NCO  380   1.516   0.829   5.032 -0.0722  0.0753  0.0681
  381ACE    NCO  381   3.110   1.572   4.318  0.0054 -0.0240  0.0662
  382ACE    NCO  382   1.803   0.587   0.295  0.1147  0.3326 -0.1182
  383ACE    NCO  383   4.821   2.411   1.909  0.0173  0.0931 -0.3190
  384ACE    NCO  384   1.203   2.151   0.530 -0.0264 -0.0034 -0.0371
  385ACE    NCO  385   2.761   3.676   5.228  0.1997 -0.1868 -0.1041
  386ACE    NCO  386   5.250   5.327   3.693  0.0553  0.2184 -0.0378
  387ACE    NCO  387   5.097   1.905   5.776  0.1143 -0.0742  0.2727
  388ACE    NCO  388   0.632   2.814   1.341  0.2122 -0.1029  0.1549
  389ACE    NCO  389   1.032   5.081   5.783 -0.0909 -0.1223 -0.2810
  390ACE    NCO  390   4.873   3.711   3.191 -0.1433  0.0264  0.0401
  391ACE    NCO  391   1.225   2.280   4.284 -0.6648 -0.2779  0.2300
  392ACE    NCO  392   1.342   1.559   6.070 -0.0510 -0.0924  0.0697
  393ACE    NCO  393   1.773   3.441   2.406 -0.0492  0.2561  0.0990
  394ACE    NCO  394   3.899   4.560   4.444  0.3020  0.1757 -0.0109
  395ACE    NCO  395   1.870   3.367   0.969  0.0006  0.1301  0.2382
  396ACE    NCO  396   4.691   5.018   2.089  0.0996  0.0994  0.1263
  397ACE    NCO  397   3.706   3.012   4.004 -0.0522 -0.4348  0.0435
  398ACE    NCO  398   5.141   4.791   0.268  0.0229  0.2165  0.2268
  399ACE    NCO  399   0.670   4.967   0.929 -0.0664  0.0536 -0.3565
  400ACE    NCO  400   1.549   1.430   0.879  0.0761 -0.0334  0.2355
  401ACE    NCO  401   3.340   1.697   3.077  0.2788 -0.2228  0.3922
  402ACE    NCO  402   5.967   5.051   3.896  0.0617 -0.1172  0.0565
  403ACE    NCO  403   1.704   3.788   5.779 -0.3687  0.1080 -0.0918
  404ACE    NCO  404   0.246   5.800   3.347 -0.4970  0.0906 -0.0766
  405ACE    NCO  405   5.281   1.897   0.600 -0.3088 -0.2123  0.1444
  406ACE    NCO  406   6.072   4.209   2.791  0.1513 -0.2709  0.2674
  407ACE    NCO  407   1.973   5.213   4.814 -0.0782 -0.0841  0.3228
  408ACE    NCO  408   3.550   2.544   3.834 -0.1429  0.4051 -0.1685
  409ACE    NCO  409   2.611   3.248   0.274  0.1293  0.2691  0.3304
  410ACE    NCO  410   5.369   4.442   4.998  0.1338  0.0145 -0.0304
  411ACE    NCO  411   3.120   0.917   4.704 -0.2359 -0.4146 -0.0958
  412ACE    NCO  412   5.866   5.074   5.333 -0.0681  0.1476 -0.0003
  413ACE    NCO  413   5.528   3.054   4.752  0.0733 -0.1903  0.1317
  414ACE    NCO  414   6.035   5.654   0.780  0.3076 -0.1992  0.0488
  415ACE    NCO  415   1.912   4.496   1.778  0.1320  0.1742 -0.1212
  416ACE    NCO  416   0.599   1.261   4.269  0.0902 -0.0165  0.0775
  417ACE    NCO  417   3.083   5.392   3.791  0.0083  0.2040 -0.0124
  418ACE    NCO  418   3.836   0.392   0.605 -0.2039 -0.0910 -0.1874
  419ACE    NCO  419   3.761   1.518   1.358 -0.1174 -0.1714  0.2146
  420ACE    NCO  420   5.510   5.526   5.731  0.2014 -0.1142  0.0006
  421ACE    NCO  421   5.532   5.175   0.949 -0.3500  0.0040  0.1727
  422ACE    NCO  422   5.394   0.011   2.572 -0.1061  0.2277 -0.1989
  423ACE    NCO  423   2.525   3.548   6.017 -0.3456 -0.0570 -0.3454
  424ACE    NCO  424   1.770   0.737   2.280 -0.1015  0.2171  0.1057
  425ACE    NCO  425   1.914   0.167   3.141  0.1895  0.0519 -0.0095
  426ACE    NCO  426   1.956   3.006   0.032 -0.2037 -0.1157  0.0921
  427ACE    NCO  427   5.736   0.377   6.052  0.0721  0.1233  0.0170
  428ACE    NCO  428   3.126   2.337   3.627  0.0554  0.0743  0.0190
  429ACE    NCO  429   5.233   4.815   1.283  0.0132  0.0343  0.0670
  430ACE    NCO  430   5.811   0.336   1.835 -0.3761  0.0323 -0.0502
  431ACE    NCO  431   0.064   5.896   2.834 -0.0701 -0.2232  0.3256
  432ACE    NCO  432   1.955   0.008   1.213  0.0851 -0.1861 -0.2019
  433ACE    NCO  433   5.476   1.318   3.309  0.0069  0.0172  0.2325
  434ACE    NCO  434   5.884   4.657   5.692  0.2505 -0.2922 -0.0458
  435ACE    NCO  435   5.175   2.068   0.115 -0.0157  0.2750  0.0017
  436ACE    NCO  436   5.705   2.464   5.597 -0.2350 -0.0419  0.2667
  437ACE    NCO  437   5.878   3.981   5.999  0.1987  0.0879 -0.0403
  438ACE    NCO  438   4.108   2.716   4.595  0.3609 -0.1836 -0.1250
  439ACE    NCO  439   2.257   1.354   0.201 -0.3063  0.1212 -0.1507
  440ACE    NCO  440   3.366   2.085   2.731  0.1677  0.2539  0.0528
  441ACE    NCO  441   0.272   2.483   1.596 -0.2155  0.0454  0.0887
  442ACE    NCO  442   1.268   4.790   5.437 -0.1683  0.1086 -0.2951
  443ACE    NCO  443   1.317   3.622   5.526 -0.0184  0.1849 -0.2096
  444ACE    NCO  444   0.876   0.234   6.065  0.2402  0.0711 -0.0150
  445ACE    NCO  445   4.634   4.334   3.817 -0.5489 -0.0625  0.1972
  446ACE    NCO  446   4.302   1.888   2.048  0.0305  0.1651  0.1069
  447ACE    NCO  447   2.090   3.349   4.365 -0.2138  0.0447 -0.1783
  448ACE    NCO  448   0.135   3.970   2.376 -0.1230  0.1437 -0.0105
  449ACE    NCO  449   2.890   3.670   1.525  0.3664  0.0527  0.2301
  450ACE    NCO  450   0.579   4.164   2.571  0.0794  0.1548 -0.2059
  451ACE    NCO  451   3.048   5.711   2.980  0.1694  0.5472  0.0275
  452ACE    NCO  452   2.953   0.713   1.816  0.1173 -0.1959 -0.0646
  453ACE    NCO  453   5.450   1.367   3.795 -0.2716  0.2094  0.0020
  454ACE    NCO  454   2.895   0.813   3.177 -0.1205 -0.0866  0.0005
  455ACE    NCO  455   4.718   0.997   4.411 -0.2990  0.0904 -0.2416
  456ACE    NCO  456   1.090   5.609   4.067 -0.0816  0.2000 -0.0636
  457ACE    NCO  457   4.098   0.855   2.671  0.2055 -0.0669 -0.2338
  458ACE    NCO  458   5.084   5.455   3.204 -0.1235  0.1490 -0.0936
  459ACE    NCO  459   2.656   0.283   0.613 -0.1990  0.2982  0.0907
  460ACE    NCO  460   6.066   2.435   3.825 -0.0122 -0.3023  0.6131
  461ACE    NCO  461   2.636   4.014   0.009  0.4908  0.3429 -0.0625
  462ACE    NCO  462   2.015   5.820   3.981 -0.0574 -0.0514  0.0721
  463ACE    NCO  463   0.522   5.944   2.465 -0.0980  0.0227 -0.0394
  464ACE    NCO  464   4.873   1.164   1.190 -0.2283  0.3154 -0.0538
  465ACE    NCO  465   2.327   4.534   0.538  0.0251 -0.1154 -0.1423
  466ACE    NCO  466   5.387   2.342   0.735 -0.1009 -0.1385  0.2589
  467ACE    NCO  467   3.735   3.473   1.848 -0.2245  0.2560 -0.0977
  468ACE    NCO  468   5.993   4.716   1.978  0.0854  0.0751 -0.1227
  469ACE    NCO  469   3.125   5.261   5.760  0.1298 -0.1642 -0.0911
  470ACE    NCO  470   1.545   1.013   3.246  0.1748 -0.3115  0.1032
  471ACE    NCO  471   5.752   5.776   2.575  0.1882  0.3379  0.0679
  472ACE    NCO  472   4.116   3.930   5.359 -0.1444  0.0326  0.1740
  473ACE    NCO  473   4.094   3.094   6.038  0.2530 -0.2744 -0.1565
  474ACE    NCO  474   3.905   1.457   6.090  0.0986 -0.3131 -0.2773
  475ACE    NCO  475   2.994   5.727   1.077  0.2655 -0.2138 -0.0457
  476ACE    NCO  476   3.279   6.038   1.701  0.1279  0.1081  0.3006
  477ACE    NCO  477   0.696   2.972   5.154 -0.1798 -0.3367 -0.1710
  478ACE    NCO  478   4.594   2.161   2.718 -0.0192 -0.1500  0.0702
  479ACE    NCO  479   2.783   2.540   4.487  0.3072  0.0156 -0.1047
  480ACE    NCO  480   0.103   2.411   5.319  0.1882  0.0500  0.1858
  481ACE    NCO  481   2.792   5.655   4.780  0.1603  0.0610  0.1052
  482ACE    NCO  482   3.730   4.423   2.849 -0.1022 -0.2359  0.0636
  483ACE    NCO  483   0.282   4.037   4.822 -0.1298  0.3016  0.0822
  484ACE    NCO  484   0.592   1.578   0.135  0.0587  0.5101 -0.0343
  485ACE    NCO  485   3.048   4.208   4.021  0.2547 -0.5508  0.1063
  486ACE    NCO  486   2.572   4.180   4.347  0.0260  0.1056  0.0627
  487ACE    NCO  487   0.982   1.189   0.180 -0.0624 -0.1548 -0.0613
  488ACE    NCO  488   1.647   3.161   4.159 -0.5733  0.0742  0.0159
  489ACE    NCO  489   2.030   5.458   1.551  0.0988 -0.2385 -0.1474
  490ACE    NCO  490   0.138   0.120   2.415 -0.1391 -0.0743  0.1610
  491ACE    NCO  491   0.408   1.562   5.185 -0.0603  0.1678 -0.0258
  492ACE    NCO  492   4.133   5.255   2.779  0.2294 -0.0777 -0.2592
  493ACE    NCO  493   0.357   3.455   5.648 -0.2061  0.2188  0.0134
  494ACE    NCO  494   5.222   1.299   5.125 -0.3424  0.0358 -0.1168
  495ACE    NCO  495   1.644   2.053   4.816  0.0282 -0.1674 -0.1685
  496ACE    NCO  496   5.603   4.647   4.185  0.0232 -0.0237  0.0680
  497ACE    NCO  497   2.717   5.086   4.081 -0.0299  0.0820 -0.4546
  498ACE    NCO  498   3.608   3.006   1.650  0.1040 -0.1830 -0.0659
  499ACE    NCO  499   2.724   1.990   4.353 -0.1342  0.0514 -0.0723
  500ACE    NCO  500   4.927   2.885   2.051  0.0988 -0.3073 -0.1668
  501ACE    NCO  501   0.782   2.260   4.574 -0.3294 -0.3053 -0.1141
  502ACE    NCO  502   2.338   3.126   3.980  0.0057 -0.0612  0.0980
  503ACE    NCO  503   6.132   1.530   5.535  0.1660 -0.2688 -0.3404
  504ACE    NCO  504   2.646   0.855   5.032 -0.0271 -0.3189  0.2338
  505ACE    NCO  505   2.416   2.936   2.095 -0.0988 -0.1241 -0.0286
  506ACE    NCO  506   5.215   5.296   1.332 -0.0652  0.0747 -0.0392
  507ACE    NCO  507   0.881   2.720   4.773  0.4520  0.2737 -0.0701
  508ACE    NCO  508   0.563   3.823   0.171  0.4410 -0.2411  0.1070
  509ACE    NCO  509   3.143   0.953   5.218 -0.0579 -0.3218 -0.1567
  510ACE    NCO  510   1.383   2.254   5.304 -0.0074 -0.0547  0.1452
  511ACE    NCO  511   5.062   5.339   2.672  0.3049  0.3155  0.1795
  512ACE    NCO  512   0.669   5.498   0.081 -0.3297  0.0655 -0.4426
  513ACE    NCO  513   0.670   4.099   4.514  0.1046 -0.1330  0.0130
  514ACE    NCO  514   4.710   1.907   1.789  0.1447 -0.4385  0.1741
  515ACE    NCO  515   0.056   3.346   0.830  0.0523 -0.1636  0.1032
  516ACE    NCO  516   0.771   3.519   5.357 -0.0454  0.0763  0.0420
  517ACE    NCO  517   2.611   2.817   5.490 -0.0919  0.2733 -0.0147
  518ACE    NCO  518   0.470   0.529   5.969  0.3957 -0.0841  0.0969
  519ACE    NCO  519   0.824   5.187   2.874 -0.1597  0.1330 -0.0076
  520ACE    NCO  520   1.318   0.361   0.110  0.1890 -0.0964 -0.2817
  521ACE    NCO  521   2.054   1.183   3.417 -0.1384  0.0335 -0.0455
  522ACE    NCO  522   0.429   5.670   0.538 -0.3089  0.2689 -0.1122
  523ACE    NCO  523   5.970   3.889   4.659  0.3357 -0.1330 -0.2617
  524ACE    NCO  524   0.332   1.049   5.116  0.0730 -0.0289 -0.0375
  525ACE    NCO  525   5.908   0.697   0.572  0.0090 -0.1615  0.1085
  526ACE    NCO  526   3.394   3.841   4.042  0.0603  0.0253  0.2119
  527ACE    NCO  527   3.101   2.417   1.722  0.3151  0.2396 -0.2696
  528ACE    NCO  528   2.362   5.105   1.630 -0.4373  0.5175  0.2006
  529ACE    NCO  529   3.310   4.874   0.901  0.2332 -0.0676  0.1542
  530ACE    NCO  530   2.174   0.805   5.723 -0.0877  0.2581 -0.3678
  531ACE    NCO  531   2.406   1.271   4.942 -0.2579 -0.1367  0.1206
  532ACE    NCO  532   3.145   0.459   0.817  0.2058 -0.1446 -0.0907
  533ACE    NCO  533   0.172   1.005   2.183  0.1214 -0.3793 -0.0927
  534ACE    NCO  534   2.919   5.235   0.884 -0.1927  0.0982 -0.2206
  535ACE    NCO  535   1.144   5.506   6.015 -0.0649  0.0068 -0.0736
  536ACE    NCO  536   5.490   4.627   0.906  0.2673 -0.2591  0.0652
  537ACE    NCO  537   4.404   1.050   0.990  0.0023  0.0588 -0.2547
  538ACE    NCO  538   5.756   2.200   4.621  0.2613  0.2958 -0.1016
  539ACE    NCO  539   2.564   4.153   3.791  0.2393  0.2406  0.2547
  540ACE    NCO  540   2.033   2.024   4.537  0.0609 -0.0426 -0.1045
  541ACE    NCO  541   5.975   0.541   5.191  0.1225  0.0280  0.0234
  542ACE    NCO  542   2.053   3.391   5.813 -0.1698 -0.4662 -0.0877
  543ACE    NCO  543   1.227   5.598   0.359  0.0697  0.0189  0.1419
  544ACE    NCO  544   3.584   4.440   1.888 -0.0298  0.2022 -0.0102
  545ACE    NCO  545   4.199   3.157   4.228 -0.0653  0.4193 -0.1720
  546ACE    NCO  546   0.401   1.701   5.685  0.1412  0.3178  0.2046
  547ACE    NCO  547   3.705   1.336   3.172 -0.1211  0.1161  0.1738
  548ACE    NCO  548   1.967   5.074   1.914  0.0827 -0.3473  0.0861
  549ACE    NCO  549   0.515   3.606   2.422 -0.2263  0.0035 -0.0497
  550ACE    NCO  550   1.920   2.240   4.033 -0.0359 -0.1322 -0.1686
  551ACE    NCO  551   5.714   1.793   2.580 -0.2183 -0.1970 -0.1398
  552ACE    NCO  552   2.131   2.531   0.922  0.0443  0.0992  0.2515
  553ACE    NCO  553   3.059   1.871   3.468 -0.0116 -0.1994 -0.0118
  554ACE    NCO  554   1.748   2.438   1.218  0.2770  0.1950 -0.4640
  555ACE    NCO  555   1.555   5.198   6.068 -0.2694  0.0543 -0.3839
  556ACE    NCO  556   3.968   0.349   2.581 -0.2004  0.1420  0.1215
  557ACE    NCO  557   1.589   2.011   1.965 -0.1389  0.2463 -0.1427
  558ACE    NCO  558   1.430   0.491   0.603 -0.1274 -0.0725  0.0190
  559ACE    NCO  559   4.789   3.069   1.592  0.1706 -0.0240 -0.1603
  560ACE    NCO  560   3.287   4.021   3.592 -0.0480  0.0624 -0.1076
  561ACE    NCO  561   1.744   5.781   0.553 -0.1216 -0.1844  0.0616
  562ACE    NCO  562   2.074   3.544   3.867  0.3324  0.0150 -0.3606
  563ACE    NCO  563   4.426   0.986   0.453  0.3004  0.4182 -0.0469
  564ACE    NCO  564   0.743   5.918   5.913  0.0517 -0.0582  0.1694
  565ACE    NCO  565   5.388   0.899   3.653 -0.1173  0.1053  0.1487
  566ACE    NCO  566   3.720   2.181   0.498 -0.1205 -0.2715 -0.0747
  567ACE    NCO  567   2.553   5.830   5.247 -0.0521 -0.2253 -0.2247
  568ACE    NCO  568   1.517   1.603   2.368 -0.0035 -0.2326  0.0087
  569ACE    NCO  569   5.603   1.287   2.426 -0.0758 -0.2547 -0.1750
  570ACE    NCO  570   5.241   3.926   4.817  0.2280 -0.1769 -0.1133
  571ACE    NCO  571   3.504   3.133   1.153  0.3519  0.0321 -0.1920
  572ACE    NCO  572   2.764   2.628   5.931  0.3232 -0.3094  0.1678
  573ACE    NCO  573   0.694   5.067   1.424  0.1907  0.0777  0.1224
  574ACE    NCO  574   2.555   5.026   2.595 -0.0578 -0.1641  0.5332
  575ACE    NCO  575   2.476   5.040   0.701  0.0950 -0.2698 -0.0677
  576ACE    NCO  576   1.339   2.271   2.848 -0.1063  0.1170  0.0395
  577ACE    NCO  577   2.177   1.270   5.900 -0.0652  0.3357 -0.1075
  578ACE    NCO  578   5.478   5.412   5.234  0.0993  0.0420 -0.0806
  579ACE    NCO  579   5.616   5.494   0.566  0.0727 -0.2066  0.0078
  580ACE    NCO  580   1.471   2.355   5.850  0.2659 -0.0181 -0.2923
  581ACE    NCO  581   2.048   2.176   5.080  0.1225 -0.3869  0.2685
  582ACE    NCO  582   5.376   3.858   5.838 -0.2090  0.2162 -0.2839
  583ACE    NCO  583   5.726   3.213   1.514  0.0652  0.2169 -0.2389
  584ACE    NCO  584   5.730   2.613   0.425 -0.1205 -0.1329  0.1509
  585ACE    NCO  585   5.622   2.311   3.643  0.0382 -0.2793  0.1184
  586ACE    NCO  586   5.339   0.672   5.983 -0.2732 -0.0406  0.2212
  587ACE    NCO  587   0.189   2.250   3.436  0.1198 -0.0827  0.0089
  588ACE    NCO  588   0.021   0.527   0.113 -0.2335  0.2083 -0.2177
  589ACE    NCO  589   1.841   4.935   4.199 -0.0018  0.1958 -0.0841
  590ACE    NCO  590   3.145   0.587   2.288  0.2095  0.0393 -0.2832
  591ACE    NCO  591   3.510   0.615   5.313 -0.1942  0.0779 -0.0192
  592ACE    NCO  592   4.133   4.031   5.889 -0.1543 -0.4104 -0.0406
  593ACE    NCO  593   0.484   4.971   3.716 -0.1079  0.1555 -0.1892
  594ACE    NCO  594   2.485   0.389   5.793 -0.0587 -0.0240 -0.3271
  595ACE    NCO  595   2.932   5.075   0.337  0.1304  0.1278 -0.0232
  596ACE    NCO  596   3.658   5.368   4.546  0.0164 -0.0212  0.1329
  597ACE    NCO  597   0.963   5.968   2.188  0.1428  0.0693 -0.0236
  598ACE    NCO  598   6.004   1.959   1.750 -0.1211 -0.0021 -0.1929
  599ACE    NCO  599   5.276   3.716   1.908 -0.1972  0.1585 -0.0675
  600ACE    NCO  600   5.640   1.706   2.061 -0.1533  0.1392  0.0540
  601ACE    NCO  601   0.159   2.671   1.141  0.0695  0.4453  0.0090
  602ACE    NCO  602   4.034   3.817   1.506 -0.0804 -0.0524  0.0781
  603ACE    NCO  603   0.149   3.887   0.996  0.1174 -0.1348 -0.2111
  604ACE    NCO  604   4.289   0.040   3.112 -0.3393 -0.3431 -0.0492
  605ACE    NCO  605   4.227   4.976   5.606  0.0202  0.0923  0.1450
  606ACE    NCO  606   4.400   3.451   1.552  0.0254 -0.0322 -0.2695
  607ACE    NCO  607   3.052   2.945   2.763  0.0567  0.3710  0.0003
  608ACE    NCO  608   5.584   6.147   3.557 -0.0961  0.1037 -0.1132
  609ACE    NCO  609   3.819   5.147   0.267  0.2143 -0.0926 -0.1582
  610ACE    NCO  610   2.551   2.265   2.409  0.1384  0.0557 -0.0616
  611ACE    NCO  611   3.458   5.191   1.588 -0.1045  0.0426  0.0433
  612ACE    NCO  612   1.228   2.435   2.376  0.1799  0.1178 -0.1343
  613ACE    NCO  613   1.289   3.283   2.164  0.0948  0.0815 -0.1852
  614ACE    NCO  614   1.089   5.173   1.144 -0.2813  0.0241 -0.0458
  615ACE    NCO  615   4.647   1.402   1.651  0.2144 -0.0476  0.0185
  616ACE    NCO  616   3.419   2.408   5.142  0.2659  0.1101 -0.2151
  617ACE    NCO  617   4.090   3.666   0.056  0.2594 -0.3113 -0.2339
  618ACE    NCO  618   0.131   4.735   5.412  0.0362  0.0149  0.0653
  619ACE    NCO  619   4.417   0.422   2.771 -0.0542 -0.1465  0.2545
  620ACE    NCO  620   0.117   1.414   6.050  0.0529 -0.1055 -0.4751
  621ACE    NCO  621   0.587   1.098   3.705  0.2486  0.0034 -0.3427
  622ACE    NCO  622   0.998   4.656   6.142  0.1847  0.0073  0.0611
  623ACE    NCO  623   5.762   0.693   5.712 -0.0314 -0.3538  0.0551
  624ACE    NCO  624   2.724   3.396   3.208  0.1438 -0.2980 -0.0100
  625ACE    NCO  625   4.744   3.413   4.987  0.4489 -0.0832 -0.1539
  626ACE    NCO  626   4.210   2.165   5.477 -0.0063  0.0586  0.0623
  627ACE    NCO  627   1.395   3.319   1.284 -0.1954  0.0659  0.1156
  628ACE    NCO  628   1.415   2.126   3.886 -0.1560  0.1054  0.0979
  629ACE    NCO  629   1.727   1.910   2.933 -0.0640 -0.1334 -0.1594
  630ACE    NCO  630   3.019   3.006   0.921  0.0224 -0.2816  0.0321
  631ACE    NCO  631   5.655   5.148   1.886 -0.0576 -0.2075 -0.0163
  632ACE    NCO  632   2.837   4.285   3.032  0.0975  0.1024  0.2205
  633ACE    NCO  633   1.096   0.434   2.855 -0.1566 -0.1418 -0.1743
  634ACE    NCO  634   0.483   0.606   0.319  0.1143  0.0352  0.0290
  635ACE    NCO  635   5.812   4.279   1.758 -0.5184  0.0406 -0.4027
  636ACE    NCO  636   5.796   1.593   3.062  0.2299 -0.0412  0.2908
  637ACE    NCO  637   3.744   1.733   2.758  0.2250 -0.1282 -0.1575
  638ACE    NCO  638   0.302   4.506   4.476  0.5720  0.0949  0.1336
  639ACE    NCO  639   3.987   5.314   1.769  0.1955  0.1285 -0.1416
  640ACE    NCO  640   3.961   5.665   4.284  0.0072  0.2735  0.0725
  641ACE    NCO  641   0.178   5.703   5.675 -0.2058 -0.0581  0.2390
  642ACE    NCO  642   2.537   2.199   5.263  0.0498 -0.2136  0.0283
  643ACE    NCO  643   1.551   4.886   1.708 -0.3270 -0.1177  0.1210
  644ACE    NCO  644   1.184   4.309   5.237  0.1149 -0.0330  0.0147
  645ACE    NCO  645   1.121   6.041   3.714  0.1468 -0.0952 -0.0657
  646ACE    NCO  646   5.139   0.244   0.634 -0.0949 -0.0289 -0.1843
  647ACE    NCO  647   2.806   5.578   4.245 -0.0854 -0.0935  0.1904
  648ACE    NCO  648   4.376   1.802   3.993 -0.1930 -0.3228 -0.0473
  649ACE    NCO  649   4.807   2.504   3.346 -0.0193 -0.1306 -0.2177
  650ACE    NCO  650   2.606   2.129   5.799 -0.0424  0.0041 -0.1367
  651ACE    NCO  651   1.789   2.938   4.653  0.0721 -0.1504 -0.2144
  652ACE    NCO  652   3.998   5.910   3.389  0.0635 -0.0415 -0.3283
  653ACE    NCO  653   4.700   3.930   2.674  0.2958 -0.1898  0.0392
  654ACE    NCO  654   6.054   5.847   1.290  0.3847  0.0040  0.0551
  655ACE    NCO  655   3.162   4.468   2.192  0.0354 -0.1653 -0.0229
  656ACE    NCO  656   4.669   0.926   3.884 -0.0077 -0.3026  0.2271
  657ACE    NCO  657   3.507   0.220   2.322  0.2943  0.1533 -0.3276
  658ACE    NCO  658   4.565   4.220   6.028 -0.3031 -0.1437 -0.0294
  659ACE    NCO  659   4.773   0.229   3.322  0.0934 -0.2313 -0.0751
  660ACE    NCO  660   3.076   2.903   5.622 -0.2667  0.2262  0.2259
  661ACE    NCO  661   1.995   2.883   5.655 -0.1888 -0.1549  0.1864
  662ACE    NCO  662   3.808   2.126   5.805  0.1661  0.0728  0.3169
  663ACE    NCO  663   5.863   0.231   0.454 -0.0474 -0.2218  0.3265
  664ACE    NCO  664   2.467   0.833   3.488  0.1396 -0.1252  0.1457
  665ACE    NCO  665   1.626   2.094   2.493 -0.1023 -0.0336  0.0474
  666ACE    NCO  666   3.786   0.755   3.995  0.1483 -0.0906  0.1294
  667ACE    NCO  667   3.878   2.956   2.626  0.0570 -0.0106  0.0568
  668ACE    NCO  668   2.373   5.504   4.528 -0.3072 -0.1112 -0.0945
  669ACE    NCO  669   1.206   3.795   3.617 -0.0881 -0.1199 -0.1559
  670ACE    NCO  670   4.909   3.955   1.414  0.0052  0.2044  0.1868
  671ACE    NCO  671   4.398   6.128   1.677  0.1015  0.0901  0.0937
  672ACE    NCO  672   1.462   1.126   2.245  0.0641 -0.1693 -0.0107
  673ACE    NCO  673   3.178   0.573   1.336 -0.1508  0.2281 -0.0872
  674ACE    NCO  674   0.878   1.451   1.133 -0.0634  0.4503 -0.1482
  675ACE    NCO  675   1.309   0.506   4.392 -0.1148 -0.0925  0.0769
  676ACE    NCO  676   0.921   2.692   0.944 -0.0757  0.1450 -0.0307
  677ACE    NCO  677   4.776   3.909   5.111 -0.0287 -0.0012 -0.1869
  678ACE    NCO  678   4.077   5.063   5.054  0.2490  0.1271 -0.0420
  679ACE    NCO  679   0.989   3.534   0.720  0.1704  0.2505  0.2422
  680ACE    NCO  680   0.444   1.971   4.903 -0.0830  0.1882 -0.3943
  681ACE    NCO  681   3.829   5.363   0.818 -0.2223  0.0100 -0.2510
  682ACE    NCO  682   0.301   3.989   3.406 -0.3941  0.1974 -0.1751
  683ACE    NCO  683   1.086   3.217   3.400  0.3177  0.0807 -0.3001
  684ACE    NCO  684   1.546   0.567   3.059  0.2276 -0.4194 -0.0220
  685ACE    NCO  685   2.018   4.469   2.760  0.0379 -0.0953  0.0572
  686ACE    NCO  686   1.740   4.997   5.609 -0.1234  0.0263  0.0198
  687ACE    NCO  687   0.810   0.980   3.275 -0.0565 -0.2092 -0.1594
  688ACE    NCO  688   4.292   2.227   5.970 -0.0164 -0.3919 -0.1712
  689ACE    NCO  689   2.604   5.952   0.441  0.3063  0.0326 -0.0158
  690ACE    NCO  690   2.892   4.505   1.250  0.1273  0.0763  0.3827
  691ACE    NCO  691   1.898   3.526   2.928 -0.3980  0.0018 -0.0425
  692ACE    NCO  692   3.664   4.158   1.448 -0.0163 -0.1398 -0.0028
  693ACE    NCO  693   4.184   3.622   1.993 -0.0497 -0.1348  0.0144
  694ACE    NCO  694   3.369   0.401   1.884 -0.0387  0.0843  0.1904
  695ACE    NCO  695   2.987   2.433   2.633 -0.1177  0.3958 -0.2774
  696ACE    NCO  696   0.810   1.690   3.075  0.0840 -0.0105  0.1145
  697ACE    NCO  697   5.984   4.877   2.510  0.1566  0.2993  0.0446
  698ACE    NCO  698   2.141   0.878   0.084  0.1311 -0.0470  0.1167
  699ACE    NCO  699   3.965   3.665   0.950  0.0625 -0.0462 -0.3835
  700ACE    NCO  700   5.768   5.951   4.133  0.4701  0.1549  0.0653
  701ACE    NCO  701   5.172   5.527   0.834 -0.2610  0.2860 -0.4560
  702ACE    NCO  702   3.622   1.014   4.943 -0.0357 -0.1839  0.0393
  703ACE    NCO  703   2.945   2.443   5.462  0.4485  0.0158 -0.0884
  704ACE    NCO  704   5.436   4.325   3.609 -0.1231  0.2607 -0.2627
  705ACE    NCO  705   3.980   4.614   2.086 -0.1287  0.0127 -0.1327
  706ACE    NCO  706   0.571   5.505   3.869 -0.0034  0.0363  0.1869
  707ACE    NCO  707   6.061   1.328   4.535  0.2340 -0.0488 -0.0192
  708ACE    NCO  708   4.536   0.940   1.463 -0.0218 -0.1604  0.0830
  709ACE    NCO  709   2.921   3.047   4.620 -0.1007  0.1088  0.0764
  710ACE    NCO  710   4.180   6.103   0.151  0.0653  0.2350  0.1332
  711ACE    NCO  711   0.360   4.721   1.663  0.0756 -0.0503  0.0456
  712ACE    NCO  712   3.300   1.909   5.032  0.0003 -0.1947  0.3178
  713ACE    NCO  713   3.876   5.179   4.081 -0.2795 -0.1953 -0.4232
  714ACE    NCO  714   0.006   3.482   2.208 -0.2204 -0.0087  0.1223
  715ACE    NCO  715   3.203   2.223   2.207 -0.1404 -0.4129  0.0278
  716ACE    NCO  716   2.571   2.797   2.542 -0.2341  0.1987  0.2422
  717ACE    NCO  717   5.150   4.305   1.128  0.2663 -0.0577 -0.1712
  718ACE    NCO  718   3.195   3.787   5.417 -0.3474 -0.1619  0.0645
  719ACE    NCO  719   2.873   1.562   2.861 -0.1485 -0.0730 -0.1875
  720ACE    NCO  720   3.146   2.475   4.128 -0.2590  0.1540  0.1214
  721ACE    NCO  721   1.302   3.456   2.681 -0.0093 -0.1857  0.0115
  722ACE    NCO  722   2.660   2.244   3.386 -0.0180  0.0729  0.0802
  723ACE    NCO  723   4.802   4.402   2.829 -0.1381 -0.0917  0.3025
  724ACE    NCO  724   3.977   2.728   3.075 -0.2533  0.1167  0.0683
  725ACE    NCO  725   0.243   0.246   5.316  0.0406 -0.1069 -0.0509
  726ACE    NCO  726   2.605   5.234   3.632 -0.2072  0.5812 -0.0149
  727ACE    NCO  727   1.512   1.410   0.376 -0.3217 -0.1077  0.1431
  728ACE    NCO  728   0.235   2.774   3.524  0.2773  0.1736  0.0457
  729ACE    NCO  729   3.778   5.920   5.224  0.0098 -0.0076 -0.5824
  730ACE    NCO  730   5.600   3.561   4.881 -0.1047  0.0382 -0.0244
  731ACE    NCO  731   1.161   3.116   5.379  0.1914  0.0997  0.0215
  732ACE    NCO  732   3.230   3.330   1.600  0.1618  0.2055  0.0363
  733ACE    NCO  733   0.239   3.461   3.217 -0.1534  0.4041  0.1394
  734ACE    NCO  734   4.061   3.534   5.705 -0.3680  0.1005 -0.0761
  735ACE    NCO  735   3.999   0.473   3.063 -0.1248 -0.2999 -0.0339
  736ACE    NCO  736   2.142   0.771   4.802 -0.0762 -0.1598  0.0354
  737ACE    NCO  737   5.797   3.332   3.943  0.0699 -0.0699  0.1707
  738ACE    NCO  738   0.077   4.143   3.875 -0.1582  0.0838 -0.2868
  739ACE    NCO  739   3.291   3.886   2.280 -0.0970  0.1396  0.2194
  740ACE    NCO  740   3.611   5.670   1.716  0.2432 -0.1884  0.1666
  741ACE    NCO  741   5.533   1.906   3.994  0.3879  0.0713 -0.2673
  742ACE    NCO  742   0.901   5.103   4.835 -0.2684 -0.0533 -0.1466
  743ACE    NCO  743   5.932   3.690   2.677  0.2099 -0.0597  0.2721
  744ACE    NCO  744   4.427   5.522   3.425 -0.0291 -0.4523  0.0312
  745ACE    NCO  745   3.553   4.853   4.328  0.2468  0.2316  0.0253
  746ACE    NCO  746   5.043   4.004   3.816 -0.0333  0.1833 -0.2350
  747ACE    NCO  747   4.851   3.134   4.032 -0.0785  0.1482  0.1810
  748ACE    NCO  748   1.032   2.501   1.392  0.2115 -0.0731  0.1231
  749ACE    NCO  749   1.921   3.569   5.335 -0.0000 -0.0784  0.0025
  750ACE    NCO  750   5.410   2.629   5.086  0.2257 -0.0883 -0.0261
  751ACE    NCO  751   4.927   6.144   3.825  0.0247 -0.0430  0.1706
  752ACE    NCO  752   1.715   0.267   2.112  0.4000 -0.0070  0.0233
  753ACE    NCO  753   4.143   0.286   3.553 -0.0730 -0.2543 -0.0181
  754ACE    NCO  754   2.264   5.912   2.683 -0.0847  0.0114  0.0002
  755ACE    NCO  755   2.240   4.529   4.216 -0.0502 -0.0253 -0.2555
  756ACE    NCO  756   3.995   5.042   4.573  0.1399 -0.1131  0.2351
  757ACE    NCO  757   5.066   4.605   2.112 -0.1121  0.1573 -0.1283
  758ACE    NCO  758   5.768   5.882   0.217  0.2838 -0.0250 -0.1243
  759ACE    NCO  759   5.024   4.295   0.136  0.2445 -0.2431  0.0112
  760ACE    NCO  760   5.926   1.388   3.545  0.2389  0.1732  0.1256
  761ACE    NCO  761   3.697   2.816   0.177 -0.0812 -0.2055 -0.1588
  762ACE    NCO  762   1.456   5.174   3.572  0.1049 -0.0682  0.0785
  763ACE    NCO  763   0.716   1.172   2.384 -0.1754  0.1719  0.0909
  764ACE    NCO  764   1.609   4.812   2.669  0.2241 -0.0001  0.0798
  765ACE    NCO  765   0.025   2.954   3.983 -0.1845 -0.2964  0.2214
  766ACE    NCO  766   0.121   0.490   2.053 -0.1945  0.1672  0.0476
  767ACE    NCO  767   6.100   5.548   4.090  0.1419  0.2643  0.0800
  768ACE    NCO  768   5.930   3.805   4.112  0.3021  0.0402  0.2203
  769ACE    NCO  769   5.981   1.954   3.678 -0.1460  0.2078  0.2832
  770ACE    NCO  770   2.607   0.932   5.897  0.2278  0.0527 -0.1920
  771ACE    NCO  771   4.745   1.420   4.067  0.2787  0.1493  0.1804
  772ACE    NCO  772   4.541   4.020   5.572  0.0677 -0.2166 -0.0450
  773ACE    NCO  773   1.448   3.718   0.847  0.0172 -0.0202 -0.2087
  774ACE    NCO  774   1.639   5.700   0.053  0.1349 -0.0424 -0.0025
  775ACE    NCO  775   1.430   4.686   5.900  0.1827  0.0107  0.0208
  776ACE    NCO  776   6.031   5.016   0.152  0.0010 -0.3647 -0.1650
  777ACE    NCO  777   1.909   2.537   6.076  0.4190  0.0261 -0.1341
  778ACE    NCO  778   4.759   1.145   4.926 -0.1735 -0.5702 -0.3134
  779ACE    NCO  779   5.824   6.071   4.620  0.2778  0.0706  0.2243
  780ACE    NCO  780   5.767   5.576   4.480  0.0131  0.0939 -0.0697
  781ACE    NCO  781   5.515   3.430   1.003  0.0515  0.1233 -0.3032
  782ACE    NCO  782   4.015   5.567   3.796  0.0644  0.3901 -0.0694
  783ACE    NCO  783   2.125   0.303   1.833 -0.0489  0.0739  0.0729
  784ACE    NCO  784   1.643   0.807   1.274 -0.0825 -0.1980 -0.1256
  785ACE    NCO  785   2.567   3.440   4.600 -0.1161 -0.1141 -0.1493
  786ACE    NCO  786   5.477   5.991   0.715  0.0730 -0.2311  0.3970
  787ACE    NCO  787   5.371   0.001   0.174 -0.3599 -0.0324  0.0153
  788ACE    NCO  788   2.440   4.392   0.997 -0.4089  0.0536 -0.0295
  789ACE    NCO  789   0.026   5.296   4.501  0.1407  0.0737 -0.1807
  790ACE    NCO  790   3.454   2.582   2.840  0.1464 -0.1118 -0.0580
  791ACE    NCO  791   1.663   1.566   3.305  0.1157  0.0154  0.1688
  792ACE    NCO  792   6.026   4.075   1.335 -0.0641 -0.0718 -0.0216
  793ACE    NCO  793   2.082   5.388   0.601 -0.2373  0.0145 -0.0746
  794ACE    NCO  794   2.631   0.820   4.529  0.0908  0.1416  0.0273
  795ACE    NCO  795   3.774   1.842   3.312  0.1018  0.0306  0.0854
  796ACE    NCO  796   3.934   0.904   0.778 -0.1507 -0.0175 -0.0064
  797ACE    NCO  797   5.091   5.770   5.152 -0.1387 -0.0955 -0.0784
  798ACE    NCO  798   3.750   4.786   5.312  0.1231  0.2794  0.2611
  799ACE    NCO  799   4.274   4.682   3.656 -0.3338  0.1612  0.1580
  800ACE    NCO  800   2.161   0.391   2.336 -0.2478 -0.2831  0.0770
  801ACE    NCO  801   4.374   5.313   4.328  0.0377  0.1447  0.0406
  802ACE    NCO  802   1.967   4.069   3.088 -0.0385 -0.1770 -0.1074
  803ACE    NCO  803   1.762   3.706   4.279  0.0015  0.0057  0.0563
  804ACE    NCO  804   0.631   4.850   5.595  0.0024  0.0945 -0.4522
  805ACE    NCO  805   3.236   1.418   4.884  0.0862  0.0491  0.1240
  806ACE    NCO  806   3.036   1.695   5.799 -0.0004 -0.2674  0.3570
  807ACE    NCO  807   5.725   2.902   4.311  0.0982  0.1172 -0.1277
  808ACE    NCO  808   1.710   0.529   4.052  0.0280 -0.0930 -0.4027
  809ACE    NCO  809   4.479   2.361   4.670  0.1555 -0.0599 -0.0534
  810ACE    NCO  810   4.235   2.261   0.753  0.1664  0.1746  0.2739
  811ACE    NCO  811   4.130   2.882   5.070  0.3013 -0.0357 -0.1654
  812ACE    NCO  812   1.274   5.224   2.613 -0.0733 -0.0146 -0.1543
  813ACE    NCO  813   2.887   1.905   5.349 -0.0899  0.0591 -0.0030
  814ACE    NCO  814   3.416   2.194   3.217  0.4356 -0.3128  0.1907
  815ACE    NCO  815   3.488   1.178   0.183  0.2574 -0.2326 -0.1063
  816ACE    NCO  816   3.349   2.029   5.570 -0.0148  0.2728  0.1535
  817ACE    NCO  817   4.126   5.651   0.520  0.0777  0.0604 -0.1113
  818ACE    NCO  818   3.994   1.521   2.346  0.3154  0.2098 -0.2526
  819ACE    NCO  819   5.922   5.184   5.848  0.3808  0.3418 -0.1606
  820ACE    NCO  820   3.061   4.319   4.548 -0.2594 -0.0332 -0.0149
  821ACE    NCO  821   0.408   5.425   2.333 -0.1377 -0.1737  0.0305
  822ACE    NCO  822   5.680   5.000   1.387  0.1337  0.3804 -0.3676
  823ACE    NCO  823   0.205   4.209   0.072  0.1344  0.3692  0.2145
  824ACE    NCO  824   6.082   4.847   4.387  0.1092 -0.2384 -0.0946
  825ACE    NCO  825   5.536   2.241   1.197 -0.0865 -0.2721 -0.1278
  826ACE    NCO  826   3.073   2.594   3.121 -0.1249  0.0403 -0.1870
  827ACE    NCO  827   4.601   5.868   0.713 -0.3485 -0.0443 -0.0088
  828ACE    NCO  828   4.305   6.109   2.618 -0.0657  0.3911 -0.0101
  829ACE    NCO  829   4.715   4.850   1.506  0.0419 -0.1402 -0.1091
  830ACE    NCO  830   0.989   6.116   2.715  0.2081 -0.0345  0.0058
  831ACE    NCO  831   2.048   2.156   2.187  0.0723  0.1215  0.2557
  832ACE    NCO  832   4.862   5.647   3.605  0.2033 -0.0351 -0.3238
  833ACE    NCO  833   5.577   4.762   2.312 -0.0409 -0.1394  0.2215
  834ACE    NCO  834   2.192   3.142   2.486 -0.0030 -0.0459  0.1946
  835ACE    NCO  835   3.159   2.902   1.894 -0.2460 -0.2612 -0.1058
  836ACE    NCO  836   5.552   0.791   4.681 -0.1725  0.2271 -0.0744
  837ACE    NCO  837   4.270   2.408   1.270  0.1803 -0.2129 -0.1995
  838ACE    NCO  838   1.596   3.952   5.241  0.0033 -0.1955  0.1101
  839ACE    NCO  839   1.280   4.658   3.431  0.0194  0.0180  0.2280
  840ACE    NCO  840   4.332   5.556   1.016 -0.0472 -0.2522  0.1200
  841ACE    NCO  841   6.116   1.927   2.808  0.0051 -0.0603  0.0904
  842ACE    NCO  842   3.979   3.462   2.793 -0.1563 -0.2680  0.4334
  843ACE    NCO  843   2.662   1.621   1.878 -0.1604  0.3041  0.1314
  844ACE    NCO  844   4.417   2.879   3.338  0.1151  0.0271  0.0323
  845ACE    NCO  845   4.563   0.398   3.749 -0.0407 -0.0694  0.1989
  846ACE    NCO  846   3.320   5.447   2.543 -0.4799  0.2151  0.0132
  847ACE    NCO  847   1.996   3.441   3.402 -0.1522  0.1713  0.3463
  848ACE    NCO  848   4.611   1.385   5.896 -0.0757 -0.0456  0.0996
  849ACE    NCO  849   0.682   5.473   1.052  0.1533  0.0876 -0.1010
  850ACE    NCO  850   4.797   2.846   5.789  0.2101  0.0748  0.0496
  851ACE    NCO  851   1.971   4.021   4.945  0.0758  0.0401  0.0446
  852ACE    NCO  852   3.419   3.895   4.607  0.2337 -0.2646  0.2316
  853ACE    NCO  853   6.038   2.488   1.900 -0.2246 -0.2969  0.2706
  854ACE    NCO  854   4.763   0.027   2.771 -0.1677  0.0642 -0.2685
  855ACE    NCO  855   3.800   5.241   5.481 -0.1107  0.0652 -0.1262
  856ACE    NCO  856   0.781   3.407   3.910 -0.0621 -0.1557  0.3956
  857ACE    NCO  857   4.166   1.248   1.424  0.0735  0.0546 -0.2706
  858ACE    NCO  858   6.089   2.269   6.140  0.1879 -0.0613  0.2064
  859ACE    NCO  859   5.194   5.253   6.028  0.2244  0.2249  0.1454
  860ACE    NCO  860   1.648   4.166   2.027  0.2549  0.2618 -0.2755
  861ACE    NCO  861   5.301   2.679   2.686  0.0518  0.2836  0.1930
  862ACE    NCO  862   2.233   1.973   1.730  0.2391 -0.0598 -0.0568
  863ACE    NCO  863   3.658   5.465   5.025  0.1186  0.0420  0.0069
  864ACE    NCO  864   0.648   0.216   5.067 -0.0294  0.3179  0.5028
  865ACE    NCO  865   4.858   2.055   4.682  0.0629  0.1669 -0.1436
  866ACE    NCO  866   4.593   0.315   2.309  0.4464 -0.1194  0.3954
  867ACE    NCO  867   3.520   5.517   4.054 -0.1894  0.0096 -0.2589
  868ACE    NCO  868   0.905   5.232   5.357  0.0928  0.2042  0.4250
  869ACE    NCO  869   1.666   1.225   3.741 -0.6586 -0.2237 -0.2218
  870ACE    NCO  870   2.014   3.806   2.121 -0.1387 -0.3052  0.1684
  871ACE    NCO  871   3.216   5.284   4.818 -0.0393 -0.0713 -0.0261
  872ACE    NCO  872   5.080   6.038   0.982 -0.1196  0.0589 -0.0560
  873ACE    NCO  873   1.544   3.394   3.703  0.0282  0.0853  0.1709
  874ACE    NCO  874   0.542   5.385   3.354  0.0592  0.1975 -0.2317
  875ACE    NCO  875   2.523   1.184   3.134 -0.0149 -0.0305 -0.2367
  876ACE    NCO  876   2.721   3.320   5.611  0.1306  0.3262 -0.1383
  877ACE    NCO  877   2.921   2.295   4.986 -0.0707  0.1526  0.1291
  878ACE    NCO  878   5.773   2.283   2.732  0.0842  0.0655  0.2352
  879ACE    NCO  879   2.270   5.511   5.518 -0.0508 -0.3587 -0.0015
  880ACE    NCO  880   4.033   1.396   0.909  0.0287 -0.1848 -0.3743
  881ACE    NCO  881   3.156   5.907   4.004 -0.3941  0.0604 -0.1227
  882ACE    NCO  882   4.928   2.408   4.301  0.2267 -0.3249 -0.3531
  883ACE    NCO  883   2.817   0.484   3.517  0.0575  0.1687  0.1289
  884ACE    NCO  884   5.947   0.815   4.322  0.1277  0.1506 -0.1438
  885ACE    NCO  885   3.884   1.007   2.194 -0.0025 -0.1023 -0.1676
  886ACE    NCO  886   2.280   0.726   0.541 -0.2077  0.1398  0.2973
  887ACE    NCO  887   6.020   3.838   3.154  0.0564 -0.0499  0.0187
  888ACE    NCO  888   3.058   0.189   2.621 -0.2221  0.1269 -0.1830
  889ACE    NCO  889   3.950   0.651   5.041  0.0424 -0.2149  0.2358
  890ACE    NCO  890   2.831   3.906   3.398 -0.0575  0.0348  0.1704
  891ACE    NCO  891   2.877   4.416   3.520  0.1873 -0.0379 -0.1032
  892ACE    NCO  892   1.523   4.786   0.271  0.2320  0.2874  0.2341
  893ACE    NCO  893   0.769   2.707   1.800  0.0094 -0.0645  0.0800
  894ACE    NCO  894   0.048   3.846   1.851  0.2840 -0.1833 -0.1911
  895ACE    NCO  895   5.155   2.713   1.658 -0.0355 -0.0011  0.0839
  896ACE    NCO  896   5.472   1.534   5.782  0.0709 -0.0634 -0.6083
  897ACE    NCO  897   0.503   4.018   5.871 -0.2946 -0.1172  0.4127
  898ACE    NCO  898   1.716   2.570   5.003 -0.1924  0.0056 -0.0379
  899ACE    NCO  899   3.198   2.884   3.718 -0.2132 -0.1075  0.0263
  900ACE    NCO  900   5.718   2.565   6.053 -0.0995 -0.2079 -0.2368
  901ACE    NCO  901   4.059   2.454   0.213  0.4676  0.0455  0.0337
  902ACE    NCO  902   4.679   4.711   0.009 -0.5015 -0.1431  0.1477
  903ACE    NCO  903   0.374   0.201   1.088 -0.2137  0.1803 -0.0803
  904ACE    NCO  904   3.708   0.052   1.889  0.2294 -0.0738 -0.2291
  905ACE    NCO  905   3.211   2.598   4.719 -0.0103 -0.1702 -0.1134
  906ACE    NCO  906   2.765   0.988   2.198 -0.1665  0.1643 -0.3610
  907ACE    NCO  907   0.210   4.401   2.006  0.3390 -0.1144 -0.1365
  908ACE    NCO  908   0.977   5.802   0.740  0.2313 -0.2359 -0.0708
  909ACE    NCO  909   5.467   3.578   2.448  0.3854 -0.4098 -0.1873
  910ACE    NCO  910   3.288   4.283   2.689  0.0420  0.1297  0.0644
  911ACE    NCO  911   5.282   0.829   1.292 -0.1863  0.0667  0.0466
  912ACE    NCO  912   0.169   3.350   2.692 -0.2554 -0.3551 -0.2702
  913ACE    NCO  913   0.434   5.017   5.137  0.4415  0.1587 -0.0407
  914ACE    NCO  914   2.504   5.582   0.875  0.0365 -0.2077  0.1846
  915ACE    NCO  915   4.604   4.631   3.310  0.1836 -0.0506 -0.1757
  916ACE    NCO  916   1.659   5.887   1.974 -0.1519  0.0584  0.2937
  917ACE    NCO  917   3.746   4.433   5.730  0.3037 -0.2292 -0.0638
  918ACE    NCO  918   0.704   2.088   4.062 -0.0227  0.1027  0.2488
  919ACE    NCO  919   5.188   3.373   3.232  0.0862 -0.0342 -0.3395
  920ACE    NCO  920   3.754   0.958   5.949 -0.0107  0.0138 -0.1560
  921ACE    NCO  921   1.752   4.365   4.056 -0.0068  0.1900  0.1212
  922ACE    NCO  922   5.109   4.478   1.610  0.1058 -0.1233 -0.0868
  923ACE    NCO  923   2.102   2.626   2.276  0.1796 -0.1830  0.1378
  924ACE    NCO  924   2.843   1.755   4.787 -0.0431  0.4120  0.0045
  925ACE    NCO  925   1.119   4.435   0.478 -0.0971 -0.0856  0.1036
  926ACE    NCO  926   5.864   4.310   0.910  0.0185  0.1089  0.0648
  927ACE    NCO  927   4.983   3.940   0.481  0.3132 -0.1297  0.1278
  928ACE    NCO  928   4.510   3.329   0.122 -0.1835  0.4230 -0.0368
  929ACE    NCO  929   0.001   4.866   3.494 -0.0062  0.0164  0.0241
  930ACE    NCO  930   0.726   0.389   5.551  0.1585 -0.0123 -0.1993
  931ACE    NCO  931   4.731   3.798   4.604 -0.0459  0.1673 -0.2358
  932ACE    NCO  932   1.614   5.260   0.434 -0.1043  0.0572  0.0643
  933ACE    NCO  933   5.469   4.325   5.976  0.0578 -0.0005 -0.2794
  934ACE    NCO  934   0.224   0.320   0.623  0.3636  0.0962  0.0994
  935ACE    NCO  935   5.859   0.313   4.195 -0.0113 -0.3948  0.2841
  936ACE    NCO  936   3.028   2.901   0.399 -0.1470 -0.1967  0.0838
  937ACE    NCO  937   4.146   1.365   2.896 -0.3192 -0.1154  0.1754
  938ACE    NCO  938   3.104   1.572   0.089 -0.1487  0.0511 -0.0139
  939ACE    NCO  939   2.851   4.223   5.348  0.0502  0.2797  0.0213
  940ACE    NCO  940   5.576   1.032   0.484  0.0513  0.1986 -0.1149
  941ACE    NCO  941   1.826   2.376   3.068  0.0237 -0.0500 -0.0961
  942ACE    NCO  942   0.049   0.863   5.921  0.2276 -0.0087 -0.1754
  943ACE    NCO  943   1.772   5.475   3.315 -0.0802 -0.0165  0.0282
  944ACE    NCO  944   1.590   3.841   3.314 -0.3402  0.3035 -0.2941
  945ACE    NCO  945   2.290   3.637   2.659  0.0349 -0.1223 -0.1255
  946ACE    NCO  946   0.829   0.488   1.828  0.4526 -0.0257 -0.0554
  947ACE    NCO  947   5.595   0.011   1.193 -0.0818  0.0360  0.0369
  948ACE    NCO  948   4.386   0.468   5.575 -0.2383  0.3136 -0.0640
  949ACE    NCO  949   5.342   3.076   0.348  0.0051  0.0794  0.4404
  950ACE    NCO  950   3.001   0.431   4.513 -0.1501  0.0288  0.1891
  951ACE    NCO  951   0.293   2.016   3.842 -0.3325  0.0046  0.0432
  952ACE    NCO  952   1.709   2.425   4.499 -0.0791  0.0438  0.2701
  953ACE    NCO  953   0.746   4.599   4.683  0.2138 -0.2012  0.1666
  954ACE    NCO  954   3.108   0.092   1.196  0.0068  0.1320  0.2581
  955ACE    NCO  955   4.788   2.014   2.273  0.1292  0.0759  0.0307
  956ACE    NCO  956   0.436   3.135   2.260  0.1430 -0.3576 -0.1455
  957ACE    NCO  957   0.528   3.380   0.565  0.0398 -0.0204  0.1427
  958ACE    NCO  958   2.054   3.541   0.154 -0.0895  0.1126  0.2706
  959ACE    NCO  959   4.437   2.936   3.837  0.0827  0.1593  0.1282
  960ACE    NCO  960   1.888   4.825   6.086 -0.2515  0.1012  0.0302
  961ACE    NCO  961   4.004   1.303   0.418 -0.2184 -0.0578 -0.1408
  962ACE    NCO  962   5.985   5.809   3.628 -0.0244 -0.0990 -0.1407
  963ACE    NCO  963   1.301   3.558   4.095 -0.0826 -0.1849  0.0124
  964ACE    NCO  964   5.941   5.619   3.121  0.0080  0.1656  0.0866
  965ACE    NCO  965   2.792   2.827   3.991  0.3333  0.0121 -0.5346
  966ACE    NCO  966   2.426   1.730   5.058 -0.0096 -0.0278 -0.2163
  967ACE    NCO  967   1.270   0.420   3.932  0.0914 -0.0513 -0.0081
  968ACE    NCO  968   1.015   0.326   2.306 -0.0839  0.1218 -0.1216
  969ACE    NCO  969   4.516   5.115   4.828 -0.2914  0.2036  0.2325
  970ACE    NCO  970   5.646   3.680   5.405 -0.0985  0.0144 -0.0171
  971ACE    NCO  971   0.272   1.073   2.692  0.1536  0.1578  0.1078
  972ACE    NCO  972   2.485   3.604   3.603 -0.0409 -0.0996  0.0090
  973ACE    NCO  973   1.057   2.577   5.223  0.2992 -0.1684  0.0079
  974ACE    NCO  974   2.872   4.393   5.904  0.1618 -0.1758  0.1848
  975ACE    NCO  975   3.789   3.676   2.315 -0.0312  0.4416  0.0480
  976ACE    NCO  976   1.951   4.695   4.649 -0.0722  0.1355 -0.1357
  977ACE    NCO  977   3.551   3.156   3.524 -0.1723  0.2070  0.0363
  978ACE    NCO  978   2.404   5.161   2.133  0.0365 -0.0342  0.1879
  979ACE    NCO  979   4.515   1.557   1.170  0.1619 -0.1109  0.0066
  980ACE    NCO  980   1.840   0.426   5.100 -0.3174  0.1493 -0.0734
  981ACE    NCO  981   4.854   4.303   4.759 -0.0124  0.0500 -0.1784
  982ACE    NCO  982   1.330   5.323   3.098 -0.0910 -0.0131 -0.0221
  983ACE    NCO  983   0.381   4.316   3.019  0.2644  0.0621 -0.0684
  984ACE    NCO  984   0.009   1.090   1.148  0.1372  0.0061 -0.1643
  985ACE    NCO  985   3.009   5.592   0.548 -0.2346 -0.0477  0.0405
  986ACE    NCO  986   2.778   5.647   5.662  0.3437 -0.0417  0.1560
  987ACE    NCO  987   1.881   0.663   0.879 -0.0552  0.0028 -0.2830
  988ACE    NCO  988   2.994   3.572   0.082  0.2305  0.1019 -0.2076
  989ACE    NCO  989   4.176   4.325   4.054  0.3193 -0.1386 -0.0197
  990ACE    NCO  990   0.381   2.390   0.193 -0.0724 -0.0222 -0.0458
  991ACE    NCO  991   0.151   3.570   4.685  0.2253 -0.0124 -0.0691
  992ACE    NCO  992   2.717   1.531   0.405  0.1286  0.0059 -0.1577
  993ACE    NCO  993   2.491   4.651   2.947  0.0498 -0.0988  0.2809
  994ACE    NCO  994   6.151   2.988   2.082 -0.1365 -0.1564 -0.0783
  995ACE    NCO  995   1.144   2.286   1.887  0.1582  0.1242  0.1093
  996ACE    NCO  996   5.327   1.183   0.934  0.0965 -0.2092  0.1163
  997ACE    NCO  997   2.558   2.864   0.710 -0.0667 -0.1507 -0.2264
  998ACE    NCO  998   4.595   4.593   5.669 -0.2262  0.0145 -0.1122
  999ACE    NCO  999   4.979   1.607   0.868  0.1664  0.0539 -0.1825
 1000ACE    NCO 1000   5.262   2.191   2.506  0.0797 -0.2696 -0.0853
 1001ACE    NCO 1001   1.214   1.096   3.551 -0.1559 -0.1432 -0.3975
 1002ACE    NCO 1002   1.191   1.281   2.623 -0.2421 -0.0432 -0.2574
 1003ACE    NCO 1003   0.349   2.007   2.469 -0.1694  0.1353 -0.0297
 1004ACE    NCO 1004   4.472   0.424   1.304  0.2194 -0.0065 -0.0996
 1005ACE    NCO 1005   1.844   6.024   3.483  0.1965 -0.0844  0.1223
 1006ACE    NCO 1006   3.130   1.955   3.961  0.1616  0.0474 -0.2350
 1007ACE    NCO 1007   5.493   0.559   0.312  0.3233  0.0039  0.0521
 1008ACE    NCO 1008   5.873   3.073   1.055  0.0625  0.1208  0.0523
 1009ACE    NCO 1009   3.210   4.058   1.302 -0.0288 -0.1678  0.2085
 1010ACE    NCO 1010   0.831   0.384   4.228 -0.1708 -0.2853 -0.2315
 1011ACE    NCO 1011   5.509   3.663   2.990 -0.0353 -0.3452  0.1916
 1012ACE    NCO 1012   5.069   1.091   2.180  0.1037 -0.2366 -0.1609
 1013ACE    NCO 1013   5.684   1.685   4.460  0.2544 -0.0449 -0.0301
 1014ACE    NCO 1014   5.641   1.175   4.314  0.0293  0.1330  0.0807
 1015ACE    NCO 1015   3.409   0.672   0.053  0.1751  0.0797  0.0533
 1016ACE    NCO 1016   1.008   5.718   5.509  0.0802 -0.0300  0.3965
 1017ACE    NCO 1017   0.605   6.023   5.403  0.3315  0.1335 -0.3102
 1018ACE    NCO 1018   5.012   0.359   0.102 -0.2777  0.1857 -0.1066
 1019ACE    NCO 1019   1.458   0.429   2.499 -0.1149  0.1630  0.2041
 1020ACE    NCO 1020   4.748   4.476   4.286 -0.0711 -0.0926  0.1153
 1021ACE    NCO 1021   3.465   3.028   0.604  0.0302  0.1267  0.0452
 1022ACE    NCO 1022   1.762   2.843   0.813  0.0065  0.2703  0.0192
 1023ACE    NCO 1023   2.497   4.617   5.299 -0.0917  0.0915 -0.1991
 1024ACE    NCO 1024   2.420   2.966   4.431 -0.1558 -0.0530  0.2545
 1025ACE    NCO 1025   4.515   1.432   0.601  0.2865 -0.2830  0.1632
 1026ACE    NCO 1026   2.966   5.805   2.474 -0.1780  0.1377 -0.2112
 1027ACE    NCO 1027   5.842   3.779   0.754  0.2516  0.3527  0.0062
 1028ACE    NCO 1028   2.649   3.295   2.663 -0.0312 -0.1316  0.0146
 1029ACE    NCO 1029   1.608   4.363   4.939 -0.1235 -0.1306 -0.0852
 1030ACE    NCO 1030   1.893   3.761   0.613 -0.0976 -0.0996  0.1586
 1031ACE    NCO 1031   5.489   0.654   4.125  0.0278 -0.3425  0.1252
 1032ACE    NCO 1032   0.898   2.257   3.164 -0.2137  0.2717 -0.0102
 1033ACE    NCO 1033   2.140   0.273   4.615  0.4615 -0.0859  0.0021
 1034ACE    NCO 1034   4.627   0.527   4.280 -0.1574  0.0743  0.3009
 1035ACE    NCO 1035   0.635   6.136   0.681  0.0067  0.1667  0.0556
 1036ACE    NCO 1036   5.647   1.510   0.636  0.3283  0.0483 -0.0371
 1037ACE    NCO 1037   6.083   3.724   5.094 -0.2674  0.1690  0.1413
 1038ACE    NCO 1038   2.426   4.862   0.091 -0.0798  0.1042 -0.0438
 1039ACE    NCO 1039   5.447   3.951   0.212 -0.4380  0.1648 -0.1016
 1040ACE    NCO 1040   5.177   0.337   1.120 -0.3218  0.3426 -0.2301
 1041ACE    NCO 1041   2.962   1.362   3.317  0.3453  0.1290  0.2493
 1042ACE    NCO 1042   2.485   3.699   4.135  0.2526  0.0468  0.0882
 1043ACE    NCO 1043   3.456   0.538   4.828 -0.5141  0.5027 -0.0725
 1044ACE    NCO 1044   4.943   3.698   5.597  0.1207  0.0235  0.3199
 1045ACE    NCO 1045   5.532   5.959   5.366 -0.1042 -0.1735  0.0918
 1046ACE    NCO 1046   3.051   2.351   1.240  0.2407  0.0266  0.1879
 1047ACE    NCO 1047   2.617   0.094   2.430  0.1248 -0.0052 -0.2393
 1048ACE    NCO 1048   0.785   5.991   1.176  0.0805  0.0652 -0.1084
 1049ACE    NCO 1049   4.021   2.249   4.451  0.0764  0.0121  0.2454
 1050ACE    NCO 1050   1.698   4.637   0.728  0.3477  0.1534 -0.0365
 1051ACE    NCO 1051   5.749   4.680   3.253  0.4282 -0.2326  0.2003
 1052ACE    NCO 1052   5.116   0.651   4.458  0.0056  0.1053  0.0571
 1053ACE    NCO 1053   1.974   4.102   5.511  0.2101 -0.3832  0.2702
 1054ACE    NCO 1054   5.256   0.741   0.736 -0.0593 -0.1696 -0.1290
 1055ACE    NCO 1055   5.353   3.218   4.225 -0.4665  0.1104 -0.1033
 1056ACE    NCO 1056   2.849   4.966   5.077  0.0812  0.0767  0.1146
 1057ACE    NCO 1057   4.481   0.952   5.690  0.0158 -0.2483 -0.1890
 1058ACE    NCO 1058   1.918   3.984   2.565  0.0931  0.1211  0.1569
 1059ACE    NCO 1059   2.661   1.851   3.752  0.0038  0.3680  0.1169
 1060ACE    NCO 1060   1.629   1.286   5.201 -0.1947  0.1051 -0.1428
 1061ACE    NCO 1061   1.808   5.718   2.529 -0.3505  0.0066  0.0451
 1062ACE    NCO 1062   5.424   3.636   3.901 -0.1716  0.0308 -0.2012
 1063ACE    NCO 1063   3.760   3.487   4.181  0.1145 -0.1055  0.0694
 1064ACE    NCO 1064   0.116   3.681   6.121 -0.0574  0.1090 -0.0063
 1065ACE    NCO 1065   4.346   2.450   3.615 -0.1892  0.2133 -0.2367
 1066ACE    NCO 1066   0.753   2.325   2.173 -0.0608 -0.1601  0.1820
 1067ACE    NCO 1067   5.488   1.704   0.148  0.2976 -0.3424 -0.1414
 1068ACE    NCO 1068   1.070   0.822   2.440  0.1315  0.1503 -0.0577
 1069ACE    NCO 1069   3.226   0.004   3.125  0.3131  0.1061  0.1026
 1070ACE    NCO 1070   4.776   5.123   3.474  0.1215  0.1549 -0.1512
 1071ACE    NCO 1071   1.353   2.959   4.893  0.0692  0.1847  0.2154
 1072ACE    NCO 1072   1.937   4.423   1.250  0.0385 -0.0071 -0.0373
 1073ACE    NCO 1073   4.677   0.639   4.769  0.3310  0.0095  0.2711
 1074ACE    NCO 1074   4.682   3.664   0.728 -0.1288  0.2498  0.0085
 1075ACE    NCO 1075   2.504   0.630   1.640 -0.0140 -0.1619 -0.2518
 1076ACE    NCO 1076   4.991   1.052   1.691  0.4730  0.0203 -0.1076
 1077ACE    NCO 1077   6.146   1.903   5.108 -0.1265 -0.1962 -0.2071
 1078ACE    NCO 1078   2.285   0.283   0.935 -0.1096 -0.1168  0.1487
 1079ACE    NCO 1079   5.820   2.771   2.848  0.0049 -0.2050  0.0896
 1080ACE    NCO 1080   5.028   2.319   2.945  0.2809  0.1492  0.3528
 1081ACE    NCO 1081   2.699   2.348   3.895 -0.0503 -0.0119 -0.1487
 1082ACE    NCO 1082   0.191   2.870   4.964 -0.2634  0.2202 -0.0069
 1083ACE    NCO 1083   0.085   2.294   4.815 -0.0804  0.0435 -0.3846
 1084ACE    NCO 1084   5.973   0.984   2.528 -0.1890  0.1325 -0.1107
 1085ACE    NCO 1085   3.467   5.742   0.715  0.2444  0.3248  0.2535
 1086ACE    NCO 1086   4.773   1.540   4.573 -0.0527 -0.2363 -0.0492
 1087ACE    NCO 1087   0.661   4.621   2.751 -0.2685 -0.0416 -0.2040
 1088ACE    NCO 1088   1.446   0.114   2.973  0.0978  0.2160 -0.1250
 1089ACE    NCO 1089   0.983   3.060   2.941 -0.1861 -0.1790  0.1288
 1090ACE    NCO 1090   2.194   5.529   3.022  0.0315 -0.3918 -0.3571
 1091ACE    NCO 1091   2.552   2.443   2.886 -0.0575  0.0378 -0.0462
 1092ACE    NCO 1092   0.553   0.289   2.640  0.0469 -0.3002 -0.1579
 1093ACE    NCO 1093   2.162   3.957   5.992 -0.3022 -0.2421  0.0407
 1094ACE    NCO 1094   2.721   2.783   1.717  0.1989 -0.0264 -0.0755
 1095ACE    NCO 1095   0.295   4.250   1.514 -0.1331  0.0418 -0.0882
 1096ACE    NCO 1096   2.905   2.042   3.011  0.0170  0.1907  0.1640
 1097ACE    NCO 1097   0.303   1.467   2.344 -0.2548  0.1601  0.0936
 1098ACE    NCO 1098   3.697   5.085   2.587 -0.1378 -0.0785  0.1610
 1099ACE    NCO 1099   3.022   4.926   3.654 -0.0592 -0.0174 -0.0456
 1100ACE    NCO 1100   5.758   3.336   2.021  0.1501 -0.0290 -0.2018
 1101ACE    NCO 1101   3.890   6.028   1.458 -0.2181  0.1999  0.2024
 1102ACE    NCO 1102   2.756   3.963   1.109  0.1939 -0.3388 -0.0470
 1103ACE    NCO 1103   4.558   3.959   4.114 -0.3695  0.1025  0.2626
 1104ACE    NCO 1104   2.098   4.645   3.271 -0.1738 -0.1160  0.4304
 1105ACE    NCO 1105   2.787   4.597   0.258 -0.1210 -0.0369  0.1686
 1106ACE    NCO 1106   4.947   5.913   4.698 -0.1182  0.4705  0.0827
 1107ACE    NCO 1107   0.305   2.128   1.978  0.1192  0.0294  0.0065
 1108ACE    NCO 1108   5.900   5.580   5.460  0.1173  0.0248  0.0776
 1109ACE    NCO 1109   6.111   0.407   5.727  0.0872  0.1732 -0.1219
 1110ACE    NCO 1110   5.353   2.594   4.558  0.0018  0.2230  0.0665
 1111ACE    NCO 1111   3.398   5.263   0.524  0.0361  0.0214  0.1974
 1112ACE    NCO 1112   4.089   3.794   3.925 -0.1686  0.1829  0.3232
 1113ACE    NCO 1113   3.261   5.794   5.935 -0.0870  0.1962  0.1176
 1114ACE    NCO 1114   3.567   5.889   3.707 -0.2409  0.1690 -0.0089
 1115ACE    NCO 1115   4.872   1.912   4.210  0.2101  0.0317  0.1987
 1116ACE    NCO 1116   0.742   1.140   4.776 -0.0238 -0.1201 -0.0939
 1117ACE    NCO 1117   0.961   2.725   3.373  0.2475 -0.2784  0.1458
 1118ACE    NCO 1118   3.514   2.031   3.684  0.0578  0.0012 -0.0045
 1119ACE    NCO 1119   5.734   5.642   2.065 -0.0927 -0.0068  0.4627
 1120ACE    NCO 1120   4.588   0.724   0.023  0.0923  0.0560 -0.2273
 1121ACE    NCO 1121   3.210   3.383   5.804  0.0751  0.1268 -0.1271
 1122ACE    NCO 1122   0.507   3.294   0.007 -0.1693  0.2757 -0.3316
 1123ACE    NCO 1123   0.032   1.117   1.714 -0.1030  0.1385 -0.2442
 1124ACE    NCO 1124   4.096   3.727   3.370 -0.1331 -0.1063 -0.2403
 1125ACE    NCO 1125   4.156   0.607   5.984 -0.3263  0.2599  0.0805
 1126ACE    NCO 1126   5.586   3.942   1.199 -0.1499  0.0254  0.3460
 1127ACE    NCO 1127   2.396   4.835   4.836 -0.3268 -0.2093 -0.1683
 1128ACE    NCO 1128   0.609   0.438   3.168 -0.0962 -0.3120  0.1201
 1129ACE    NCO 1129   1.278   2.946   2.544 -0.3013 -0.1284  0.0906
 1130ACE    NCO 1130   4.441   4.643   4.649 -0.0722  0.0825 -0.1103
 1131ACE    NCO 1131   0.096   1.031   3.604 -0.1759  0.1058 -0.2078
 1132ACE    NCO 1132   5.788   2.291   5.107  0.1212 -0.0467 -0.3536
 1133ACE    NCO 1133   5.825   5.087   2.932 -0.0032 -0.0978 -0.2116
 1134ACE    NCO 1134   0.089   1.143   4.089 -0.1540  0.0458  0.3355
 1135ACE    NCO 1135   5.487   3.163   2.802  0.1678  0.0107 -0.1872
 1136ACE    NCO 1136   5.683   2.150   2.202 -0.0131  0.0375  0.0166
 1137ACE    NCO 1137   5.984   4.329   4.312 -0.1006 -0.1263  0.3566
 1138ACE    NCO 1138   2.329   4.365   4.747 -0.0132 -0.3974 -0.0065
 1139ACE    NCO 1139   2.294   3.216   5.379  0.2336  0.0861 -0.1058
 1140ACE    NCO 1140   1.761   4.321   3.506 -0.1085 -0.3649 -0.1694
 1141ACE    NCO 1141   4.721   6.109   5.107  0.3109  0.0505  0.0872
 1142ACE    NCO 1142   6.132   0.638   1.581  0.1434 -0.0262  0.1458
 1143ACE    NCO 1143   2.199   2.048   3.159 -0.1943  0.0421 -0.2713
 1144ACE    NCO 1144   5.869   5.708   5.015  0.1681 -0.0050  0.0318
 1145ACE    NCO 1145   2.792   1.326   0.877 -0.3456 -0.0359 -0.1390
 1146ACE    NCO 1146   3.634   0.449   5.766 -0.1427  0.3109  0.3866
 1147ACE    NCO 1147   4.621   3.298   4.501 -0.1493 -0.4909  0.0561
 1148ACE    NCO 1148   1.727   4.854   5.089  0.0044 -0.1465  0.0158
 1149ACE    NCO 1149   2.169   0.655   4.255  0.2328 -0.3931  0.0267
 1150ACE    NCO 1150   4.955   4.937   3.048  0.1960  0.0505 -0.1077
 1151ACE    NCO 1151   4.801   5.681   1.180 -0.3880 -0.0954  0.1259
 1152ACE    NCO 1152   4.712   5.065   5.799  0.0721 -0.3111 -0.1401
 1153ACE    NCO 1153   0.001   2.883   0.669  0.2105  0.2143 -0.1677
 1154ACE    NCO 1154   1.170   5.783   1.764  0.0305  0.1258  0.1513
 1155ACE    NCO 1155   0.224   2.963   5.482  0.0310  0.1983 -0.0249
 1156ACE    NCO 1156   4.538   3.877   3.620 -0.2295 -0.0862  0.0080
 1157ACE    NCO 1157   2.988   1.937   1.568  0.4641  0.2382 -0.0079
 1158ACE    NCO 1158   0.844   5.478   2.011  0.3838  0.1703  0.1876
 1159ACE    NCO 1159   3.449   1.199   4.458  0.0063  0.0054  0.1645
 1160ACE    NCO 1160   5.708   4.732   4.658  0.0117 -0.2208  0.1345
 1161ACE    NCO 1161   3.760   2.049   5.279 -0.1290 -0.0224  0.0115
 1162ACE    NCO 1162   0.380   0.080   5.783 -0.1225  0.0831  0.1581
 1163ACE    NCO 1163   0.133   4.809   5.902  0.2801  0.1982 -0.3438
 1164ACE    NCO 1164   5.803   0.885   3.341  0.0479 -0.0236 -0.2087
 1165ACE    NCO 1165   4.589   1.591   3.620 -0.2290  0.1144  0.2223
 1166ACE    NCO 1166   1.747   1.923   5.322  0.0862  0.2908  0.0668
 1167ACE    NCO 1167   2.133   4.052   4.057  0.0749 -0.0682  0.0218
 1168ACE    NCO 1168   1.232   0.019   1.427 -0.0130 -0.1557  0.1687
 1169ACE    NCO 1169   1.590   1.921   4.318  0.0603 -0.0062 -0.3192
 1170ACE    NCO 1170   4.728   4.828   3.869  0.2287 -0.0415  0.0838
 1171ACE    NCO 1171   5.521   4.624   1.817  0.0626  0.2997  0.0260
 1172ACE    NCO 1172   3.670   0.811   2.944 -0.0848 -0.0296 -0.3200
 1173ACE    NCO 1173   2.355   5.417   4.017 -0.3039 -0.0767  0.0978
 1174ACE    NCO 1174   0.819   1.640   4.955 -0.2419  0.1785 -0.0080
 1175ACE    NCO 1175   1.449   0.296   4.861  0.0245  0.1761  0.0915
 1176ACE    NCO 1176   4.287   3.074   2.837 -0.3034 -0.0473  0.1442
 1177ACE    NCO 1177   3.308   1.586   2.571  0.0746  0.1614 -0.1413
 1178ACE    NCO 1178   0.371   6.024   1.462  0.0873  0.1624  0.0654
 1179ACE    NCO 1179   1.378   4.004   4.277 -0.0690 -0.0809 -0.3373
 1180ACE    NCO 1180   4.351   1.367   4.356  0.2204  0.1068  0.1546
 1181ACE    NCO 1181   0.356   1.443   4.706  0.1631 -0.0121  0.0886
 1182ACE    NCO 1182   4.517   3.988   1.703 -0.0626 -0.1272 -0.1776
 1183ACE    NCO 1183   3.908   1.264   4.152  0.1067  0.2228  0.2123
 1184ACE    NCO 1184   5.786   3.021   0.118 -0.1159 -0.1333  0.0892
 1185ACE    NCO 1185   0.408   2.791   5.951  0.0948  0.0268 -0.0586
 1186ACE    NCO 1186   3.615   3.508   3.165  0.5729  0.1873 -0.1800
 1187ACE    NCO 1187   5.868   1.341   0.184  0.0631 -0.2578 -0.2854
 1188ACE    NCO 1188   3.447   2.054   1.781  0.0105 -0.1163 -0.1204
 1189ACE    NCO 1189   3.347   3.892   1.771 -0.2913  0.2656  0.2397
 1190ACE    NCO 1190   4.546   3.814   0.205  0.1357  0.0652 -0.1100
 1191ACE    NCO 1191   1.162   4.102   3.231  0.2137  0.2165  0.1214
 1192ACE    NCO 1192   6.049   4.571   1.456  0.3302  0.0546  0.2071
 1193ACE    NCO 1193   3.792   5.649   2.756  0.0843  0.2552 -0.0048
 1194ACE    NCO 1194   4.754   5.199   0.131 -0.0499  0.2079 -0.0338
 1195ACE    NCO 1195   5.172   4.591   4.530 -0.1141 -0.1028 -0.3483
 1196ACE    NCO 1196   0.555   1.039   0.011 -0.0039  0.0672 -0.1838
 1197ACE    NCO 1197   0.468   0.118   0.140  0.1454  0.0789 -0.1707
 1198ACE    NCO 1198   3.769   0.605   3.478  0.6492  0.0635 -0.0364
 1199ACE    NCO 1199   6.154   4.898   4.919  0.1681  0.1778 -0.0760
 1200ACE    NCO 1200   4.474   4.103   3.163  0.1192  0.1386 -0.0645
 1201ACE    NCO 1201   0.147   2.955   3.095  0.0712  0.0717 -0.0109
 1202ACE    NCO 1202   1.833   5.455   5.787 -0.3036 -0.1818  0.0347
 1203ACE    NCO 1203   3.658   5.615   0.266 -0.1522 -0.0284 -0.1138
 1204ACE    NCO 1204   1.715   5.132   0.874  0.2187  0.0125 -0.0994
 1205ACE    NCO 1205   1.791   5.864   2.985  0.0576 -0.2525 -0.2093
 1206ACE    NCO 1206   4.084   4.341   1.658  0.2259 -0.0483 -0.2099
 1207ACE    NCO 1207   3.043   6.154   0.687 -0.0247  0.1128  0.0161
 1208ACE    NCO 1208   4.494   2.886   2.381  0.1978  0.0542 -0.1550
 1209ACE    NCO 1209   5.915   2.764   5.264 -0.0655 -0.2172  0.1125
 1210ACE    NCO 1210   4.317   5.454   5.713  0.0946  0.0965  0.1116
 1211ACE    NCO 1211   4.682   1.941   3.169 -0.2941 -0.1889 -0.4013
 1212ACE    NCO 1212   2.382   1.791   2.240 -0.1647  0.3792 -0.1336
 1213ACE    NCO 1213   2.937   0.960   3.675  0.0610  0.0054  0.1326
 1214ACE    NCO 1214   5.840   1.229   5.849  0.0474  0.1279 -0.1047
 1215ACE    NCO 1215   3.245   5.683   4.519  0.0603 -0.2283  0.0789
 1216ACE    NCO 1216   2.183   5.378   2.489  0.3085 -0.0878 -0.0492
 1217ACE    NCO 1217   1.870   3.943   1.633 -0.0896 -0.0528 -0.1235
 1218ACE    NCO 1218   4.501   0.003   4.069 -0.1586  0.0001 -0.2309
 1219ACE    NCO 1219   1.097   0.708   4.796 -0.2806 -0.0799 -0.1101
 1220ACE    NCO 1220   0.937   4.649   3.760  0.3932  0.0341  0.0656
 1221ACE    NCO 1221   2.817   1.472   2.354  0.2019 -0.0316  0.0481
 1222ACE    NCO 1222   0.560   3.156   4.709 -0.1473 -0.1951 -0.1554
 1223ACE    NCO 1223   3.867   2.689   0.662 -0.2664  0.1365 -0.1304
 1224ACE    NCO 1224   1.392   1.019   1.666 -0.2792 -0.0697  0.0767
 1225ACE    NCO 1225   2.122   5.157   3.364  0.3463 -0.1742  0.0276
 1226ACE    NCO 1226   2.648   2.920   3.040 -0.1085 -0.0373 -0.0547
 1227ACE    NCO 1227   3.271   5.405   2.032 -0.1040 -0.1123  0.0833
 1228ACE    NCO 1228   5.158   4.956   1.733 -0.2737  0.1907  0.2241
 1229ACE    NCO 1229   5.794   3.372   4.485 -0.1662  0.2742 -0.1746
 1230ACE    NCO 1230   4.923   5.761   4.185 -0.1454 -0.0188  0.3732
 1231ACE    NCO 1231   4.323   6.096   1.189 -0.3012 -0.0444  0.1140
 1232ACE    NCO 1232   5.591   4.960   0.500 -0.1800 -0.2798 -0.0165
 1233ACE    NCO 1233   2.504   1.789   1.348 -0.3629 -0.0430  0.1921
 1234ACE    NCO 1234   1.326   2.678   0.635 -0.0014 -0.0571 -0.0155
 1235ACE    NCO 1235   3.921   2.616   5.914 -0.3199 -0.1861 -0.1327
 1236ACE    NCO 1236   1.360   5.475   0.838  0.0439 -0.0905  0.0890
 1237ACE    NCO 1237   0.094   3.251   0.293  0.0936  0.0264 -0.1431
 1238ACE    NCO 1238   2.324   6.106   3.662 -0.0020 -0.2273 -0.0008
 1239ACE    NCO 1239   5.263   3.192   1.810 -0.2364  0.0133  0.1588
 1240ACE    NCO 1240   3.297   2.145   0.814  0.0185  0.2703 -0.0925
 1241ACE    NCO 1241   5.329   5.979   4.379 -0.1130 -0.0704 -0.2171
 1242ACE    NCO 1242   5.426   1.037   5.642  0.0210 -0.1513 -0.1554
 1243ACE    NCO 1243   3.073   1.121   0.481 -0.1487 -0.1777  0.0169
 1244ACE    NCO 1244   4.063   2.639   4.088  0.0644 -0.0898  0.0213
 1245ACE    NCO 1245   0.920   2.948   0.020 -0.1420 -0.1408 -0.0291
 1246ACE    NCO 1246   0.264   2.018   1.450  0.2825 -0.1663 -0.0583
 1247ACE    NCO 1247   4.294   5.045   3.311  0.0355  0.0896  0.0876
 1248ACE    NCO 1248   3.663   0.232   3.831  0.0796  0.2788 -0.3765
 1249ACE    NCO 1249   1.814   4.321   5.903  0.1057  0.1306 -0.0730
 1250ACE    NCO 1250   4.135   3.233   2.321  0.1343  0.0827  0.0870
 1251ACE    NCO 1251   1.876   5.259   3.811 -0.1903 -0.2461  0.2363
 1252ACE    NCO 1252   5.849   2.521   0.878 -0.1796 -0.1397  0.0231
 1253ACE    NCO 1253   5.049   0.495   3.962  0.0518  0.1149 -0.0622
 1254ACE    NCO 1254   6.021   1.155   0.648 -0.1414 -0.3316  0.1554
 1255ACE    NCO 1255   2.137   0.150   4.092  0.1793 -0.0050 -0.1793
 1256ACE    NCO 1256   3.921   3.177   0.854 -0.0670 -0.1310 -0.1088
 1257ACE    NCO 1257   0.952   0.784   0.524 -0.1138 -0.3211  0.1707
 1258ACE    NCO 1258   4.264   1.969   3.502  0.0693  0.0904  0.1589
 1259ACE    NCO 1259   6.140   3.816   5.554  0.1272 -0.3824 -0.2138
 1260ACE    NCO 1260   1.082   5.510   3.559 -0.2151  0.0146 -0.2247
 1261ACE    NCO 1261   4.154   1.657   5.306 -0.1754  0.0492  0.1556
 1262ACE    NCO 1262   2.220   2.999   1.079  0.0067  0.1135  0.1209
 1263ACE    NCO 1263   5.061   5.372   5.530 -0.2079 -0.0895 -0.0163
 1264ACE    NCO 1264   4.140   4.545   6.002 -0.4203  0.0645 -0.0326
 1265ACE    NCO 1265   3.964   0.232   1.076  0.0189  0.3505  0.0723
 1266ACE    NCO 1266   0.571   6.107   2.990  0.1443 -0.1326  0.0001
 1267ACE    NCO 1267   5.076   4.082   4.350  0.0517 -0.1343  0.0380
 1268ACE    NCO 1268   0.892   2.514   0.458  0.0828 -0.2552 -0.1235
 1269ACE    NCO 1269   3.566   2.312   0.046 -0.0992 -0.0261  0.0330
 1270ACE    NCO 1270   5.618   1.015   2.895  0.0834 -0.3170  0.3233
 1271ACE    NCO 1271   1.149   4.220   4.733  0.2034  0.0316 -0.0865
 1272ACE    NCO 1272   5.189   3.581   5.121  0.2602  0.0463 -0.3995
 1273ACE    NCO 1273   0.648   0.478   0.796 -0.4895  0.0340 -0.4066
 1274ACE    NCO 1274   5.316   0.203   1.569 -0.3263 -0.5126  0.0494
 1275ACE    NCO 1275   4.300   0.534   0.860 -0.1101 -0.3505  0.1932
 1276ACE    NCO 1276   4.218   0.783   3.712  0.0268 -0.0382 -0.0285
 1277ACE    NCO 1277   5.538   4.212   4.527 -0.0238  0.0711 -0.0731
 1278ACE    NCO 1278   2.443   5.595   1.785 -0.0805  0.2207  0.4060
 1279ACE    NCO 1279   0.797   1.252   5.287 -0.3265 -0.2281  0.1854
 1280ACE    NCO 1280   0.200   4.970   1.241 -0.4743 -0.3887  0.3743
 1281ACE    NCO 1281   1.544   2.912   5.914  0.0147  0.3448 -0.0648
 1282ACE    NCO 1282   2.296   6.000   3.208  0.2063 -0.2541 -0.2333
 1283ACE    NCO 1283   3.189   5.216   4.313 -0.1910  0.0579  0.2697
 1284ACE    NCO 1284   3.234   2.952   4.205  0.2380  0.1578 -0.1611
 1285ACE    NCO 1285   4.491   0.263   6.015  0.1091 -0.0473  0.1131
 1286ACE    NCO 1286   4.338   0.333   4.995 -0.0024  0.0069 -0.2840
 1287ACE    NCO 1287   0.669   4.764   4.171  0.0429 -0.0447 -0.0919
 1288ACE    NCO 1288   2.357   2.366   4.273 -0.2528 -0.3149  0.0390
 1289ACE    NCO 1289   5.629   5.711   1.073  0.0409 -0.1650 -0.1232
 1290ACE    NCO 1290   2.031   4.323   2.266  0.1527  0.2023  0.1256
 1291ACE    NCO 1291   5.918   1.557   4.041  0.0622 -0.1333 -0.2699
 1292ACE    NCO 1292   2.374   4.147   2.772 -0.0529  0.3440 -0.1399
 1293ACE    NCO 1293   1.761   2.039   3.457 -0.0835 -0.0410  0.0099
 1294ACE    NCO 1294   3.494   2.539   1.435  0.2105 -0.1330 -0.1919
 1295ACE    NCO 1295   4.492   5.818   4.446  0.0666  0.0238  0.3609
 1296ACE    NCO 1296   0.537   4.352   5.447  0.1111 -0.2003  0.1054
 1297ACE    NCO 1297   3.144   3.301   5.298  0.2170 -0.3768  0.0917
 1298ACE    NCO 1298   1.322   5.600   2.258  0.1737 -0.0202 -0.3963
 1299ACE    NCO 1299   5.125   1.044   4.047  0.1628 -0.1661 -0.0526
 1300ACE    NCO 1300   4.068   1.902   1.067  0.1541  0.1767  0.2064
 1301ACE    NCO 1301   4.111   2.044   2.511  0.4225 -0.5421 -0.2206
 1302ACE    NCO 1302   0.467   5.585   2.834  0.0552  0.0921 -0.3609
 1303ACE    NCO 1303   2.534   4.707   5.784 -0.0731  0.0312  0.2924
 1304ACE    NCO 1304   3.576   3.395   5.478 -0.3324  0.1101 -0.0765
 1305ACE    NCO 1305   2.555   1.340   3.615 -0.2842 -0.0715  0.0955
 1306ACE    NCO 1306   4.276   4.148   2.135  0.0006 -0.2922  0.0982
 1307ACE    NCO 1307   0.899   5.649   3.113 -0.3878  0.1310  0.2210
 1308ACE    NCO 1308   2.155   4.449   3.723  0.3228 -0.0244 -0.1332
 1309ACE    NCO 1309   1.157   4.817   2.954  0.0999 -0.1372  0.1114
 1310ACE    NCO 1310   2.097   4.800   0.972 -0.0532 -0.0212  0.0115
 1311ACE    NCO 1311   2.259   3.511   1.239 -0.0651  0.0300  0.0713
 1312ACE    NCO 1312   1.479   2.659   1.597 -0.0641 -0.1470  0.0055
 1313ACE    NCO 1313   2.516   2.391   0.586 -0.2183  0.1954  0.0189
 1314ACE    NCO 1314   5.283   2.729   4.054 -0.0882 -0.0353 -0.4631
 1315ACE    NCO 1315   2.512   1.705   0.845  0.2221  0.0308  0.1748
 1316ACE    NCO 1316   3.859   6.001   2.340  0.0031  0.1489 -0.0213
 1317ACE    NCO 1317   5.323   3.889   3.421 -0.3206  0.2020  0.1137
 1318ACE    NCO 1318   2.804   0.687   5.522  0.1113  0.0754  0.0020
 1319ACE    NCO 1319   5.285   6.000   1.989 -0.1722 -0.0156  0.0400
 1320ACE    NCO 1320   2.073   2.371   0.453  0.0209 -0.0536  0.1718
 1321ACE    NCO 1321   2.267   4.419   6.137  0.1276 -0.0662  0.1634
 1322ACE    NCO 1322   0.259   0.712   5.488 -0.0970 -0.0042  0.2811
 1323ACE    NCO 1323   2.027   0.710   3.295  0.3436  0.0925 -0.2663
 1324ACE    NCO 1324   3.836   3.977   1.929 -0.0095 -0.0814 -0.0539
 1325ACE    NCO 1325   1.997   2.752   4.211  0.1945 -0.2400  0.1046
 1326ACE    NCO 1326   1.935   1.539   4.403  0.1463  0.1866 -0.3871
 1327ACE    NCO 1327   0.590   0.716   2.278  0.0793  0.0113  0.1326
 1328ACE    NCO 1328   3.798   4.797   1.609 -0.0952 -0.2697  0.0026
 1329ACE    NCO 1329   1.184   0.895   5.389  0.3095 -0.3038 -0.2095
 1330ACE    NCO 1330   1.904   2.080   5.978  0.1397  0.0968 -0.1185
 1331ACE    NCO 1331   2.105   4.872   2.435 -0.0890  0.3186  0.2348
 1332ACE    NCO 1332   3.402   5.891   2.164  0.2303  0.3402 -0.2383
 1333ACE    NCO 1333   3.782   3.353   0.346  0.3697  0.0855  0.1311
 1334ACE    NCO 1334   2.297   3.607   5.014  0.1162 -0.0632  0.1428
 1335ACE    NCO 1335   0.631   3.327   1.510 -0.1431 -0.1441 -0.2195
 1336ACE    NCO 1336   3.831   6.141   2.905  0.0108  0.0426  0.0172
 1337ACE    NCO 1337   1.458   3.584   0.368 -0.0263  0.1847  0.1691
 1338ACE    NCO 1338   3.307   3.915   5.958 -0.1450 -0.2172  0.0229
 1339ACE    NCO 1339   2.531   1.703   3.239 -0.1744  0.0573 -0.2313
 1340ACE    NCO 1340   4.144   4.204   0.241  0.0191  0.2857 -0.1060
 1341ACE    NCO 1341   1.366   2.402   3.448 -0.1341 -0.2900  0.1231
 1342ACE    NCO 1342   5.553   2.094   5.916  0.1523  0.4136  0.3472
 1343ACE    NCO 1343   5.960   5.666   5.968 -0.1234  0.0157 -0.1337
 1344ACE    NCO 1344   0.439   2.493   2.595 -0.1405  0.0494 -0.1011
 1345ACE    NCO 1345   4.299   4.898   1.861  0.0197 -0.2106 -0.1664
 1346ACE    NCO 1346   5.774   2.011   0.826  0.2616 -0.2290 -0.1056
 1347ACE    NCO 1347   3.778   6.064   0.500  0.0232 -0.1099  0.1199
 1348ACE    NCO 1348   2.051   5.579   2.066  0.1020 -0.2417 -0.0288
 1349ACE    NCO 1349   4.454   4.840   2.828  0.2396  0.1762 -0.2370
 1350ACE    NCO 1350   4.618   5.703   2.608 -0.0274  0.4760 -0.1070
 1351ACE    NCO 1351   0.213   4.512   2.533 -0.4762  0.0442  0.0676
 1352ACE    NCO 1352   4.539   0.984   1.970  0.0518 -0.2236  0.0107
 1353ACE    NCO 1353   1.175   1.209   4.973 -0.1326 -0.0413 -0.0230
 1354ACE    NCO 1354   4.310   4.194   4.529  0.1144 -0.1097  0.0804
 1355ACE    NCO 1355   4.623   3.765   2.168  0.0440 -0.0588  0.1499
 1356ACE    NCO 1356   3.051   4.160   0.240  0.0347 -0.0966 -0.0950
 1357ACE    NCO 1357   2.259   4.930   3.894 -0.0562  0.0298  0.0647
 1358ACE    NCO 1358   3.986   1.725   4.316 -0.0950 -0.0653 -0.0661
 1359ACE    NCO 1359   0.262   4.918   2.181 -0.2026 -0.0764  0.0598
 1360ACE    NCO 1360   0.270   4.777   0.760 -0.2650 -0.2359 -0.0554
 1361ACE    NCO 1361   3.898   2.113   1.482 -0.3817 -0.0985 -0.0405
 1362ACE    NCO 1362   6.011   3.601   1.247  0.0519  0.0350  0.1708
 1363ACE    NCO 1363   0.947   4.144   6.081 -0.0732  0.1876 -0.3161
 1364ACE    NCO 1364   1.510   1.522   4.673 -0.2234  0.2275  0.1334
 1365ACE    NCO 1365   0.540   2.504   5.035 -0.3027 -0.3150 -0.3368
 1366ACE    NCO 1366   0.646   4.577   1.258 -0.3331 -0.0952 -0.0089
 1367ACE    NCO 1367   0.844   2.635   4.261 -0.1172  0.0126 -0.0189
 1368ACE    NCO 1368   2.744   0.560   2.589  0.1837 -0.2527  0.0887
 1369ACE    NCO 1369   5.762   5.509   1.551  0.0508  0.1150 -0.0578
 1370ACE    NCO 1370   5.055   3.290   0.838 -0.3118  0.1276  0.0777
 1371ACE    NCO 1371   5.233   0.343   3.563  0.1332  0.0391  0.4380
 1372ACE    NCO 1372   6.029   3.342   5.436 -0.1971  0.0541  0.0091
 1373ACE    NCO 1373   4.899   2.585   5.374 -0.0524 -0.0413  0.0133
 1374ACE    NCO 1374   4.302   1.261   3.832 -0.0120  0.0005  0.0896
 1375ACE    NCO 1375   0.640   4.359   0.245  0.1437 -0.1634  0.0863
 1376ACE    NCO 1376   4.952   1.710   1.386  0.1184 -0.1547 -0.1046
 1377ACE    NCO 1377   1.960   0.540   2.789 -0.0134 -0.1241  0.3900
 1378ACE    NCO 1378   2.713   4.213   0.606 -0.5898 -0.1752 -0.1587
 1379ACE    NCO 1379   4.449   4.741   5.175 -0.2230 -0.1009  0.3988
 1380ACE    NCO 1380   3.193   0.999   0.978  0.2765  0.3874  0.0293
 1381ACE    NCO 1381   1.278   1.145   1.188 -0.0688 -0.1263  0.2663
 1382ACE    NCO 1382   2.173   1.942   5.555 -0.1443 -0.1065 -0.0653
 1383ACE    NCO 1383   4.109   3.126   1.841  0.1312  0.1871  0.0720
 1384ACE    NCO 1384   2.582   1.649   5.633 -0.2273 -0.0923 -0.1161
 1385ACE    NCO 1385   4.711   2.106   3.678  0.3015 -0.2755 -0.2850
 1386ACE    NCO 1386   1.895   2.329   1.657  0.0453 -0.1780  0.1272
 1387ACE    NCO 1387   4.774   2.378   0.045 -0.4647 -0.1221 -0.0500
 1388ACE    NCO 1388   1.184   4.004   1.838 -0.0446 -0.4363  0.0119
 1389ACE    NCO 1389   4.444   2.785   6.141  0.1267 -0.2455  0.2608
 1390ACE    NCO 1390   4.341   2.704   5.643 -0.6039 -0.0117  0.0403
 1391ACE    NCO 1391   5.365   4.055   1.599 -0.0282 -0.3021  0.1459
 1392ACE    NCO 1392   4.139   0.382   4.074 -0.0215  0.1480  0.1682
 1393ACE    NCO 1393   0.394   0.346   1.559 -0.2381 -0.0291 -0.2319
 1394ACE    NCO 1394   5.240   1.559   4.204  0.4561 -0.0375  0.0575
 1395ACE    NCO 1395   2.842   4.682   0.766  0.0743 -0.0528 -0.0581
 1396ACE    NCO 1396   0.741   4.193   5.009 -0.3101  0.3375 -0.0097
 1397ACE    NCO 1397   4.731   2.546   1.431 -0.0048 -0.2719 -0.0679
 1398ACE    NCO 1398   2.356   3.722   3.144  0.1139  0.1531 -0.2698
 1399ACE    NCO 1399   1.196   2.057   6.138  0.1732 -0.0819  0.1196
 1400ACE    NCO 1400   2.450   3.963   2.277 -0.2348  0.1254 -0.1429
 1401ACE    NCO 1401   5.260   2.665   3.552 -0.0510  0.0124  0.1795
 1402ACE    NCO 1402   3.541   3.060   3.030  0.0668  0.0261  0.2903
 1403ACE    NCO 1403   4.840   0.526   5.741 -0.1465  0.1188 -0.0664
 1404ACE    NCO 1404   4.251   0.665   2.214 -0.2309 -0.1518 -0.0840
 1405ACE    NCO 1405   2.218   1.506   1.616  0.3071  0.0436  0.0193
 1406ACE    NCO 1406   5.656   5.342   0.080 -0.0163  0.0460 -0.1612
 1407ACE    NCO 1407   0.817   0.359   1.321 -0.3561  0.1613  0.1877
 1408ACE    NCO 1408   2.789   4.474   4.933 -0.0734  0.0725 -0.0145
 1409ACE    NCO 1409   3.838   2.281   2.980 -0.1386  0.1105  0.4178
 1410ACE    NCO 1410   3.261   1.535   5.384  0.0402 -0.3801  0.1012
 1411ACE    NCO 1411   1.131   1.703   0.340 -0.0297 -0.0458  0.4347
 1412ACE    NCO 1412   0.657   4.971   6.115 -0.0428  0.2243 -0.1875
 1413ACE    NCO 1413   1.811   3.042   5.145  0.2062  0.1647 -0.1907
 1414ACE    NCO 1414   5.268   2.532   2.134 -0.1889 -0.0828 -0.2503
 1415ACE    NCO 1415   3.012   0.639   0.356  0.1354  0.3950  0.0937
 1416ACE    NCO 1416   3.655   4.247   5.281 -0.2202  0.1420 -0.0899
 1417ACE    NCO 1417   3.152   5.803   3.440 -0.1437 -0.0432  0.0260
 1418ACE    NCO 1418   2.658   1.414   6.086 -0.0370 -0.0775 -0.2798
 1419ACE    NCO 1419   0.644   1.624   3.912 -0.1148  0.1070 -0.0420
 1420ACE    NCO 1420   1.018   5.113   3.955  0.2329  0.0129  0.1792
 1421ACE    NCO 1421   0.976   1.945   1.260  0.2030 -0.3027  0.1668
 1422ACE    NCO 1422   5.253   5.831   1.427  0.0432  0.3775 -0.1644
 1423ACE    NCO 1423   3.589   1.171   5.438  0.1016  0.0448 -0.1604
 1424ACE    NCO 1424   2.646   6.093   0.992 -0.1743 -0.1043 -0.2033
 1425ACE    NCO 1425   4.176   5.598   2.429  0.2005  0.0928 -0.1663
 1426ACE    NCO 1426   4.803   2.591   3.840  0.2814  0.0382 -0.3271
 1427ACE    NCO 1427   2.960   1.107   4.198  0.1611 -0.2588  0.0243
 1428ACE    NCO 1428   3.962   5.832   5.685 -0.0287 -0.0347  0.1779
 1429ACE    NCO 1429   0.558   4.036   2.107 -0.0250 -0.0909 -0.0370
 1430ACE    NCO 1430   3.045   0.477   5.068 -0.1247  0.1003  0.0419
 1431ACE    NCO 1431   2.937   4.675   5.517  0.1807 -0.0109  0.1951
 1432ACE    NCO 1432   4.492   1.688   2.567  0.4665  0.2949 -0.0549
 1433ACE    NCO 1433   3.358   4.567   3.739 -0.2344 -0.1995 -0.0265
 1434ACE    NCO 1434   4.742   5.411   0.587 -0.0666  0.1669  0.3076
 1435ACE    NCO 1435   4.744   4.157   0.880  0.2706 -0.0216  0.0145
 1436ACE    NCO 1436   5.150   0.125   5.291 -0.0804 -0.1409  0.1485
 1437ACE    NCO 1437   3.503   4.467   4.711 -0.0971  0.2384  0.0936
 1438ACE    NCO 1438   4.477   5.703   3.937 -0.1935 -0.2949 -0.2157
 1439ACE    NCO 1439   0.741   5.271   4.352  0.1733  0.2899 -0.3491
 1440ACE    NCO 1440   2.502   1.906   2.715  0.0222 -0.2098 -0.0072
 1441ACE    NCO 1441   2.546   3.443   2.195 -0.0952 -0.0029  0.0174
 1442ACE    NCO 1442   4.095   0.986   3.224  0.1218 -0.1789 -0.0470
 1443ACE    NCO 1443   1.777   0.631   1.776  0.0133 -0.2746  0.2342
 1444ACE    NCO 1444   2.200   5.107   5.820  0.2974 -0.1194  0.1280
 1445ACE    NCO 1445   4.913   0.753   3.514  0.0982 -0.2412 -0.1558
 1446ACE    NCO 1446   5.726   2.637   2.355 -0.2011 -0.1214 -0.1924
 1447ACE    NCO 1447   4.461   2.774   1.908 -0.3400  0.1407 -0.2245
 1448ACE    NCO 1448   4.373   1.520   4.889 -0.0525  0.0378 -0.1008
 1449ACE    NCO 1449   1.075   4.210   1.304 -0.2154  0.1237  0.0363
 1450ACE    NCO 1450   0.779   1.652   2.542 -0.2330 -0.1562  0.0771
 1451ACE    NCO 1451   2.973   5.157   2.827 -0.1697  0.0499  0.1668
 1452ACE    NCO 1452   2.231   2.599   1.480  0.0862  0.0286 -0.0472
 1453ACE    NCO 1453   0.074   4.310   5.800 -0.4034  0.0814  0.0700
 1454ACE    NCO 1454   3.148   3.851   0.697  0.1245 -0.0539  0.1635
 1455ACE    NCO 1455   1.401   4.336   0.096  0.3227 -0.1245  0.0520
 1456ACE    NCO 1456   6.130   1.390   5.060 -0.0464 -0.1094  0.2247
 1457ACE    NCO 1457   2.634   1.130   1.733 -0.1441  0.1673  0.1696
 1458ACE    NCO 1458   1.975   4.229   0.811 -0.4597  0.1214  0.1029
 1459ACE    NCO 1459   2.943   4.880   6.011  0.0206  0.0487 -0.1633
 1460ACE    NCO 1460   1.115   3.461   1.683 -0.0493  0.0969 -0.2141
 1461ACE    NCO 1461   5.609   2.735   1.349 -0.2518  0.3735 -0.2466
 1462ACE    NCO 1462   0.451   3.884   5.338  0.0397 -0.3251  0.2029
 1463ACE    NCO 1463   5.368   5.802   3.833  0.1058 -0.3581 -0.1778
 1464ACE    NCO 1464   2.162   5.960   0.774  0.1619  0.1211 -0.1886
 1465ACE    NCO 1465   1.171   3.056   3.922 -0.1503  0.0863  0.0338
 1466ACE    NCO 1466   0.483   2.107   5.391 -0.0068 -0.0979  0.3702
 1467ACE    NCO 1467   0.606   4.081   1.147  0.5217 -0.1522 -0.1973
 1468ACE    NCO 1468   1.987   1.154   0.990  0.3349 -0.0849  0.0782
 1469ACE    NCO 1469   4.946   4.131   1.897  0.1479  0.1583 -0.1162
 1470ACE    NCO 1470   2.476   5.364   4.999  0.0493 -0.1797  0.1739
 1471ACE    NCO 1471   3.321   0.712   4.266  0.0406 -0.1467  0.3383
 1472ACE    NCO 1472   1.405   2.796   3.009  0.0522 -0.0323  0.2034
 1473ACE    NCO 1473   6.002   5.175   0.651 -0.1524 -0.2247  0.1345
 1474ACE    NCO 1474   0.830   1.746   5.431 -0.1879  0.0955 -0.1912
 1475ACE    NCO 1475   4.204   0.459   4.539 -0.1656 -0.0232 -0.0393
 1476ACE    NCO 1476   4.604   1.835   5.495  0.4252 -0.4163  0.0252
 1477ACE    NCO 1477   1.737   3.062   2.762  0.0188  0.0023 -0.2975
 1478ACE    NCO 1478   0.489   5.821   1.907  0.1761 -0.0101 -0.1363
 1479ACE    NCO 1479   4.202   1.890   2.986  0.0017 -0.0291 -0.3835
 1480ACE    NCO 1480   4.414   4.687   2.308 -0.2051 -0.3307 -0.1934
 1481ACE    NCO 1481   1.596   2.522   2.052 -0.0661  0.2246  0.2147
 1482ACE    NCO 1482   1.103   3.641   3.087 -0.1358  0.0347  0.1753
 1483ACE    NCO 1483   0.480   1.831   1.046 -0.0735  0.2581 -0.0747
 1484ACE    NCO 1484   0.085   2.164   0.992  0.0132  0.1244 -0.1340
 1485ACE    NCO 1485   5.118   5.995   3.384 -0.0380 -0.3593 -0.2138
 1486ACE    NCO 1486   3.386   1.101   3.948  0.0246 -0.0637  0.1770
 1487ACE    NCO 1487   2.406   0.111   1.461 -0.1566 -0.0667  0.4462
 1488ACE    NCO 1488   2.699   0.137   5.369 -0.0768 -0.0486  0.1055
 1489ACE    NCO 1489   0.032   2.738   0.184  0.1092  0.0600 -0.0157
 1490ACE    NCO 1490   2.872   0.315   3.058 -0.1393  0.1180 -0.0970
 1491ACE    NCO 1491   6.157   2.363   2.402 -0.0494 -0.0084  0.1014
 1492ACE    NCO 1492   3.071   3.397   0.565  0.1631  0.1670 -0.1420
 1493ACE    NCO 1493   3.057   1.008   6.146  0.0566  0.0139 -0.0586
 1494ACE    NCO 1494   5.162   2.604   1.116 -0.2786  0.1073  0.1155
 1495ACE    NCO 1495   1.794   1.033   4.191  0.1475 -0.0041 -0.0937
 1496ACE    NCO 1496   4.861   5.504   2.205 -0.0222 -0.2243 -0.2502
 1497ACE    NCO 1497   4.712   0.194   0.884 -0.3026 -0.2164  0.0836
 1498ACE    NCO 1498   3.834   0.138   4.894  0.2304 -0.0315  0.3819
 1499ACE    NCO 1499   6.081   2.840   1.559 -0.0422 -0.0734 -0.0141
 1500ACE    NCO 1500   0.444   0.811   4.117 -0.0643  0.0700  0.2342
 1501ACE    NCO 1501   0.982   3.439   0.224  0.4120 -0.1502 -0.1041
 1502ACE    NCO 1502   4.795   5.568   5.924  0.0339 -0.0174 -0.0196
 1503ACE    NCO 1503   3.232   3.918   3.093  0.0889  0.2265 -0.0837
 1504ACE    NCO 1504   2.268   2.570   3.275  0.0172  0.1633 -0.0642
 1505ACE    NCO 1505   2.362   2.285   0.036 -0.3354 -0.1479  0.2205
 1506ACE    NCO 1506   2.483   1.159   5.417 -0.0999 -0.1099 -0.1654
 1507ACE    NCO 1507   6.008   0.006   3.226 -0.3814 -0.1378 -0.2036
 1508ACE    NCO 1508   6.095   1.876   2.227 -0.0384 -0.4175  0.1300
 1509ACE    NCO 1509   4.650   5.754   5.457  0.0285  0.0849  0.0958
 1510ACE    NCO 1510   1.576   5.424   1.834  0.3232  0.0759 -0.3084
 1511ACE    NCO 1511   4.191   4.422   5.460 -0.1442 -0.2028  0.0459
 1512ACE    NCO 1512   4.993   5.822   0.394  0.1350  0.0275 -0.0899
 1513ACE    NCO 1513   3.858   4.079   4.836  0.1839  0.1630 -0.0732
 1514ACE    NCO 1514   4.890   4.786   4.904  0.0631 -0.0369  0.0627
 1515ACE    NCO 1515   0.793   1.000   0.949  0.0023  0.0852  0.1532
 1516ACE    NCO 1516   5.042   3.403   2.214  0.2178  0.0297 -0.1011
 1517ACE    NCO 1517   0.018   5.831   2.289  0.0490 -0.0894 -0.2226
 1518ACE    NCO 1518   3.899   4.356   0.647  0.0179  0.0426 -0.2679
 1519ACE    NCO 1519   3.467   2.538   5.718 -0.0629  0.1191  0.0661
 1520ACE    NCO 1520   3.239   2.724   6.136 -0.0293  0.0513  0.4998
 1521ACE    NCO 1521   1.606   3.384   6.077 -0.1917 -0.0313  0.1249
 1522ACE    NCO 1522   0.182   0.224   2.934  0.1858  0.0176  0.1250
 1523ACE    NCO 1523   3.929   3.038   5.569  0.2144 -0.2301 -0.1729
 1524ACE    NCO 1524   0.560   0.228   2.132 -0.0566  0.1392 -0.1170
 1525ACE    NCO 1525   3.788   0.355   0.098 -0.2442  0.0780 -0.2785
 1526ACE    NCO 1526   0.395   0.090   3.454  0.3628  0.0387  0.4329
 1527ACE    NCO 1527   2.908   3.076   2.283  0.4205  0.2105 -0.2206
 1528ACE    NCO 1528   2.406   3.698   1.719  0.2371  0.1382 -0.1385
 1529ACE    NCO 1529   2.960   3.694   3.845 -0.2048  0.0031  0.0749
 1530ACE    NCO 1530   4.962   0.636   2.037  0.2351 -0.2137 -0.1508
 1531ACE    NCO 1531   2.302   4.038   0.383  0.1268 -0.1652  0.3955
 1532ACE    NCO 1532   6.119   0.554   1.036 -0.1514  0.1657 -0.1445
 1533ACE    NCO 1533   1.397   1.885   5.681  0.2033  0.0860  0.4085
 1534ACE    NCO 1534   1.646   3.893   3.826  0.1426  0.2017 -0.0870
 1535ACE    NCO 1535   5.710   2.793   3.784  0.0747  0.0419  0.1788
 1536ACE    NCO 1536   3.520   2.532   1.933 -0.0417 -0.0231 -0.3223
 1537ACE    NCO 1537   4.894   2.943   0.108 -0.1214  0.0783 -0.0194
 1538ACE    NCO 1538   5.520   4.435   0.337 -0.0176  0.1119  0.1296
 1539ACE    NCO 1539   0.262   3.849   2.841  0.5167  0.0215  0.1196
 1540ACE    NCO 1540   1.026   3.693   1.235  0.2867  0.3356 -0.0523
 1541ACE    NCO 1541   2.618   1.017   0.265  0.1822  0.1721 -0.1801
 1542ACE    NCO 1542   3.840   4.575   3.446 -0.1524  0.5816 -0.3128
 1543ACE    NCO 1543   3.719   2.408   2.459  0.1706 -0.0175  0.3319
 1544ACE    NCO 1544   1.693   2.613   2.570  0.1534 -0.3156  0.1600
 1545ACE    NCO 1545   0.841   3.586   5.921  0.3848  0.1882  0.1539
 1546ACE    NCO 1546   1.414   1.052   4.523  0.0344  0.2405 -0.2137
 1547ACE    NCO 1547   4.874   3.039   3.546 -0.0208 -0.1207 -0.4722
 1548ACE    NCO 1548   3.798   1.700   1.875 -0.0421  0.1432 -0.0603
 1549ACE    NCO 1549   5.505   1.176   1.920  0.2804  0.3383 -0.2614
 1550ACE    NCO 1550   0.547   5.529   5.251 -0.0351  0.0202 -0.0298
 1551ACE    NCO 1551   3.690   2.732   4.867  0.1406 -0.0028  0.1380
 1552ACE    NCO 1552   2.716   3.389   0.887  0.0586 -0.0872  0.1424
 1553ACE    NCO 1553   4.568   4.453   1.867 -0.1401 -0.0065  0.3882
 1554ACE    NCO 1554   0.529   2.956   2.761 -0.1439 -0.1476 -0.1825
 1555ACE    NCO 1555   3.928   0.765   5.515 -0.2176 -0.2495  0.0277
 1556ACE    NCO 1556   1.728   1.194   0.008  0.1366 -0.4866  0.0452
 1557ACE    NCO 1557   5.423   4.239   2.098 -0.0829 -0.0648 -0.1013
 1558ACE    NCO 1558   3.445   5.039   3.870  0.2164  0.1028  0.1926
 1559ACE    NCO 1559   5.890   2.109   3.176  0.0373  0.1005 -0.3906
 1560ACE    NCO 1560   4.750   0.583   0.515  0.2401 -0.0386 -0.3797
 1561ACE    NCO 1561   4.217   3.647   4.403  0.1086  0.2518  0.2963
 1562ACE    NCO 1562   3.595   3.660   1.357  0.0845 -0.1494 -0.0334
 1563ACE    NCO 1563   2.626   2.277   1.514  0.1296  0.0918 -0.0968
 1564ACE    NCO 1564   2.325   5.700   5.991  0.1627 -0.2643 -0.5024
 1565ACE    NCO 1565   4.021   6.054   3.876  0.0266  0.3138 -0.1575
 1566ACE    NCO 1566   3.534   2.674   3.349  0.2503  0.0486  0.2527
 1567ACE    NCO 1567   5.132   5.858   5.636 -0.2869 -0.0199 -0.1443
 1568ACE    NCO 1568   5.288   4.019   5.336 -0.0361 -0.1751 -0.3468
 1569ACE    NCO 1569   2.139   2.137   1.282 -0.4224  0.1946  0.0368
 1570ACE    NCO 1570   3.295   0.530   3.277 -0.1833 -0.0362 -0.0106
 1571ACE    NCO 1571   6.092   1.228   3.097  0.0344  0.0547  0.1015
 1572ACE    NCO 1572   0.016   1.650   0.887  0.2345 -0.1199  0.0585
 1573ACE    NCO 1573   5.220   1.648   4.762 -0.2456 -0.2673  0.0610
 1574ACE    NCO 1574   0.497   5.419   4.722  0.3664  0.0237  0.0869
 1575ACE    NCO 1575   4.080   4.018   2.930 -0.1056 -0.1404  0.0743
 1576ACE    NCO 1576   5.357   3.325   5.703  0.0910 -0.0224 -0.2511
 1577ACE    NCO 1577   0.197   1.476   3.753 -0.0560  0.1785  0.3351
 1578ACE    NCO 1578   3.580   4.632   2.421  0.0004  0.0068 -0.1640
 1579ACE    NCO 1579   3.045   3.537   4.814 -0.1204 -0.1541  0.3235
 1580ACE    NCO 1580   2.301   1.881   0.382 -0.0321 -0.0953  0.0207
 1581ACE    NCO 1581   5.196   5.248   0.412  0.1108  0.0565  0.0839
 1582ACE    NCO 1582   5.474   1.892   1.587 -0.1541 -0.0739  0.2133
 1583ACE    NCO 1583   2.320   0.888   2.484 -0.1183 -0.2143 -0.1401
 1584ACE    NCO 1584   4.487   0.471   1.794 -0.2084  0.1876 -0.0921
 1585ACE    NCO 1585   3.325   2.744   2.371  0.0924  0.1695 -0.0401
 1586ACE    NCO 1586   3.171   4.320   0.878  0.1831 -0.1678  0.2704
 1587ACE    NCO 1587   3.095   3.066   3.275 -0.3998 -0.1197  0.3013
 1588ACE    NCO 1588   1.250   2.285   1.025  0.1979 -0.0475  0.0887
 1589ACE    NCO 1589   5.698   0.454   3.670  0.0559  0.1241  0.1103
 1590ACE    NCO 1590   5.701   3.500   3.472  0.0063  0.1520 -0.0799
 1591ACE    NCO 1591   0.228   4.662   0.248 -0.0922 -0.0066  0.0262
 1592ACE    NCO 1592   2.782   3.287   1.834  0.2095 -0.0082  0.1122
 1593ACE    NCO 1593   1.670   5.606   4.750  0.1999 -0.0407  0.1789
 1594ACE    NCO 1594   5.037   4.489   0.606  0.0083  0.2764 -0.0203
 1595ACE    NCO 1595   3.174   1.615   0.649  0.0514  0.1007 -0.2673
 1596ACE    NCO 1596   3.329   5.086   5.240 -0.0810 -0.1671  0.0162
 1597ACE    NCO 1597   3.741   4.617   0.175 -0.2661 -0.0376 -0.0633
 1598ACE    NCO 1598   0.654   2.840   3.805 -0.2714 -0.0746 -0.1007
 1599ACE    NCO 1599   5.168   0.951   2.685  0.1939  0.4132 -0.0751
 1600ACE    NCO 1600   1.389   3.199   0.774 -0.2505  0.1006 -0.0016
 1601ACE    NCO 1601   5.436   6.011   4.909 -0.1397  0.1709  0.1678
 1602ACE    NCO 1602   2.841   0.018   5.849  0.1167 -0.0094 -0.0656
 1603ACE    NCO 1603   3.593   0.687   2.493  0.3335 -0.0619  0.1736
 1604ACE    NCO 1604   1.065   3.028   1.516 -0.0116  0.2909 -0.3390
 1605ACE    NCO 1605   1.452   5.753   5.178  0.2993 -0.0234 -0.0192
 1606ACE    NCO 1606   1.523   0.103   5.354  0.2140  0.4548 -0.2359
 1607ACE    NCO 1607   1.994   1.754   2.555  0.0963  0.2073 -0.3931
 1608ACE    NCO 1608   3.983   1.970   0.099  0.0693 -0.2106  0.0220
 1609ACE    NCO 1609   5.907   4.130   0.404 -0.0336  0.0872 -0.2630
 1610ACE    NCO 1610   0.535   2.338   1.203 -0.2276  0.0379  0.1347
 1611ACE    NCO 1611   1.002   3.903   0.379  0.0342 -0.2448  0.3017
 1612ACE    NCO 1612   4.974   3.556   3.664  0.1011  0.3988 -0.0367
 1613ACE    NCO 1613   1.018   6.038   5.067  0.2817 -0.3559 -0.0576
 1614ACE    NCO 1614   0.810   1.336   5.864  0.2392  0.0052  0.1101
 1615ACE    NCO 1615   0.997   1.295   1.639  0.3074 -0.0346  0.3128
 1616ACE    NCO 1616   4.048   3.227   3.246 -0.1520  0.0608 -0.0184
 1617ACE    NCO 1617   5.428   1.191   6.154  0.2843  0.4932 -0.0595
 1618ACE    NCO 1618   5.165   2.247   3.872 -0.0106  0.0338  0.2016
 1619ACE    NCO 1619   5.809   4.019   3.623  0.1588 -0.4168 -0.1635
 1620ACE    NCO 1620   5.911   3.352   3.030 -0.0732 -0.0424  0.0423
 1621ACE    NCO 1621   3.280   3.440   4.418  0.0111 -0.2048  0.1039
 1622ACE    NCO 1622   5.243   0.611   5.469  0.0779 -0.4661 -0.1687
 1623ACE    NCO 1623   4.856   2.129   5.187  0.0636 -0.0302 -0.0163
 1624ACE    NCO 1624   4.664   4.901   0.564 -0.2141  0.1653  0.0420
 1625ACE    NCO 1625   2.410   3.043   5.883 -0.1073  0.0683 -0.1445
 1626ACE    NCO 1626   3.307   0.196   6.010  0.0644  0.2759 -0.2814
 1627ACE    NCO 1627   1.681   0.091   4.437  0.0097 -0.0036 -0.0656
 1628ACE    NCO 1628   5.742   1.003   1.453  0.1494  0.0274  0.0335
 1629ACE    NCO 1629   1.372   1.603   3.700  0.0448 -0.2384  0.1200
 1630ACE    NCO 1630   3.772   3.095   4.514  0.2713 -0.3512  0.1210
 1631ACE    NCO 1631   2.705   5.145   5.514 -0.0160 -0.2073 -0.0148
 1632ACE    NCO 1632   4.005   3.316   1.328 -0.1283  0.0322 -0.0216
 1633ACE    NCO 1633   0.920   5.568   2.496  0.0245 -0.1359  0.2238
 1634ACE    NCO 1634   0.146   5.349   3.678 -0.0435 -0.0351 -0.2067
 1635ACE    NCO 1635   3.729   5.842   4.696 -0.0462 -0.1331  0.0261
 1636ACE    NCO 1636   3.831   0.264   5.369 -0.0504  0.1030 -0.0764
 1637ACE    NCO 1637   4.253   1.755   1.593  0.2385 -0.2543  0.2040
 1638ACE    NCO 1638   2.215   5.626   3.564 -0.0240  0.1369 -0.3150
 1639ACE    NCO 1639   1.853   4.198   4.522  0.0665  0.0907 -0.3053
 1640ACE    NCO 1640   1.917   1.241   2.415 -0.1254 -0.4281  0.1894
 1641ACE    NCO 1641   1.695   4.689   2.193  0.1716 -0.1664 -0.1397
 1642ACE    NCO 1642   2.276   3.342   0.647 -0.0555  0.0255  0.1325
 1643ACE    NCO 1643   4.054   5.803   1.904 -0.0726  0.0638  0.0880
 1644ACE    NCO 1644   0.346   4.551   5.015 -0.0066  0.1474 -0.0164
 1645ACE    NCO 1645   4.877   2.570   2.427 -0.0259  0.0191  0.1759
 1646ACE    NCO 1646   2.318   5.797   1.322 -0.1176  0.0092  0.2159
 1647ACE    NCO 1647   3.113   2.200   5.973 -0.0176 -0.1791  0.1161
 1648ACE    NCO 1648   1.567   5.765   1.469  0.1153 -0.0821 -0.1693
 1649ACE    NCO 1649   5.906   0.821   1.993 -0.0409  0.1621  0.0776
 1650ACE    NCO 1650   2.305   1.314   2.067 -0.0297  0.1352  0.5042
 1651ACE    NCO 1651   0.287   1.952   0.574 -0.0240 -0.0184  0.0507
 1652ACE    NCO 1652   4.444   2.495   5.203  0.2451 -0.0284  0.1163
 1653ACE    NCO 1653   5.035   2.102   1.007 -0.2395  0.0409 -0.0004
 1654ACE    NCO 1654   2.520   4.729   3.496  0.2691 -0.2511  0.0617
 1655ACE    NCO 1655   1.040   2.552   3.845 -0.2520 -0.2237  0.0444
 1656ACE    NCO 1656   0.885   5.948   0.266  0.0520 -0.2431 -0.2223
 1657ACE    NCO 1657   2.342   3.121   1.617 -0.4742 -0.0986  0.1580
 1658ACE    NCO 1658   3.192   1.103   2.416 -0.0619 -0.0358  0.0518
 1659ACE    NCO 1659   2.774   5.937   1.521 -0.3410 -0.0028 -0.1663
 1660ACE    NCO 1660   6.053   0.166   1.423 -0.2144  0.0669  0.2229
 1661ACE    NCO 1661   1.211   5.128   2.118 -0.2718 -0.0700  0.1919
 1662ACE    NCO 1662   0.966   0.199   4.686 -0.0794  0.3166  0.1101
 1663ACE    NCO 1663   4.394   3.341   1.020  0.1504 -0.0618 -0.0607
 1664ACE    NCO 1664   1.508   4.756   1.163  0.1999  0.1097  0.0020
 1665ACE    NCO 1665   3.679   4.510   1.067  0.1820 -0.1927  0.4002
 1666ACE    NCO 1666   1.771   4.796   3.670  0.0377  0.0048 -0.1706
 1667ACE    NCO 1667   1.538   3.628   1.907  0.1272 -0.0823  0.0587
 1668ACE    NCO 1668   1.310   1.606   1.355 -0.2244 -0.0622  0.3838
 1669ACE    NCO 1669   1.540   4.324   2.511 -0.1496  0.2267  0.0427
 1670ACE    NCO 1670   4.154   1.478   3.339  0.0187  0.1388 -0.1304
 1671ACE    NCO 1671   3.186   0.158   3.636 -0.0725 -0.1740  0.1147
 1672ACE    NCO 1672   4.915   2.988   2.658 -0.0213 -0.2433  0.2821
 1673ACE    NCO 1673   4.556   1.004   2.892  0.1477 -0.2452 -0.2067
 1674ACE    NCO 1674   0.204   1.675   1.857 -0.1730  0.3518 -0.0486
 1675ACE    NCO 1675   0.930   0.882   1.458 -0.2742  0.1792  0.2391
 1676ACE    NCO 1676   1.764   3.232   0.449  0.2042 -0.0393 -0.2744
 1677ACE    NCO 1677   4.381   5.641   1.503  0.1364  0.0131  0.3626
 1678ACE    NCO 1678   5.110   3.799   0.954  0.1617  0.2559 -0.0456
 1679ACE    NCO 1679   1.823   3.443   1.479 -0.0833 -0.3083  0.0127
 1680ACE    NCO 1680   0.162   1.473   0.415 -0.2884  0.1516 -0.1124
 1681ACE    NCO 1681   3.538   0.091   0.909 -0.0093 -0.0676 -0.2826
 1682ACE    NCO 1682   4.555   2.864   4.810  0.0678  0.4983 -0.1377
 1683ACE    NCO 1683   4.956   3.449   0.332 -0.0542  0.0815 -0.0499
 1684ACE    NCO 1684   2.444   0.469   3.841  0.1289 -0.3360 -0.0425
 1685ACE    NCO 1685   4.186   4.524   3.092  0.1240 -0.0584  0.0657
 1686ACE    NCO 1686   4.494   6.059   3.568  0.2548  0.1761 -0.0032
 1687ACE    NCO 1687   2.962   1.859   1.053 -0.0038  0.0650 -0.0576
 1688ACE    NCO 1688   3.473   4.198   0.465 -0.0276  0.1976  0.0127
 1689ACE    NCO 1689   3.420   0.893   2.000  0.2924  0.1594 -0.0916
 1690ACE    NCO 1690   1.372   5.386   5.596 -0.2454 -0.1814 -0.1008
 1691ACE    NCO 1691   4.024   2.729   2.199 -0.3137 -0.0339  0.1264
 1692ACE    NCO 1692   1.596   0.318   1.144 -0.0276 -0.0710  0.1690
 1693ACE    NCO 1693   0.915   3.004   0.527 -0.2399 -0.1001 -0.0777
 1694ACE    NCO 1694   3.665   1.033   1.161  0.1623  0.3363 -0.0025
 1695ACE    NCO 1695   2.268   2.450   5.684 -0.2613  0.2523 -0.1443
 1696ACE    NCO 1696   3.216   0.723   2.780 -0.1121 -0.0088  0.1189
 1697ACE    NCO 1697   3.116   4.352   1.717 -0.1033 -0.0775 -0.1448
 1698ACE    NCO 1698   5.776   3.238   0.594  0.2669 -0.2915 -0.1411
 1699ACE    NCO 1699   5.644   4.134   3.150  0.2124  0.2809 -0.2119
 1700ACE    NCO 1700   6.002   1.028   5.397 -0.1530  0.0037  0.1903
 1701ACE    NCO 1701   4.352   2.266   1.762 -0.1226 -0.1679 -0.2234
 1702ACE    NCO 1702   3.925   0.806   0.290 -0.2891  0.1446 -0.1546
 1703ACE    NCO 1703   1.506   5.651   3.759 -0.1710 -0.0541  0.2202
 1704ACE    NCO 1704   2.116   5.003   2.925 -0.0429  0.0020  0.2210
 1705ACE    NCO 1705   2.810   4.822   2.186  0.0493 -0.0518  0.0219
 1706ACE    NCO 1706   0.811   3.195   1.944  0.3902 -0.0846  0.1550
 1707ACE    NCO 1707   2.744   3.823   2.872  0.1026  0.0171 -0.1579
 1708ACE    NCO 1708   3.690   0.121   3.362  0.3008  0.1627 -0.0636
 1709ACE    NCO 1709   0.630   2.397   3.653 -0.1312  0.2419 -0.0783
 1710ACE    NCO 1710   4.299   4.046   0.665  0.0359  0.0820 -0.1567
 1711ACE    NCO 1711   4.844   1.643   5.099 -0.0548 -0.0452  0.1526
 1712ACE    NCO 1712   0.694   1.826   2.026  0.0456 -0.0792 -0.1907
 1713ACE    NCO 1713   4.901   4.246   3.344 -0.3682  0.0981 -0.1304
 1714ACE    NCO 1714   3.638   1.622   0.338 -0.2676 -0.0119  0.0395
 1715ACE    NCO 1715   5.531   5.514   2.910 -0.0181  0.2585  0.2524
 1716ACE    NCO 1716   3.408   5.022   0.065 -0.0030 -0.0715 -0.0144
 1717ACE    NCO 1717   4.861   2.255   0.489 -0.0113 -0.0702 -0.2412
 1718ACE    NCO 1718   2.761   5.189   4.624 -0.1735 -0.0256 -0.0254
 1719ACE    NCO 1719   3.269   1.184   2.916 -0.1358  0.1721  0.1386
 1720ACE    NCO 1720   3.024   5.027   1.342 -0.2650 -0.2545 -0.2489
 1721ACE    NCO 1721   1.327   3.834   2.323  0.0270 -0.0084  0.0707
 1722ACE    NCO 1722   0.103   5.354   5.097 -0.0282 -0.3121  0.3736
 1723ACE    NCO 1723   1.898   1.079   0.467 -0.3052  0.0728 -0.1451
 1724ACE    NCO 1724   2.296   3.238   2.955  0.0461  0.0453 -0.0382
 1725ACE    NCO 1725   2.162   2.618   4.685  0.0714  0.0922 -0.0220
 1726ACE    NCO 1726   3.398   0.109   5.152 -0.2262 -0.0705 -0.2139
 1727ACE    NCO 1727   5.006   2.756   0.665  0.2135 -0.2609  0.0579
 1728ACE    NCO 1728   3.845   3.853   0.493  0.1662 -0.0050  0.2157
 1729ACE    NCO 1729   3.400   4.825   5.692 -0.1183 -0.0763 -0.0673
 1730ACE    NCO 1730   0.375   4.964   4.611  0.2049  0.0072 -0.0311
 1731ACE    NCO 1731   1.482   4.331   1.565 -0.1384 -0.2518 -0.1545
 1732ACE    NCO 1732   6.017   0.023   0.869 -0.0101  0.0200 -0.3954
 1733ACE    NCO 1733   5.114   3.055   5.026  0.0111  0.2428  0.1273
 1734ACE    NCO 1734   2.961   4.795   3.161 -0.2839 -0.0084  0.1471
 1735ACE    NCO 1735   0.194   5.205   5.538  0.1713  0.0829  0.0129
 1736ACE    NCO 1736   5.730   1.857   5.497  0.2050 -0.2109 -0.2334
 1737ACE    NCO 1737   5.098   4.957   0.814 -0.3771 -0.0609  0.3276
 1738ACE    NCO 1738   0.285   5.875   0.958 -0.3996  0.2174  0.0709
 1739ACE    NCO 1739   3.494   5.336   3.020  0.0854 -0.2696  0.0801
 1740ACE    NCO 1740   6.085   5.086   1.716  0.1512 -0.0549 -0.0757
 1741ACE    NCO 1741   1.536   3.127   1.745  0.1031 -0.3685  0.1853
 1742ACE    NCO 1742   4.473   0.637   3.264 -0.3256  0.0700 -0.2078
 1743ACE    NCO 1743   1.712   1.329   1.387  0.1200 -0.0796  0.1477
 1744ACE    NCO 1744   2.722   3.189   1.316  0.1840  0.1669 -0.0419
 1745ACE    NCO 1745   5.290   2.974   6.009  0.2605  0.1187 -0.0114
 1746ACE    NCO 1746   1.986   0.947   5.248 -0.1054 -0.0585  0.0386
 1747ACE    NCO 1747   2.246   4.020   1.337  0.3207  0.0089 -0.0061
 1748ACE    NCO 1748   0.798   4.467   3.257  0.1462 -0.0246  0.4368
 1749ACE    NCO 1749   2.017   5.336   0.095  0.1250  0.2208  0.0496
 1750ACE    NCO 1750   2.710   3.223   5.048  0.2043 -0.3632 -0.3236
 1751ACE    NCO 1751   4.276   6.115   5.401 -0.1947 -0.2615 -0.0178
 1752ACE    NCO 1752   1.302   1.757   5.096  0.0916 -0.0258 -0.1720
 1753ACE    NCO 1753   2.477   0.984   3.971  0.2914  0.0251 -0.1282
 1754ACE    NCO 1754   3.864   4.930   3.063 -0.2602 -0.0417  0.0822
 1755ACE    NCO 1755   5.754   5.995   1.669  0.0054  0.1993 -0.1366
 1756ACE    NCO 1756   5.102   5.864   2.845 -0.1264 -0.1961  0.1113
 1757ACE    NCO 1757   2.578   4.894   1.163  0.1856  0.2057 -0.2010
 1758ACE    NCO 1758   5.118   4.707   5.888  0.0435  0.2896  0.0905
 1759ACE    NCO 1759   2.772   6.129   3.413  0.0494  0.1305 -0.1208
 1760ACE    NCO 1760   3.749   5.535   2.237 -0.1036  0.3569 -0.0768
 1761ACE    NCO 1761   3.543   5.993   4.254 -0.0049  0.2539  0.1026
 1762ACE    NCO 1762   2.250   3.083   4.897 -0.2559 -0.3152  0.0682
 1763ACE    NCO 1763   1.580   0.586   5.494 -0.1459  0.1367  0.2170
 1764ACE    NCO 1764   3.169   4.813   4.656  0.1816 -0.2379 -0.1142
 1765ACE    NCO 1765   4.344   5.206   0.413  0.1720  0.2421 -0.0141
 1766ACE    NCO 1766   3.272   1.071   1.489 -0.2206 -0.1557 -0.1948
 1767ACE    NCO 1767   0.784   0.281   3.679 -0.1191  0.2444 -0.1600
 1768ACE    NCO 1768   0.734   5.029   2.380  0.2523 -0.0132  0.0614
 1769ACE    NCO 1769   4.305   0.443   0.296 -0.0111  0.0117  0.1022
 1770ACE    NCO 1770   1.340   5.729   2.762 -0.1110  0.2393 -0.0268
 1771ACE    NCO 1771   4.802   0.737   1.018 -0.0332  0.1487  0.2659
 1772ACE    NCO 1772   1.536   5.256   1.334  0.1349  0.2409  0.0215
 1773ACE    NCO 1773   5.687   5.437   3.866  0.1219  0.3095 -0.0975
 1774ACE    NCO 1774   4.716   5.804   3.135 -0.2001  0.1979  0.3198
 1775ACE    NCO 1775   1.621   2.222   0.207  0.0567  0.1694  0.1761
 1776ACE    NCO 1776   5.210   4.950   4.131 -0.1221  0.0898  0.0210
 1777ACE    NCO 1777   5.386   3.048   2.298 -0.1898 -0.2111 -0.2237
 1778ACE    NCO 1778   3.949   5.863   0.921  0.0152  0.1874  0.0493
 1779ACE    NCO 1779   5.205   2.030   2.019  0.3582  0.0026 -0.0375
 1780ACE    NCO 1780   0.959   0.950   1.967  0.0275  0.1313 -0.1571
 1781ACE    NCO 1781   0.407   1.328   0.924  0.2057 -0.0876 -0.2788
 1782ACE    NCO 1782   0.406   0.731   1.254  0.0158  0.1015 -0.1856
 1783ACE    NCO 1783   4.837   5.305   3.994 -0.1654 -0.0631 -0.2959
 1784ACE    NCO 1784   1.016   4.182   2.290  0.1179 -0.1525 -0.1905
 1785ACE    NCO 1785   5.585   0.337   0.843 -0.1866  0.0624 -0.2106
 1786ACE    NCO 1786   2.521   2.744   0.171 -0.1127  0.3062 -0.1416
 1787ACE    NCO 1787   5.016   5.278   5.020  0.1338  0.0624  0.0520
 1788ACE    NCO 1788   0.900   4.007   5.551  0.0145  0.0436 -0.0094
 1789ACE    NCO 1789   4.722   4.315   2.302 -0.0914 -0.0211 -0.2105
 1790ACE    NCO 1790   0.342   2.644   2.125 -0.0134  0.3082 -0.2462
 1791ACE    NCO 1791   4.647   1.911   6.027  0.2326  0.1461 -0.0061
 1792ACE    NCO 1792   5.890   0.110   2.711 -0.0490  0.1252 -0.0202
 1793ACE    NCO 1793   1.258   5.433   4.557 -0.1054  0.1154  0.0002
 1794ACE    NCO 1794   3.008   5.479   5.240 -0.1756  0.0389 -0.0963
 1795ACE    NCO 1795   3.086   5.955   5.419 -0.2803  0.2395  0.1093
 1796ACE    NCO 1796   1.132   5.662   1.234  0.4829  0.0407 -0.0042
 1797ACE    NCO 1797   4.074   5.639   6.140 -0.0434  0.1767  0.1502
 1798ACE    NCO 1798   0.120   5.899   5.176 -0.1925  0.0372  0.0012
 1799ACE    NCO 1799   2.929   0.522   5.994  0.0367  0.1095  0.1484
 1800ACE    NCO 1800   1.657   0.172   1.657  0.0218 -0.0118 -0.0365
 1801ACE    NCO 1801   1.155   4.745   2.476 -0.0000  0.1142 -0.0262
 1802ACE    NCO 1802   4.599   4.396   0.414  0.0239  0.2750 -0.1298
 1803ACE    NCO 1803   0.211   4.281   0.596  0.4336  0.0514  0.2443
 1804ACE    NCO 1804   0.477   4.867   3.199 -0.2537  0.0076 -0.0070
 1805ACE    NCO 1805   3.136   3.443   2.905 -0.2199  0.0128  0.2217
 1806ACE    NCO 1806   4.695   2.246   5.699  0.0233  0.0491 -0.0102
 1807ACE    NCO 1807   5.574   4.101   2.579  0.0001 -0.2517  0.0780
 1808ACE    NCO 1808   1.639   1.422   2.805  0.0016  0.1930 -0.0494
 1809ACE    NCO 1809   3.143   1.739   2.101  0.0692 -0.2732 -0.1002
 1810ACE    NCO 1810   5.415   1.764   1.070 -0.2238 -0.2753  0.0342
 1811ACE    NCO 1811   0.854   2.139   2.630  0.1504  0.0843 -0.1363
 1812ACE    NCO 1812   4.777   0.478   5.263 -0.3221 -0.1640 -0.0657
 1813ACE    NCO 1813   3.416   1.361   5.886 -0.0158 -0.3292  0.1634
 1814ACE    NCO 1814   0.292   5.300   0.882 -0.3269  0.0117  0.1293
 1815ACE    NCO 1815   2.579   2.197   1.040 -0.1903  0.0782 -0.0404
 1816ACE    NCO 1816   4.978   4.233   5.753  0.0209  0.2859  0.2211
 1817ACE    NCO 1817   5.762   3.711   1.672 -0.0708 -0.0748  0.3267
 1818ACE    NCO 1818   1.556   5.031   4.620  0.0551  0.1844  0.0487
 1819ACE    NCO 1819   1.132   5.081   0.208  0.0557 -0.1505 -0.0357
 1820ACE    NCO 1820   1.962   0.316   3.672  0.0860  0.2863  0.1400
 1821ACE    NCO 1821   1.496   4.188   1.081  0.0124 -0.0217  0.0726
 1822ACE    NCO 1822   3.599   4.020   0.915 -0.2600  0.0318 -0.5765
 1823ACE    NCO 1823   0.995   0.064   3.250  0.0947  0.0462 -0.2121
 1824ACE    NCO 1824   2.381   1.629   4.566 -0.4754  0.0967 -0.0160
 1825ACE    NCO 1825   1.928   2.807   1.820 -0.6763 -0.2398 -0.0187
 1826ACE    NCO 1826   1.510   5.841   5.691  0.0518 -0.2279  0.4573
 1827ACE    NCO 1827   3.714   0.318   4.344 -0.3122  0.0100 -0.1713
 1828ACE    NCO 1828   1.753   1.568   5.770  0.2146  0.1792  0.2352
 1829ACE    NCO 1829   3.479   5.608   5.498  0.4117 -0.1334 -0.1505
 1830ACE    NCO 1830   3.688   3.940   5.656  0.1098 -0.1958  0.0095
 1831ACE    NCO 1831   0.701   5.865   3.483  0.0427 -0.0604  0.0399
 1832ACE    NCO 1832   3.495   2.896   5.324 -0.2772 -0.0894 -0.3228
 1833ACE    NCO 1833   0.941   3.188   4.353  0.0778 -0.2087 -0.0792
 1834ACE    NCO 1834   1.860   4.368   0.294 -0.0287  0.0039 -0.1487
 1835ACE    NCO 1835   5.988   0.624   2.928 -0.1785 -0.4880  0.0091
 1836ACE    NCO 1836   1.368   5.264   5.031 -0.0910 -0.2527  0.2202
 1837ACE    NCO 1837   1.158   1.799   0.822 -0.2154 -0.0792  0.1245
 1838ACE    NCO 1838   2.001   3.333   1.969  0.0419  0.1000  0.0286
 1839ACE    NCO 1839   4.578   3.408   2.579  0.1452  0.0709  0.3091
 1840ACE    NCO 1840   4.103   1.235   5.654 -0.2290 -0.0596  0.0387
 1841ACE    NCO 1841   4.929   6.055   6.091 -0.0960  0.1600 -0.2126
 1842ACE    NCO 1842   0.247   0.572   4.939  0.1153 -0.0159 -0.1136
 1843ACE    NCO 1843   5.487   3.733   4.388 -0.1375  0.2888  0.2562
 1844ACE    NCO 1844   4.775   0.056   5.630  0.4259 -0.1137  0.1488
 1845ACE    NCO 1845   5.284   4.501   3.077 -0.1105 -0.3627  0.4188
 1846ACE    NCO 1846   1.553   4.451   3.042  0.1066  0.2082 -0.0714
 1847ACE    NCO 1847   4.723   0.792   2.445  0.1526 -0.0333 -0.1804
 1848ACE    NCO 1848   0.194   3.927   4.322 -0.0710 -0.0907  0.0388
 1849ACE    NCO 1849   5.084   3.959   2.341 -0.0708  0.0504  0.2519
 1850ACE    NCO 1850   1.803   5.616   1.045 -0.0394 -0.1032  0.0808
 1851ACE    NCO 1851   5.137   3.429   4.669 -0.3355  0.4295  0.3196
 1852ACE    NCO 1852   2.436   4.135   5.165  0.1756 -0.0801  0.1117
 1853ACE    NCO 1853   4.323   5.172   3.796 -0.0577  0.0421 -0.1452
 1854ACE    NCO 1854   5.169   1.388   0.450 -0.0235 -0.1497 -0.2657
 1855ACE    NCO 1855   3.590   3.817   2.723  0.0867 -0.0229 -0.1109
 1856ACE    NCO 1856   1.591   0.683   3.613  0.1589  0.1808  0.2682
 1857ACE    NCO 1857   2.855   1.463   1.361 -0.0012  0.0169 -0.2898
 1858ACE    NCO 1858   3.659   1.786   0.842  0.1295 -0.2907  0.3588
 1859ACE    NCO 1859   0.573   5.881   4.840  0.0409 -0.2763  0.1015
 1860ACE    NCO 1860   0.345   1.188   5.668 -0.1356 -0.1090 -0.1052
 1861ACE    NCO 1861   0.666   0.621   4.714  0.1975 -0.0035  0.1409
 1862ACE    NCO 1862   4.194   1.755   5.808 -0.0397 -0.0940  0.0930
 1863ACE    NCO 1863   5.406   4.544   5.493  0.2796  0.1835  0.2835
 1864ACE    NCO 1864   3.100   2.852   1.392 -0.0423 -0.0548 -0.0736
 1865ACE    NCO 1865   4.677   1.487   2.148  0.0914 -0.1325 -0.1313
 1866ACE    NCO 1866   5.210   1.650   2.352  0.0562  0.1331  0.0554
 1867ACE    NCO 1867   1.978   1.528   0.635 -0.2374  0.0069  0.1881
 1868ACE    NCO 1868   5.885   1.714   6.013 -0.2182 -0.1787  0.2765
 1869ACE    NCO 1869   6.101   5.280   2.146 -0.0989 -0.0044  0.0694
 1870ACE    NCO 1870   0.543   2.589   3.095  0.0273  0.1593 -0.3235
 1871ACE    NCO 1871   0.413   2.295   5.858  0.0027 -0.1591  0.2535
 1872ACE    NCO 1872   0.366   2.996   1.744 -0.0797 -0.0014 -0.1167
 1873ACE    NCO 1873   1.643   3.241   5.579 -0.0963  0.0984  0.2408
 1874ACE    NCO 1874   5.405   0.715   1.768 -0.1210 -0.3789 -0.0737
 1875ACE    NCO 1875   4.725   3.188   3.075  0.1122  0.3416  0.0913
 1876ACE    NCO 1876   3.516   1.630   4.088 -0.1536  0.0286  0.2506
 1877ACE    NCO 1877   1.089   4.720   1.454 -0.2972 -0.1460 -0.2191
 1878ACE    NCO 1878   1.290   4.279   3.773 -0.1802 -0.0364  0.3446
 1879ACE    NCO 1879   3.977   2.625   1.643 -0.0446 -0.1978 -0.0860
 1880ACE    NCO 1880   2.189   2.673   5.217  0.0120 -0.0100 -0.2386
 1881ACE    NCO 1881   0.427   0.849   1.784  0.0067  0.3536  0.0519
 1882ACE    NCO 1882   3.252   4.967   2.401  0.0332 -0.1790 -0.3461
 1883ACE    NCO 1883   5.172   4.029   2.875 -0.0532 -0.0334  0.0548
 1884ACE    NCO 1884   4.830   5.412   4.567 -0.1197  0.0014  0.0210
 1885ACE    NCO 1885   2.184   5.285   1.109 -0.2444 -0.2017 -0.0799
 1886ACE    NCO 1886   3.221   4.816   1.853 -0.1526 -0.2125 -0.4114
 1887ACE    NCO 1887   5.921   4.325   2.276 -0.0280 -0.3265 -0.2876
 1888ACE    NCO 1888   0.252   1.905   6.127 -0.1560  0.0025  0.2225
 1889ACE    NCO 1889   0.876   5.797   4.461 -0.0620 -0.0758 -0.0095
 1890ACE    NCO 1890   0.499   0.059   4.478 -0.1910  0.0740 -0.1818
 1891ACE    NCO 1891   5.831   0.973   3.848  0.1026  0.0244  0.4235
 1892ACE    NCO 1892   4.032   0.320   1.592  0.0303  0.1030  0.0349
 1893ACE    NCO 1893   2.614   5.297   6.028  0.1827  0.5978 -0.0621
 1894ACE    NCO 1894   5.452   2.459   3.159 -0.1160  0.1609 -0.0399
 1895ACE    NCO 1895   5.446   0.168   4.003  0.3027  0.1307 -0.0202
 1896ACE    NCO 1896   1.056   3.840   5.034  0.0305  0.0287 -0.0258
 1897ACE    NCO 1897   4.844   5.835   1.771  0.1615 -0.0202 -0.0341
 1898ACE    NCO 1898   5.758   6.142   2.190  0.1657 -0.0974  0.0440
 1899ACE    NCO 1899   3.325   0.607   3.782  0.1081 -0.1239  0.4886
 1900ACE    NCO 1900   3.911   1.602   3.765  0.4311  0.1355 -0.0090
 1901ACE    NCO 1901   2.925   1.936   2.492  0.1208 -0.0098 -0.1004
 1902ACE    NCO 1902   1.317   5.823   3.256  0.1080 -0.1198 -0.0221
 1903ACE    NCO 1903   5.838   5.286   3.424  0.0915 -0.0399  0.2028
 1904ACE    NCO 1904   5.344   3.159   3.713 -0.0886 -0.0609 -0.0520
 1905ACE    NCO 1905   4.256   1.080   6.114  0.2337 -0.4929  0.0345
 1906ACE    NCO 1906   4.823   5.326   1.686 -0.1382  0.0936  0.2209
 1907ACE    NCO 1907   1.943   4.904   1.416  0.0168 -0.0454  0.1201
 1908ACE    NCO 1908   0.370   1.615   2.858 -0.2249  0.5471 -0.2057
 1909ACE    NCO 1909   2.023   5.895   4.500 -0.0036 -0.2011  0.1844
 1910ACE    NCO 1910   4.457   5.950   5.939 -0.3361  0.0496  0.0452
 1911ACE    NCO 1911   3.456   4.907   3.348  0.0448 -0.1010  0.0107
 1912ACE    NCO 1912   0.729   0.707   5.174  0.1329  0.0544 -0.1449
 1913ACE    NCO 1913   0.295   5.018   2.671 -0.4137  0.0186 -0.1512
 1914ACE    NCO 1914   0.423   4.488   3.603 -0.0383 -0.1352  0.0704
 1915ACE    NCO 1915   0.579   1.154   0.499 -0.0485  0.0626 -0.1397
 1916ACE    NCO 1916   1.789   1.803   1.563  0.0283 -0.2282 -0.1141
 1917ACE    NCO 1917   4.465   3.381   3.455 -0.0887  0.0762 -0.0284
 1918ACE    NCO 1918   4.155   4.197   3.538  0.1023 -0.0458  0.0316
 1919ACE    NCO 1919   5.444   0.305   4.535 -0.2300 -0.2079  0.3102
 1920ACE    NCO 1920   4.801   1.741   0.373 -0.0447  0.0401 -0.1394
 1921ACE    NCO 1921   4.180   4.721   0.385  0.2098 -0.0498  0.0810
 1922ACE    NCO 1922   2.064   6.059   2.245  0.2471 -0.1472  0.0789
 1923ACE    NCO 1923   1.973   6.044   5.920  0.3493 -0.1935 -0.0202
 1924ACE    NCO 1924   5.387   4.939   5.117  0.0863 -0.1270  0.2622
 1925ACE    NCO 1925   2.637   5.571   2.708 -0.2225  0.0364 -0.0370
 1926ACE    NCO 1926   4.441   3.796   1.193 -0.0175 -0.1911 -0.2082
 1927ACE    NCO 1927   5.918   0.453   4.691  0.0939  0.0394 -0.1172
 1928ACE    NCO 1928   4.012   2.376   4.957  0.0573 -0.0528 -0.3164
 1929ACE    NCO 1929   1.280   2.602   0.095 -0.1156  0.0991  0.4255
 1930ACE    NCO 1930   3.725   1.218   2.659 -0.2282 -0.1150  0.0440
 1931ACE    NCO 1931   2.619   4.603   3.951  0.4233 -0.0991  0.1553
 1932ACE    NCO 1932   1.479   6.015   0.967 -0.0371  0.0443 -0.2819
 1933ACE    NCO 1933   6.045   4.380   4.777  0.3620 -0.3684  0.0012
 1934ACE    NCO 1934   5.024   3.595   4.205  0.4710  0.0809 -0.0495
 1935ACE    NCO 1935   4.391   4.220   5.031 -0.1150 -0.3223 -0.1713
 1936ACE    NCO 1936   2.362   0.272   2.838  0.0276  0.1426 -0.1776
 1937ACE    NCO 1937   2.035   0.839   3.813 -0.1448 -0.0861 -0.0977
 1938ACE    NCO 1938   4.903   2.536   4.879 -0.2181  0.0212  0.0714
 1939ACE    NCO 1939   2.939   3.604   2.440 -0.0174 -0.3824  0.1191
 1940ACE    NCO 1940   5.637   1.267   4.848  0.1798 -0.0195  0.1437
 1941ACE    NCO 1941   3.788   2.297   1.006 -0.0711 -0.0254 -0.1199
 1942ACE    NCO 1942   0.692   4.366   0.735 -0.1550 -0.2077 -0.2865
 1943ACE    NCO 1943   1.437   3.845   1.436  0.1484  0.0137 -0.1291
 1944ACE    NCO 1944   2.132   1.677   3.537  0.0752  0.2302 -0.0042
 1945ACE    NCO 1945   2.269   4.175   1.850 -0.0159 -0.0293  0.1390
 1946ACE    NCO 1946   3.096   4.700   4.155  0.0074  0.0053  0.2928
 1947ACE    NCO 1947   2.245   0.107   5.112 -0.0061  0.0406  0.2332
 1948ACE    NCO 1948   1.490   1.021   0.720 -0.0763  0.2575 -0.0034
 1949ACE    NCO 1949   1.600   1.845   0.578 -0.1735 -0.1879  0.1016
 1950ACE    NCO 1950   4.994   1.037   5.949  0.0664  0.0360  0.0030
 1951ACE    NCO 1951   2.197   0.220   0.430 -0.3634 -0.2146 -0.1195
 1952ACE    NCO 1952   5.265   0.182   5.771  0.1266  0.0712  0.0394
 1953ACE    NCO 1953   0.885   0.723   3.866  0.1279  0.0788 -0.0252
 1954ACE    NCO 1954   4.074   3.316   3.750 -0.0034  0.1219 -0.2397
 1955ACE    NCO 1955   4.477   3.543   5.395 -0.1427 -0.2346  0.0262
 1956ACE    NCO 1956   0.224   1.677   4.188  0.0451  0.1638  0.0222
 1957ACE    NCO 1957   0.378   0.859   3.129  0.0304  0.0392 -0.3295
 1958ACE    NCO 1958   4.257   3.779   4.914  0.0180 -0.0490  0.4022
 1959ACE    NCO 1959   3.740   4.831   0.629 -0.0289 -0.0481 -0.0099
 1960ACE    NCO 1960   6.093   0.013   6.111 -0.0734  0.0140  0.1972
 1961ACE    NCO 1961   0.675   0.761   2.748 -0.1306 -0.4120 -0.0478
 1962ACE    NCO 1962   6.040   0.925   4.884 -0.0440 -0.1789 -0.0418
 1963ACE    NCO 1963   5.534   4.873   6.143 -0.0446  0.0253  0.2981
 1964ACE    NCO 1964   4.943   0.181   1.915  0.2102 -0.4115  0.0019
 1965ACE    NCO 1965   5.754   5.195   4.830 -0.3570 -0.2369  0.0111
 1966ACE    NCO 1966   0.946   3.909   4.091  0.0771 -0.0177 -0.3571
 1967ACE    NCO 1967   4.828   3.437   1.250  0.1367  0.0923  0.0176
 1968ACE    NCO 1968   3.840   2.786   1.160  0.0861 -0.0973 -0.2748
 1969ACE    NCO 1969   5.742   4.207   5.570 -0.0909  0.0602  0.1795
 1970ACE    NCO 1970   0.322   5.154   4.149  0.0253 -0.1473 -0.0229
 1971ACE    NCO 1971   0.193   0.609   2.569 -0.4714  0.2971 -0.0230
 1972ACE    NCO 1972   4.273   5.139   1.378 -0.0050 -0.2033 -0.1268
 1973ACE    NCO 1973   5.668   0.244   5.484  0.0804  0.2605 -0.2171
 1974ACE    NCO 1974   2.084   0.982   1.486  0.1848 -0.1272  0.1136
 1975ACE    NCO 1975   3.974   1.832   4.844 -0.1709  0.0556 -0.3347
 1976ACE    NCO 1976   4.741   5.197   1.029 -0.2795 -0.1280  0.1667
 1977ACE    NCO 1977   2.699   6.054   2.889  0.1282  0.1824 -0.2649
 1978ACE    NCO 1978   1.349   0.615   2.028  0.0340  0.2317  0.0400
 1979ACE    NCO 1979   0.007   3.353   1.703 -0.0042  0.1599 -0.2268
 1980ACE    NCO 1980   0.298   5.530   1.334 -0.1758 -0.0825  0.1449
 1981ACE    NCO 1981   5.046   0.385   2.516 -0.1611  0.2171  0.0572
 1982ACE    NCO 1982   3.571   1.277   0.720 -0.1592  0.0076  0.3418
 1983ACE    NCO 1983   5.487   5.049   5.651  0.1958  0.2217 -0.0945
 1984ACE    NCO 1984   5.702   4.092   5.026 -0.0490  0.3133  0.0984
 1985ACE    NCO 1985   2.605   0.467   2.113  0.1295  0.0214 -0.0301
 1986ACE    NCO 1986   1.479   0.200   3.459 -0.2758  0.0484  0.0744
 1987ACE    NCO 1987   2.918   2.398   0.240  0.0320 -0.3966 -0.0075
 1988ACE    NCO 1988   2.970   4.678   2.637 -0.2267  0.0760 -0.0194
 1989ACE    NCO 1989   1.656   4.960   3.153  0.1227  0.0019 -0.0375
 1990ACE    NCO 1990   2.101   4.642   5.591  0.1834  0.3217  0.1452
 1991ACE    NCO 1991   3.439   3.312   2.532  0.3461 -0.0869  0.0674
 1992ACE    NCO 1992   1.266   0.141   1.923  0.0055 -0.0641 -0.0718
 1993ACE    NCO 1993   2.925   2.523   0.775 -0.0173 -0.0719  0.1338
 1994ACE    NCO 1994   4.838   3.542   1.748  0.1323 -0.0864 -0.0035
 1995ACE    NCO 1995   5.314   2.232   5.421  0.2598 -0.1027 -0.1611
 1996ACE    NCO 1996   4.591   1.106   3.407  0.4986 -0.1209 -0.0430
 1997ACE    NCO 1997   1.285   3.759   6.054 -0.0825  0.0278 -0.1648
 1998ACE    NCO 1998   1.934   1.634   2.032 -0.0194  0.1192  0.2065
 1999ACE    NCO 1999   5.498   0.402   5.024 -0.0304 -0.0612 -0.2699
 2000ACE    NCO 2000   6.084   1.446   2.625  0.1934  0.0704  0.0020
 2001ACE    NCO 2001   3.856   5.092   3.569  0.2884  0.0047  0.2942
 2002ACE    NCO 2002   4.203   5.964   4.870  0.1867  0.0671  0.0363
 2003ACE    NCO 2003   4.963   4.897   5.378  0.0469 -0.0066 -0.2956
 2004ACE    NCO 2004   0.401   5.662   4.304 -0.1211  0.0244  0.1253
 2005ACE    NCO 2005   2.521   5.456   0.312  0.0639 -0.3598 -0.0393
 2006ACE    NCO 2006   2.830   3.275   4.178 -0.1411 -0.0156 -0.0087
 2007ACE    NCO 2007   1.469   1.401   4.172  0.0207  0.1503  0.0639
 2008ACE    NCO 2008   2.679   5.441   1.321  0.0931  0.0505  0.0931
 2009ACE    NCO 2009   0.729   1.246   2.866  0.1266 -0.0710  0.1453
 2010ACE    NCO 2010   4.175   2.528   2.680 -0.1182  0.2204 -0.0403
 2011ACE    NCO 2011   0.637   5.448   5.753 -0.3125  0.1516 -0.1445
 2012ACE    NCO 2012   5.276   1.792   5.291  0.2400  0.2592 -0.0291
 2013ACE    NCO 2013   1.562   0.204   5.854  0.0574  0.0404  0.0843
 2014ACE    NCO 2014   5.201   5.089   2.262  0.1683  0.1445  0.3419
 2015ACE    NCO 2015   5.995   2.030   4.178  0.5110  0.0360  0.0433
 2016ACE    NCO 2016   1.515   4.131   0.563  0.1317  0.2155 -0.0031
 2017ACE    NCO 2017   4.321   4.295   2.593 -0.0457 -0.1015  0.0865
 2018ACE    NCO 2018   2.309   5.038   4.393  0.1228 -0.0120 -0.0134
 2019ACE    NCO 2019   2.257   1.768   6.043 -0.2157 -0.0413  0.0121
 2020ACE    NCO 2020   3.503   3.736   5.054  0.0066  0.2729 -0.2975
 2021ACE    NCO 2021   1.863   0.068   2.649  0.0353  0.0848 -0.0099
 2022ACE    NCO 2022   3.263   0.836   5.710 -0.0663  0.0130  0.0621
 2023ACE    NCO 2023   1.209   1.415   3.100  0.0682 -0.1793  0.1131
 2024ACE    NCO 2024   2.421   1.290   1.205 -0.1216 -0.0336  0.0231
 2025ACE    NCO 2025   0.041   0.425   3.350  0.0974 -0.1500 -0.1164
 2026ACE    NCO 2026   2.372   1.206   0.672  0.1884  0.0097  0.0914
 2027ACE    NCO 2027   2.024   1.987   0.788 -0.3107  0.2656  0.3270
 2028ACE    NCO 2028   3.610   2.183   4.741 -0.0070  0.1376  0.2043
 2029ACE    NCO 2029   2.280   2.628   3.792 -0.1651 -0.2904  0.0194
 2030ACE    NCO 2030   0.940   0.708   0.016  0.0231 -0.1530 -0.0910
 2031ACE    NCO 2031   2.772   0.114   3.929  0.0235 -0.0212 -0.0009
 2032ACE    NCO 2032   3.595   2.629   4.377 -0.0457 -0.1286  0.3143
 2033ACE    NCO 2033   3.532   1.809   6.046  0.2443 -0.1993  0.1363
 2034ACE    NCO 2034   4.452   2.352   2.267  0.0391 -0.2212  0.0940
 2035ACE    NCO 2035   5.019   1.251   3.645 -0.2747 -0.1976  0.0583
 2036ACE    NCO 2036   3.629   5.032   2.085  0.0464  0.4762  0.0508
 2037ACE    NCO 2037   5.670   1.387   5.355  0.0677 -0.4686  0.0669
 2038ACE    NCO 2038   0.271   0.949   4.561 -0.1332  0.0535  0.0614
 2039ACE    NCO 2039   3.915   2.570   5.400  0.3770 -0.1503  0.0947
 2040ACE    NCO 2040   3.080   1.253   1.895 -0.3293  0.2968 -0.1638
 2041ACE    NCO 2041   3.401   0.253   0.399  0.1049  0.0809  0.0126
 2042ACE    NCO 2042   4.079   4.180   1.100  0.0509  0.0839 -0.0248
 2043ACE    NCO 2043   4.074   5.155   2.259 -0.1182  0.0672  0.1875
 2044ACE    NCO 2044   5.632   2.165   0.295 -0.0363  0.0073  0.0197
 2045ACE    NCO 2045   3.287   4.601   5.155  0.0438  0.1431 -0.0647
 2046ACE    NCO 2046   3.924   2.238   2.000  0.3267  0.1637 -0.0523
 2047ACE    NCO 2047   2.403   6.043   5.647 -0.0819 -0.2216  0.1336
 2048ACE    NCO 2048   2.363   3.046   3.493 -0.0870 -0.0083 -0.0859
 2049ACE    NCO 2049   0.083   2.825   2.600 -0.0524  0.1156  0.2158
 2050ACE    NCO 2050   4.920   4.374   5.292 -0.1851 -0.0483  0.1791
 2051ACE    NCO 2051   4.430   5.488   1.975 -0.0195  0.0522 -0.0858
 2052ACE    NCO 2052   2.928   0.232   1.648 -0.1832 -0.0405 -0.1890
 2053ACE    NCO 2053   2.800   5.804   0.024  0.0944 -0.1737  0.1543
 2054ACE    NCO 2054   5.415   4.142   0.743  0.0988  0.2853 -0.0232
 2055ACE    NCO 2055   0.809   4.675   5.186 -0.0417 -0.0741  0.0830
 2056ACE    NCO 2056   1.159   1.890   4.641  0.1888  0.1195  0.2248
 2057ACE    NCO 2057   5.790   2.984   5.729 -0.4646 -0.0444 -0.1424
 2058ACE    NCO 2058   5.694   1.797   4.978 -0.0420 -0.4179 -0.0469
 2059ACE    NCO 2059   5.322   5.624   2.331 -0.0641  0.0244 -0.1845
 2060ACE    NCO 2060   2.092   5.959   1.728  0.0760 -0.0355  0.0541
 2061ACE    NCO 2061   1.063   4.329   2.795 -0.3264  0.0066  0.1401
 2062ACE    NCO 2062   2.782   1.090   2.690  0.0500  0.2262 -0.2178
 2063ACE    NCO 2063   0.716   1.675   0.652  0.0601 -0.2391 -0.0238
 2064ACE    NCO 2064   2.758   1.949   0.089 -0.0733  0.0111 -0.3472
 2065ACE    NCO 2065   2.895   6.057   4.415  0.0821 -0.0809 -0.2208
 2066ACE    NCO 2066   0.100   1.017   0.209 -0.2637  0.1882 -0.0604
 2067ACE    NCO 2067   0.577   3.876   0.642 -0.0817 -0.2432  0.0546
 2068ACE    NCO 2068   5.513   2.890   0.804  0.0492 -0.1666 -0.0911
 2069ACE    NCO 2069   0.100   3.750   0.478  0.1764  0.1935 -0.0016
 2070ACE    NCO 2070   2.120   5.693   4.938  0.0158  0.4938  0.1973
 2071ACE    NCO 2071   4.782   2.924   1.105  0.3168  0.2733  0.0286
 2072ACE    NCO 2072   4.009   2.142   3.909 -0.3327 -0.1840  0.2229
 2073ACE    NCO 2073   2.817   3.252   3.670  0.0257  0.0535  0.0522
 2074ACE    NCO 2074   1.823   5.362   5.301  0.1985  0.0571  0.0759
 2075ACE    NCO 2075   4.064   1.814   0.554  0.0496  0.0044  0.1128
 2076ACE    NCO 2076   0.114   6.026   0.429 -0.2815  0.3163  0.1039
 2077ACE    NCO 2077   5.273   3.064   1.268 -0.0673 -0.1137 -0.2516
 2078ACE    NCO 2078   4.037   4.721   2.618  0.3193  0.0998 -0.4342
 2079ACE    NCO 2079   1.242   5.996   6.132  0.0302  0.0378  0.2725
 2080ACE    NCO 2080   2.828   1.441   5.205  0.0025 -0.1626  0.2707
 2081ACE    NCO 2081   3.088   5.318   3.295 -0.2539 -0.2070  0.1619
 2082ACE    NCO 2082   5.560   5.997   3.078 -0.0526  0.0095 -0.1026
 2083ACE    NCO 2083   0.697   3.095   5.713  0.0518 -0.1045 -0.1816
 2084ACE    NCO 2084   4.243   0.091   0.654  0.1095 -0.0539  0.2884
 2085ACE    NCO 2085   3.350   4.663   1.391  0.0838  0.2728 -0.1667
 2086ACE    NCO 2086   2.855   4.170   2.497  0.0207 -0.1409  0.0184
 2087ACE    NCO 2087   2.400   1.394   2.585  0.0581 -0.0090 -0.0416
 2088ACE    NCO 2088   1.150   1.952   2.256  0.3146  0.2435  0.2618
 2089ACE    NCO 2089   4.515   2.607   0.499  0.0702  0.3542  0.2711
 2090ACE    NCO 2090   5.681   2.866   1.867  0.2617  0.1806  0.1765
 2091ACE    NCO 2091   6.149   2.068   5.661  0.0612 -0.0099  0.2100
 2092ACE    NCO 2092   3.695   1.515   5.093  0.1519 -0.0295 -0.0805
 2093ACE    NCO 2093   1.732   0.670   4.574 -0.2059 -0.1054 -0.0031
 2094ACE    NCO 2094   1.038   4.416   4.242  0.0731 -0.4853  0.0316
 2095ACE    NCO 2095   5.123   0.804   4.998 -0.0887  0.1922 -0.1356
 2096ACE    NCO 2096   4.932   3.208   5.477 -0.2282  0.0521 -0.0895
 2097ACE    NCO 2097   1.407   3.320   4.572  0.0415  0.0962 -0.0786
 2098ACE    NCO 2098   1.089   1.308   0.662 -0.0488 -0.0739  0.0402
 2099ACE    NCO 2099   0.034   5.666   1.783 -0.1618  0.0860  0.0128
 2100ACE    NCO 2100   4.637   2.689   2.879 -0.1955 -0.3259  0.0560
 2101ACE    NCO 2101   5.279   2.528   0.162  0.3882 -0.1659 -0.1568
 2102ACE    NCO 2102   2.123   2.242   2.672  0.3336  0.0494 -0.1054
 2103ACE    NCO 2103   3.631   5.392   5.930  0.3995  0.0135 -0.1537
 2104ACE    NCO 2104   2.846   5.250   1.833 -0.0147  0.2108  0.0105
 2105ACE    NCO 2105   2.877   3.090   6.042 -0.2541  0.4701  0.1688
 2106ACE    NCO 2106   1.205   3.256   5.855  0.2777  0.0788  0.1451
 2107ACE    NCO 2107   5.243   5.056   4.609  0.0926  0.0851 -0.0517
 2108ACE    NCO 2108   5.238   4.472   2.546 -0.1721  0.0523 -0.1058
 2109ACE    NCO 2109   2.454   4.511   2.438  0.0882  0.0382 -0.1365
 2110ACE    NCO 2110   4.355   2.368   3.110  0.1964  0.0078  0.1197
 2111ACE    NCO 2111   2.668   3.713   0.502 -0.1864  0.0239  0.0933
 2112ACE    NCO 2112   0.913   2.100   5.096  0.0312 -0.0489  0.1704
 2113ACE    NCO 2113   5.100   1.549   1.852 -0.1021  0.0195 -0.0035
 2114ACE    NCO 2114   2.844   2.012   0.592 -0.2348 -0.3027 -0.0587
 2115ACE    NCO 2115   3.306   1.976   0.314  0.1677 -0.1551  0.2191
 2116ACE    NCO 2116   0.807   2.788   2.301 -0.0182  0.2022  0.0126
 2117ACE    NCO 2117   2.401   4.485   1.495  0.1177  0.0636 -0.4183
 2118ACE    NCO 2118   3.738   1.653   5.601  0.1181  0.2513 -0.0115
 2119ACE    NCO 2119   1.985   1.062   2.906 -0.3290  0.0876 -0.1868
 2120ACE    NCO 2120   5.006   1.469   5.595 -0.0495  0.0484  0.3219
 2121ACE    NCO 2121   5.367   4.931   2.772 -0.0506 -0.0151 -0.1136
 2122ACE    NCO 2122   3.939   5.460   3.265  0.3291  0.0074 -0.0297
 2123ACE    NCO 2123   0.852   5.290   0.595  0.0895  0.3455 -0.3695
 2124ACE    NCO 2124   0.015   4.180   5.239  0.1003 -0.1799 -0.2165
 2125ACE    NCO 2125   2.302   4.707   1.970 -0.2179 -0.0718  0.0490
 2126ACE    NCO 2126   5.300   3.585   1.399 -0.1033 -0.0272 -0.2008
 2127ACE    NCO 2127   3.845   4.686   3.936 -0.2779 -0.1916 -0.1727
 2128ACE    NCO 2128   2.055   4.489   5.116 -0.2024  0.1393 -0.1354
 2129ACE    NCO 2129   1.816   2.958   1.352 -0.0995 -0.2623 -0.0249
 2130ACE    NCO 2130   3.337   4.406   3.209  0.1482 -0.1510  0.1233
 2131ACE    NCO 2131   2.532   6.136   1.911  0.3503  0.1603 -0.0466
 2132ACE    NCO 2132   0.423   1.343   3.325 -0.1443  0.3502  0.3152
 2133ACE    NCO 2133   2.142   2.737   2.810  0.1649 -0.0987 -0.0911
 2134ACE    NCO 2134   2.193   3.822   4.522 -0.1859 -0.3326 -0.1180
 2135ACE    NCO 2135   0.450   3.028   4.227 -0.2195  0.0650  0.1571
 2136ACE    NCO 2136   1.312   1.880   3.273 -0.0271  0.0508 -0.0001
 2137ACE    NCO 2137   6.005   3.218   4.948  0.1716 -0.0959 -0.3329
 2138ACE    NCO 2138   4.967   3.860   6.130 -0.1577 -0.1134  0.1381
 2139ACE    NCO 2139   3.377   1.017   3.406  0.0121  0.3953  0.1042
 2140ACE    NCO 2140   4.561   5.214   2.545 -0.5879  0.0082  0.1682
 2141ACE    NCO 2141   4.690   2.450   0.937  0.1023  0.3789 -0.3271
 2142ACE    NCO 2142   3.411   2.606   0.981  0.0564  0.0106  0.0294
 2143ACE    NCO 2143   0.896   3.292   2.472  0.0668  0.4011 -0.0227
 2144ACE    NCO 2144   4.164   3.246   4.737 -0.1721  0.3312  0.1030
 2145ACE    NCO 2145   5.315   1.344   1.399 -0.0269  0.1746 -0.1343
 2146ACE    NCO 2146   1.071   4.033   0.830 -0.0499  0.0333 -0.2593
 2147ACE    NCO 2147   4.651   0.092   0.363  0.0134 -0.2558 -0.1363
 2148ACE    NCO 2148   5.565   3.193   5.245 -0.4362  0.1774  0.0764
 2149ACE    NCO 2149   1.327   0.898   0.248 -0.1795  0.3844  0.3131
 2150ACE    NCO 2150   3.416   4.833   2.890  0.0414  0.0255 -0.0395
 2151ACE    NCO 2151   0.425   0.642   3.600 -0.1555 -0.2224 -0.2732
 2152ACE    NCO 2152   3.476   4.358   4.209 -0.2369 -0.1750  0.2613
 2153ACE    NCO 2153   2.611   5.143   3.144  0.2037  0.1859  0.3771
 2154ACE    NCO 2154   0.864   2.448   6.092  0.5003  0.0508  0.0776
 2155ACE    NCO 2155   1.276   0.533   1.556 -0.2082  0.0117 -0.0851
 2156ACE    NCO 2156   5.884   0.054   5.097  0.2715  0.0336  0.0322
 2157ACE    NCO 2157   3.752   4.075   0.030 -0.0590 -0.0987  0.0489
 2158ACE    NCO 2158   2.068   1.433   5.404 -0.0830  0.2422 -0.0342
 2159ACE    NCO 2159   1.513   3.837   4.723 -0.2251 -0.3532 -0.2484
 2160ACE    NCO 2160   2.705   4.672   4.455  0.2363  0.0196  0.1488
 2161ACE    NCO 2161   0.048   3.159   5.943 -0.0937 -0.2289 -0.0687
 2162ACE    NCO 2162   3.855   2.294   3.460 -0.2856 -0.5625 -0.1615
 2163ACE    NCO 2163   3.453   1.974   1.283  0.1850 -0.2475 -0.2500
 2164ACE    NCO 2164   2.563   0.267   4.353 -0.0841  0.2099  0.4095
 2165ACE    NCO 2165   5.722   4.565   2.749 -0.0555  0.1613  0.2703
 2166ACE    NCO 2166   1.109   1.774   1.776 -0.1088 -0.2813  0.4555
 2167ACE    NCO 2167   0.388   5.181   0.345  0.0966 -0.2125 -0.2173
 2168ACE    NCO 2168   1.608   6.134   3.929  0.1645  0.3956 -0.0930
 2169ACE    NCO 2169   5.898   4.511   3.804 -0.2741 -0.1039 -0.0530
 2170ACE    NCO 2170   0.894   3.662   2.121 -0.0637  0.0339  0.0278
 2171ACE    NCO 2171   0.684   3.623   3.411 -0.2092 -0.1578 -0.0261
 2172ACE    NCO 2172   1.565   2.655   3.957 -0.2404 -0.0921 -0.0172
 2173ACE    NCO 2173   2.809   3.807   5.721 -0.0949 -0.0175 -0.0266
 2174ACE    NCO 2174   4.510   4.301   1.354 -0.2328 -0.1390  0.0391
 2175ACE    NCO 2175   4.410   3.654   3.007  0.2599  0.3356 -0.0228
 2176ACE    NCO 2176   3.706   6.037   6.094  0.1863 -0.1812 -0.0749
 2177ACE    NCO 2177   4.541   1.331   5.346 -0.0590  0.1517 -0.0181
 2178ACE    NCO 2178   5.169   1.151   4.634 -0.0701 -0.0641 -0.2353
 2179ACE    NCO 2179   4.656   1.486   3.040 -0.1126  0.3138 -0.1471
 2180ACE    NCO 2180   2.282   1.893   4.088  0.0204  0.3071  0.0630
 2181ACE    NCO 2181   3.001   0.060   2.101 -0.0765  0.0383 -0.1411
 2182ACE    NCO 2182   0.563   4.234   4.020  0.1800 -0.0365 -0.0391
 2183ACE    NCO 2183   1.518   3.931   2.803  0.2418  0.0701  0.1834
 2184ACE    NCO 2184   4.277   2.847   0.916  0.0894  0.0012 -0.1765
 2185ACE    NCO 2185   0.073   1.529   1.420 -0.1282 -0.0274  0.0165
 2186ACE    NCO 2186   3.648   3.566   5.984 -0.3374 -0.2278  0.1971
 2187ACE    NCO 2187   1.920   1.228   4.817 -0.0549 -0.2783  0.0852
 2188ACE    NCO 2188   0.786   0.864   5.687  0.0857  0.0656  0.1193
 2189ACE    NCO 2189   3.399   3.189   4.867  0.0025 -0.1709 -0.4482
 2190ACE    NCO 2190   3.793   3.576   4.697 -0.0965  0.1283 -0.1164
 2191ACE    NCO 2191   5.977   2.602   3.328 -0.0472 -0.0957 -0.1528
 2192ACE    NCO 2192   3.800   0.820   4.496 -0.1365  0.1112  0.1242
 2193ACE    NCO 2193   4.666   3.105   0.582  0.1588 -0.0006 -0.0859
 2194ACE    NCO 2194   5.326   5.702   0.005  0.0434  0.1318 -0.1711
 2195ACE    NCO 2195   4.186   5.555   5.239  0.0661  0.1047 -0.1142
 2196ACE    NCO 2196   2.327   3.828   0.861  0.3340 -0.0199  0.2127
 2197ACE    NCO 2197   1.880   2.961   3.227  0.2421 -0.1308  0.0345
   6.15783   6.15783   6.15783
