Great Red Owns Many ACres of Sand 
   38
    1TPG    C13    1  -0.636  -0.062   0.004
    1TPG   H13A    2  -0.715   0.005   0.044
    1TPG   H13B    3  -0.647  -0.068  -0.106
    1TPG   H13C    4  -0.652  -0.164   0.047
    1TPG    C12    5  -0.498  -0.008   0.043
    1TPG   H12A    6  -0.485   0.094   0.001
    1TPG   H12B    7  -0.489  -0.002   0.154
    1TPG    C11    8  -0.388  -0.099  -0.011
    1TPG    O12    9  -0.407  -0.201  -0.075
    1TPG    O11   10  -0.269  -0.050   0.024
    1TPG     C1   11  -0.158  -0.128  -0.022
    1TPG    H1A   12  -0.159  -0.137  -0.133
    1TPG    H1B   13  -0.161  -0.229   0.023
    1TPG     C2   14  -0.026  -0.060   0.021
    1TPG    H2A   15  -0.028  -0.049   0.132
    1TPG    O21   16  -0.018   0.069  -0.043
    1TPG    C21   17   0.048   0.165   0.021
    1TPG    O22   18   0.100   0.155   0.130
    1TPG    C22   19   0.049   0.291  -0.066
    1TPG   H22A   20   0.096   0.268  -0.164
    1TPG   H22B   21  -0.056   0.324  -0.083
    1TPG    C23   22   0.128   0.402   0.004
    1TPG   H23A   23   0.129   0.493  -0.059
    1TPG   H23B   24   0.082   0.428   0.102
    1TPG   H23C   25   0.233   0.371   0.022
    1TPG     C3   26   0.097  -0.146  -0.019
    1TPG    H3A   27   0.097  -0.158  -0.130
    1TPG    H3B   28   0.085  -0.247   0.028
    1TPG    O31   29   0.219  -0.086   0.026
    1TPG    C31   30   0.329  -0.152  -0.010
    1TPG    O32   31   0.333  -0.255  -0.074
    1TPG    C32   32   0.451  -0.076   0.042
    1TPG   H32A   33   0.451   0.027   0.000
    1TPG   H32B   34   0.445  -0.069   0.153
    1TPG    C33   35   0.580  -0.148   0.001
    1TPG   H33A   36   0.668  -0.093   0.040
    1TPG   H33B   37   0.582  -0.251   0.044
    1TPG   H33C   38   0.588  -0.155  -0.109
   0.00000   0.00000   0.00000
