;;
;; Generated by CHARMM-GUI (http://www.charmm-gui.org) v1.7
;;
;; psf2itp_mol.py
;;
;; Correspondance:
;; jul316@lehigh.edu or wonpil@lehigh.edu
;;
;; GROMACS topology file for TPG
;;


[ moleculetype ]
; name	nrexcl
TPG	     3

[ atoms ]
; nr	type	resnr	residu	atom	cgnr	charge	mass
     1       CTL3      1      TPG    C13      1     -0.270    12.0110   ; qtot -0.270
     2       HAL3      1      TPG   H13A      2      0.090     1.0080   ; qtot -0.180
     3       HAL3      1      TPG   H13B      3      0.090     1.0080   ; qtot -0.090
     4       HAL3      1      TPG   H13C      4      0.090     1.0080   ; qtot -0.000
     5       CTL2      1      TPG    C12      5     -0.220    12.0110   ; qtot -0.220
     6       HAL2      1      TPG   H12A      6      0.090     1.0080   ; qtot -0.130
     7       HAL2      1      TPG   H12B      7      0.090     1.0080   ; qtot -0.040
     8         CL      1      TPG    C11      8      0.900    12.0110   ; qtot  0.860
     9        OBL      1      TPG    O12      9     -0.630    15.9994   ; qtot  0.230
    10        OSL      1      TPG    O11     10     -0.490    15.9994   ; qtot -0.260
    11       CTL2      1      TPG     C1     11      0.080    12.0110   ; qtot -0.180
    12       HAL2      1      TPG    H1A     12      0.090     1.0080   ; qtot -0.090
    13       HAL2      1      TPG    H1B     13      0.090     1.0080   ; qtot  0.000
    14       CTL1      1      TPG     C2     14      0.170    12.0110   ; qtot  0.170
    15       HAL1      1      TPG    H2A     15      0.090     1.0080   ; qtot  0.260
    16        OSL      1      TPG    O21     16     -0.490    15.9994   ; qtot -0.230
    17         CL      1      TPG    C21     17      0.900    12.0110   ; qtot  0.670
    18        OBL      1      TPG    O22     18     -0.630    15.9994   ; qtot  0.040
    19       CTL2      1      TPG    C22     19     -0.220    12.0110   ; qtot -0.180
    20       HAL2      1      TPG   H22A     20      0.090     1.0080   ; qtot -0.090
    21       HAL2      1      TPG   H22B     21      0.090     1.0080   ; qtot  0.000
    22       CTL3      1      TPG    C23     22     -0.270    12.0110   ; qtot -0.270
    23       HAL3      1      TPG   H23A     23      0.090     1.0080   ; qtot -0.180
    24       HAL3      1      TPG   H23B     24      0.090     1.0080   ; qtot -0.090
    25       HAL3      1      TPG   H23C     25      0.090     1.0080   ; qtot -0.000
    26       CTL2      1      TPG     C3     26      0.080    12.0110   ; qtot  0.080
    27       HAL2      1      TPG    H3A     27      0.090     1.0080   ; qtot  0.170
    28       HAL2      1      TPG    H3B     28      0.090     1.0080   ; qtot  0.260
    29        OSL      1      TPG    O31     29     -0.490    15.9994   ; qtot -0.230
    30         CL      1      TPG    C31     30      0.900    12.0110   ; qtot  0.670
    31        OBL      1      TPG    O32     31     -0.630    15.9994   ; qtot  0.040
    32       CTL2      1      TPG    C32     32     -0.220    12.0110   ; qtot -0.180
    33       HAL2      1      TPG   H32A     33      0.090     1.0080   ; qtot -0.090
    34       HAL2      1      TPG   H32B     34      0.090     1.0080   ; qtot  0.000
    35       CTL3      1      TPG    C33     35     -0.270    12.0110   ; qtot -0.270
    36       HAL3      1      TPG   H33A     36      0.090     1.0080   ; qtot -0.180
    37       HAL3      1      TPG   H33B     37      0.090     1.0080   ; qtot -0.090
    38       HAL3      1      TPG   H33C     38      0.090     1.0080   ; qtot -0.000

[ bonds ]
; ai	aj	funct	b0	Kb
    1     2     1
    1     3     1
    1     4     1
    1     5     1
    5     6     1
    5     7     1
    5     8     1
    8     9     1
    8    10     1
   10    11     1
   11    12     1
   11    13     1
   11    14     1
   14    15     1
   14    16     1
   14    26     1
   16    17     1
   17    18     1
   17    19     1
   19    20     1
   19    21     1
   19    22     1
   22    23     1
   22    24     1
   22    25     1
   26    27     1
   26    28     1
   26    29     1
   29    30     1
   30    31     1
   30    32     1
   32    33     1
   32    34     1
   32    35     1
   35    36     1
   35    37     1
   35    38     1

[ pairs ]
; ai	aj	funct	c6	c12
    1     9     1 
    1    10     1 
    2     6     1 
    2     7     1 
    2     8     1 
    3     6     1 
    3     7     1 
    3     8     1 
    4     6     1 
    4     7     1 
    4     8     1 
    5    11     1 
    6     9     1 
    6    10     1 
    7     9     1 
    7    10     1 
    8    12     1 
    8    13     1 
    8    14     1 
    9    11     1 
   10    15     1 
   10    16     1 
   10    26     1 
   11    17     1 
   11    27     1 
   11    28     1 
   11    29     1 
   12    15     1 
   12    16     1 
   12    26     1 
   13    15     1 
   13    16     1 
   13    26     1 
   14    18     1 
   14    19     1 
   14    30     1 
   15    17     1 
   15    27     1 
   15    28     1 
   15    29     1 
   16    20     1 
   16    21     1 
   16    22     1 
   16    27     1 
   16    28     1 
   16    29     1 
   17    23     1 
   17    24     1 
   17    25     1 
   17    26     1 
   18    20     1 
   18    21     1 
   18    22     1 
   20    23     1 
   20    24     1 
   20    25     1 
   21    23     1 
   21    24     1 
   21    25     1 
   26    31     1 
   26    32     1 
   27    30     1 
   28    30     1 
   29    33     1 
   29    34     1 
   29    35     1 
   30    36     1 
   30    37     1 
   30    38     1 
   31    33     1 
   31    34     1 
   31    35     1 
   33    36     1 
   33    37     1 
   33    38     1 
   34    36     1 
   34    37     1 
   34    38     1 

[ angles ] 
; ai	aj	ak	funct	th0	cth	S0	Kub
    2     1     3     5
    2     1     4     5
    2     1     5     5
    3     1     4     5
    3     1     5     5
    4     1     5     5
    1     5     6     5
    1     5     7     5
    1     5     8     5
    6     5     7     5
    6     5     8     5
    7     5     8     5
    5     8     9     5
    5     8    10     5
    9     8    10     5
    8    10    11     5
   10    11    12     5
   10    11    13     5
   10    11    14     5
   12    11    13     5
   12    11    14     5
   13    11    14     5
   11    14    15     5
   11    14    16     5
   11    14    26     5
   15    14    16     5
   15    14    26     5
   16    14    26     5
   14    16    17     5
   16    17    18     5
   16    17    19     5
   18    17    19     5
   17    19    20     5
   17    19    21     5
   17    19    22     5
   20    19    21     5
   20    19    22     5
   21    19    22     5
   19    22    23     5
   19    22    24     5
   19    22    25     5
   23    22    24     5
   23    22    25     5
   24    22    25     5
   14    26    27     5
   14    26    28     5
   14    26    29     5
   27    26    28     5
   27    26    29     5
   28    26    29     5
   26    29    30     5
   29    30    31     5
   29    30    32     5
   31    30    32     5
   30    32    33     5
   30    32    34     5
   30    32    35     5
   33    32    34     5
   33    32    35     5
   34    32    35     5
   32    35    36     5
   32    35    37     5
   32    35    38     5
   36    35    37     5
   36    35    38     5
   37    35    38     5

[ dihedrals ]
; ai	aj	ak	al	funct	phi0	cp	mult
    2     1     5     6     9
    2     1     5     7     9
    2     1     5     8     9
    3     1     5     6     9
    3     1     5     7     9
    3     1     5     8     9
    4     1     5     6     9
    4     1     5     7     9
    4     1     5     8     9
    1     5     8     9     9
    1     5     8    10     9
    6     5     8     9     9
    6     5     8    10     9
    7     5     8     9     9
    7     5     8    10     9
    5     8    10    11     9
    9     8    10    11     9
    8    10    11    12     9
    8    10    11    13     9
    8    10    11    14     9
   10    11    14    15     9
   10    11    14    16     9
   10    11    14    26     9
   12    11    14    15     9
   12    11    14    16     9
   12    11    14    26     9
   13    11    14    15     9
   13    11    14    16     9
   13    11    14    26     9
   11    14    16    17     9
   15    14    16    17     9
   11    14    26    27     9
   11    14    26    28     9
   11    14    26    29     9
   15    14    26    27     9
   15    14    26    28     9
   15    14    26    29     9
   16    14    26    27     9
   16    14    26    28     9
   16    14    26    29     9
   17    16    14    26     9
   14    16    17    18     9
   14    16    17    19     9
   16    17    19    20     9
   16    17    19    21     9
   16    17    19    22     9
   18    17    19    20     9
   18    17    19    21     9
   18    17    19    22     9
   17    19    22    23     9
   17    19    22    24     9
   17    19    22    25     9
   20    19    22    23     9
   20    19    22    24     9
   20    19    22    25     9
   21    19    22    23     9
   21    19    22    24     9
   21    19    22    25     9
   14    26    29    30     9
   27    26    29    30     9
   28    26    29    30     9
   26    29    30    31     9
   26    29    30    32     9
   29    30    32    33     9
   29    30    32    34     9
   29    30    32    35     9
   31    30    32    33     9
   31    30    32    34     9
   31    30    32    35     9
   30    32    35    36     9
   30    32    35    37     9
   30    32    35    38     9
   33    32    35    36     9
   33    32    35    37     9
   33    32    35    38     9
   34    32    35    36     9
   34    32    35    37     9
   34    32    35    38     9

[ dihedrals ]
; ai	aj	ak	al	funct	q0	cq
    8    10     5     9     2
   17    16    19    18     2
   30    29    32    31     2
