Benzene box
 1911
    1BENZ    R1    1   0.375   1.971   0.725 -0.0038 -0.3055  0.2190
    1BENZ    R2    2   0.638   2.016   0.766  0.0159 -0.2027 -0.0097
    1BENZ    R3    3   0.464   2.043   0.970  0.1532 -0.0415  0.0888
    2BENZ    R1    4   0.446   0.593   1.368 -0.1545  0.0255  0.0244
    2BENZ    R2    5   0.376   0.705   1.133 -0.2524  0.2667  0.1645
    2BENZ    R3    6   0.526   0.844   1.309  0.2674 -0.0986  0.0335
    3BENZ    R1    7   1.631   4.731   0.320 -0.2336  0.2465  0.2836
    3BENZ    R2    8   1.557   4.882   0.109  0.0249  0.2280  0.1754
    3BENZ    R3    9   1.377   4.822   0.302 -0.2137  0.2508 -0.0338
    4BENZ    R1   10   0.888   4.229   3.602 -0.2484  0.3760 -0.2034
    4BENZ    R2   11   0.939   4.363   3.831 -0.1676  0.2742 -0.1605
    4BENZ    R3   12   1.135   4.327   3.649 -0.1047 -0.0404 -0.0365
    5BENZ    R1   13   2.640   1.457   4.722  0.0156 -0.0061 -0.0817
    5BENZ    R2   14   2.732   1.692   4.627  0.1774  0.0731  0.2548
    5BENZ    R3   15   2.565   1.689   4.839  0.1702 -0.1157  0.2477
    6BENZ    R1   16   1.515   3.558   2.784 -0.0187 -0.3330 -0.0617
    6BENZ    R2   17   1.625   3.625   3.021  0.2364  0.2816 -0.3317
    6BENZ    R3   18   1.780   3.527   2.824  0.0722  0.0208 -0.3357
    7BENZ    R1   19   1.194   0.502   2.822  0.1925 -0.0632  0.0476
    7BENZ    R2   20   1.325   0.461   3.054 -0.1345 -0.1716  0.2194
    7BENZ    R3   21   1.061   0.406   3.037 -0.1862  0.1383 -0.0867
    8BENZ    R1   22   0.768   0.339   3.373 -0.3275 -0.1541  0.1707
    8BENZ    R2   23   0.661   0.582   3.324 -0.2697 -0.0863  0.3709
    8BENZ    R3   24   0.541   0.414   3.499 -0.5147 -0.3547 -0.0380
    9BENZ    R1   25   3.356   4.670   3.763  0.1134 -0.0224  0.2059
    9BENZ    R2   26   3.622   4.718   3.751  0.1549 -0.2756  0.0279
    9BENZ    R3   27   3.480   4.795   3.968  0.3391  0.0145  0.0509
   10BENZ    R1   28   3.006   2.230   1.491 -0.1032  0.3415 -0.1708
   10BENZ    R2   29   2.907   2.178   1.245  0.1180  0.1168 -0.2164
   10BENZ    R3   30   3.000   1.977   1.398  0.0328  0.2620  0.0318
   11BENZ    R1   31   2.415   1.605   2.219  0.1843 -0.1153 -0.2737
   11BENZ    R2   32   2.658   1.651   2.329  0.0961  0.1164 -0.1681
   11BENZ    R3   33   2.526   1.852   2.206 -0.1554  0.0603  0.0031
   12BENZ    R1   34   0.023   0.939   2.050 -0.0339 -0.0715  0.1854
   12BENZ    R2   35  -0.068   0.936   1.796 -0.0096  0.1481  0.1726
   12BENZ    R3   36  -0.230   1.018   1.996 -0.0416 -0.0614  0.2350
   13BENZ    R1   37   2.715   4.349   2.444 -0.0413  0.1706  0.0972
   13BENZ    R2   38   2.641   4.484   2.666  0.0185  0.0481  0.1927
   13BENZ    R3   39   2.456   4.348   2.523 -0.0510  0.2705  0.0675
   14BENZ    R1   40   3.961   3.654   1.617  0.1492 -0.3505  0.2010
   14BENZ    R2   41   3.852   3.633   1.863  0.0561  0.2832  0.2308
   14BENZ    R3   42   3.701   3.587   1.644 -0.0462  0.3564  0.2850
   15BENZ    R1   43   1.474   4.157   0.439 -0.0307  0.1274 -0.1039
   15BENZ    R2   44   1.410   4.414   0.492 -0.3348 -0.0332  0.3709
   15BENZ    R3   45   1.665   4.329   0.522 -0.1998  0.2392  0.0606
   16BENZ    R1   46   4.476   0.415   2.439 -0.2139 -0.1794 -0.0436
   16BENZ    R2   47   4.339   0.322   2.653  0.3040 -0.0346  0.3738
   16BENZ    R3   48   4.529   0.169   2.537  0.0439 -0.1021  0.0165
   17BENZ    R1   49   3.540   3.699   3.395 -0.1711  0.1189  0.1560
   17BENZ    R2   50   3.326   3.766   3.546 -0.1876  0.0175  0.1787
   17BENZ    R3   51   3.329   3.531   3.413 -0.0478 -0.0286  0.2604
   18BENZ    R1   52   2.363   3.970   0.209 -0.2027  0.0841 -0.2720
   18BENZ    R2   53   2.372   3.905  -0.053 -0.0590 -0.1347 -0.2157
   18BENZ    R3   54   2.233   3.751   0.120 -0.3080  0.1117 -0.1884
   19BENZ    R1   55   4.656   2.484   4.770 -0.0228  0.1208 -0.2649
   19BENZ    R2   56   4.562   2.446   4.519  0.0038 -0.1743 -0.2331
   19BENZ    R3   57   4.557   2.243   4.698  0.0284  0.0199 -0.0071
   20BENZ    R1   58   3.443   1.534   2.177  0.0866  0.1313 -0.0735
   20BENZ    R2   59   3.620   1.733   2.217  0.3797 -0.1048 -0.1571
   20BENZ    R3   60   3.602   1.616   1.975 -0.3468  0.3350 -0.3466
   21BENZ    R1   61   4.613   3.536   4.528 -0.2700 -0.1028 -0.1139
   21BENZ    R2   62   4.540   3.503   4.786 -0.2259 -0.1912 -0.1124
   21BENZ    R3   63   4.510   3.743   4.667  0.1953 -0.0132  0.1188
   22BENZ    R1   64   1.074   3.962   2.669  0.2679 -0.1191  0.0182
   22BENZ    R2   65   0.875   3.933   2.490  0.1082  0.0770  0.1605
   22BENZ    R3   66   1.101   3.788   2.465 -0.0482 -0.1432 -0.0066
   23BENZ    R1   67   3.135   1.397   1.055  0.1061  0.2057  0.0897
   23BENZ    R2   68   2.885   1.295   1.051 -0.0366  0.5464 -0.2005
   23BENZ    R3   69   2.994   1.375   1.284 -0.1836  0.3681 -0.0674
   24BENZ    R1   70   0.078   4.356   1.203 -0.0098 -0.0421  0.2706
   24BENZ    R2   71   0.160   4.613   1.210  0.0918 -0.0546 -0.1785
   24BENZ    R3   72   0.121   4.478   1.440  0.3943  0.2475  0.0613
   25BENZ    R1   73   3.133   1.676   3.243 -0.2112  0.1218 -0.0643
   25BENZ    R2   74   2.881   1.665   3.339 -0.1367 -0.0071  0.1212
   25BENZ    R3   75   3.047   1.453   3.368  0.0008  0.0851  0.0207
   26BENZ    R1   76   3.708   3.551   4.770 -0.0707  0.0254 -0.0043
   26BENZ    R2   77   3.601   3.330   4.658 -0.1857  0.0419  0.0714
   26BENZ    R3   78   3.622   3.557   4.514 -0.2460  0.0364  0.0537
   27BENZ    R1   79   1.931   2.291   3.363 -0.1018 -0.2220  0.2263
   27BENZ    R2   80   2.145   2.129   3.331  0.0137 -0.0274 -0.0262
   27BENZ    R3   81   1.931   2.044   3.472  0.3291 -0.1570  0.3973
   28BENZ    R1   82   0.027   4.575   4.685  0.2699  0.0240  0.0256
   28BENZ    R2   83   0.096   4.331   4.592  0.0106 -0.0022 -0.1097
   28BENZ    R3   84   0.036   4.365   4.853 -0.1343 -0.1243 -0.1262
   29BENZ    R1   85   4.405   1.488   4.347 -0.0202 -0.2508  0.2110
   29BENZ    R2   86   4.593   1.300   4.303 -0.0361 -0.1611 -0.3022
   29BENZ    R3   87   4.661   1.536   4.417  0.0481 -0.3352  0.0225
   30BENZ    R1   88   2.754   4.112   4.751  0.3745 -0.0653 -0.1601
   30BENZ    R2   89   2.853   4.356   4.691 -0.1310  0.1848 -0.0291
   30BENZ    R3   90   2.668   4.241   4.530  0.1869 -0.1741 -0.1528
   31BENZ    R1   91   0.550   3.722   1.843 -0.2085 -0.1728 -0.0259
   31BENZ    R2   92   0.587   3.749   2.109 -0.2781 -0.2872 -0.0037
   31BENZ    R3   93   0.345   3.678   2.013 -0.2855 -0.1274 -0.1065
   32BENZ    R1   94   3.930   1.126   2.500  0.2426 -0.0249 -0.0594
   32BENZ    R2   95   3.886   1.386   2.446 -0.0938 -0.0726 -0.0321
   32BENZ    R3   96   3.677   1.219   2.485  0.1181 -0.3492 -0.0567
   33BENZ    R1   97   2.694   3.507   3.740 -0.3687  0.0623 -0.2967
   33BENZ    R2   98   2.948   3.440   3.679 -0.2532  0.0580  0.1486
   33BENZ    R3   99   2.900   3.621   3.874 -0.5946  0.0910  0.0403
   34BENZ    R1  100   4.423   3.222   1.043 -0.0474 -0.0573  0.2171
   34BENZ    R2  101   4.286   3.334   1.246  0.0064  0.2684  0.0794
   34BENZ    R3  102   4.219   3.390   0.990  0.1227  0.0897  0.0078
   35BENZ    R1  103   0.106   3.193   4.400  0.0312  0.0880  0.2426
   35BENZ    R2  104   0.209   3.344   4.202 -0.1475 -0.0173  0.0654
   35BENZ    R3  105   0.367   3.261   4.405  0.0854 -0.0704 -0.1328
   36BENZ    R1  106   0.209   0.210   2.098  0.3470  0.5404  0.2770
   36BENZ    R2  107   0.011   0.120   2.258  0.0828  0.3713 -0.1295
   36BENZ    R3  108   0.268   0.058   2.313 -0.0413 -0.0974 -0.0391
   37BENZ    R1  109   2.072   3.606   4.171  0.2863 -0.0938 -0.2199
   37BENZ    R2  110   2.055   3.389   4.330  0.3140 -0.0457 -0.1504
   37BENZ    R3  111   1.893   3.413   4.116 -0.2762  0.2430  0.2989
   38BENZ    R1  112   2.360   0.471   1.677  0.0162 -0.1487 -0.1859
   38BENZ    R2  113   2.611   0.562   1.720 -0.1387  0.1513  0.1370
   38BENZ    R3  114   2.565   0.376   1.529  0.3592 -0.0741  0.2209
   39BENZ    R1  115   4.195   2.541   2.273 -0.1117 -0.1067  0.2730
   39BENZ    R2  116   3.953   2.659   2.271  0.0673  0.2957 -0.3295
   39BENZ    R3  117   4.009   2.461   2.095  0.0568 -0.0931  0.0866
   40BENZ    R1  118   1.825   4.610   0.834 -0.1693 -0.5330  0.2565
   40BENZ    R2  119   2.025   4.434   0.879  0.1223 -0.2167  0.2391
   40BENZ    R3  120   2.052   4.692   0.955 -0.2205 -0.1330  0.0974
   41BENZ    R1  121   2.767   2.436   1.875  0.2224  0.0884 -0.5634
   41BENZ    R2  122   2.975   2.326   2.007  0.2360  0.1514 -0.5322
   41BENZ    R3  123   2.749   2.183   1.968  0.0713  0.2687 -0.0712
   42BENZ    R1  124   1.798   2.828   4.148 -0.3102 -0.2659 -0.2833
   42BENZ    R2  125   2.026   2.703   4.077 -0.2078 -0.2887  0.0650
   42BENZ    R3  126   2.008   2.972   4.060 -0.2960 -0.3126 -0.3263
   43BENZ    R1  127   2.284   4.507   3.013 -0.2389  0.1862  0.2325
   43BENZ    R2  128   2.033   4.426   3.067 -0.3264  0.2028 -0.1225
   43BENZ    R3  129   2.085   4.688   3.029 -0.1784  0.2458  0.3195
   44BENZ    R1  130   0.022   2.284   2.139 -0.2588  0.1511 -0.0368
   44BENZ    R2  131  -0.233   2.218   2.202 -0.2101  0.1503  0.1650
   44BENZ    R3  132  -0.027   2.072   2.298 -0.1308  0.1724  0.0319
   45BENZ    R1  133   2.836   0.025   2.550 -0.2055  0.0178  0.1281
   45BENZ    R2  134   2.816   0.290   2.502  0.3192 -0.0033 -0.3015
   45BENZ    R3  135   2.901   0.202   2.743 -0.0208  0.2042 -0.0982
   46BENZ    R1  136   2.101   4.883   2.420  0.2320 -0.0466 -0.2604
   46BENZ    R2  137   2.144   5.008   2.656  0.0241 -0.1138 -0.1841
   46BENZ    R3  138   2.333   4.845   2.552 -0.0079 -0.3397  0.0991
   47BENZ    R1  139   3.135   4.831   1.611  0.0524  0.4647  0.2759
   47BENZ    R2  140   2.968   4.649   1.721  0.3480 -0.0189 -0.0395
   47BENZ    R3  141   2.872   4.887   1.637 -0.1712 -0.2582 -0.1602
   48BENZ    R1  142   4.521   3.459   4.120  0.1284 -0.2424  0.1146
   48BENZ    R2  143   4.327   3.297   4.215 -0.0333 -0.0203  0.1717
   48BENZ    R3  144   4.569   3.196   4.153 -0.0391 -0.2337  0.4780
   49BENZ    R1  145   0.876   1.080   2.025 -0.1774  0.2658  0.2254
   49BENZ    R2  146   1.117   1.153   1.930 -0.0843 -0.1654  0.1066
   49BENZ    R3  147   1.071   1.156   2.196  0.0816 -0.1618  0.1366
   50BENZ    R1  148   0.379   1.460   0.784  0.4397  0.1606 -0.0404
   50BENZ    R2  149   0.169   1.564   0.918  0.2286 -0.4154  0.1090
   50BENZ    R3  150   0.419   1.588   1.018  0.1859 -0.1009  0.1528
   51BENZ    R1  151   4.738   0.591   1.403  0.0230 -0.0521  0.0214
   51BENZ    R2  152   4.874   0.823   1.378  0.1864 -0.1428  0.0520
   51BENZ    R3  153   4.682   0.759   1.199  0.2065 -0.0285 -0.0118
   52BENZ    R1  154   1.731   4.380   2.561 -0.0896  0.0050 -0.0502
   52BENZ    R2  155   1.692   4.524   2.786 -0.1621  0.1753 -0.1700
   52BENZ    R3  156   1.732   4.650   2.550 -0.0549 -0.0017 -0.2478
   53BENZ    R1  157   0.011   4.146   0.839  0.2152 -0.0086 -0.3659
   53BENZ    R2  158   0.277   4.097   0.832  0.1437 -0.4964 -0.0832
   53BENZ    R3  159   0.102   3.908   0.750 -0.1198 -0.0655 -0.5744
   54BENZ    R1  160   0.026   0.281   2.669 -0.3159  0.2034  0.2433
   54BENZ    R2  161   0.019   0.051   2.811 -0.2679 -0.0219 -0.1088
   54BENZ    R3  162  -0.012   0.288   2.937 -0.0814 -0.2027  0.2954
   55BENZ    R1  163   4.450   4.573   2.406 -0.0578  0.1803 -0.1180
   55BENZ    R2  164   4.408   4.314   2.470 -0.0590  0.2005 -0.0365
   55BENZ    R3  165   4.198   4.482   2.443 -0.0427  0.2695  0.2365
   56BENZ    R1  166   3.171   1.508   4.683  0.2028 -0.1320 -0.2778
   56BENZ    R2  167   3.218   1.766   4.617  0.3817 -0.0907 -0.0064
   56BENZ    R3  168   3.406   1.624   4.748  0.2200 -0.3108 -0.0066
   57BENZ    R1  169   2.173   3.203   1.237 -0.3138  0.1564 -0.2645
   57BENZ    R2  170   2.160   3.292   1.492  0.4079 -0.1437 -0.1007
   57BENZ    R3  171   2.111   3.032   1.436  0.1313 -0.0545 -0.2960
   58BENZ    R1  172   2.125   1.807   4.770 -0.4125  0.1069  0.1281
   58BENZ    R2  173   2.077   1.613   4.588 -0.1265  0.0380  0.1210
   58BENZ    R3  174   2.193   1.845   4.511 -0.2136  0.1014  0.1784
   59BENZ    R1  175   0.708   0.166   2.465  0.0123  0.0185  0.1748
   59BENZ    R2  176   0.960   0.185   2.369 -0.2106  0.2043 -0.4221
   59BENZ    R3  177   0.884   0.336   2.579  0.2140  0.0153 -0.1181
   60BENZ    R1  178   2.419   3.701   1.094 -0.3358 -0.2270  0.2223
   60BENZ    R2  179   2.482   3.881   1.286  0.1817 -0.0932 -0.0523
   60BENZ    R3  180   2.522   3.617   1.330 -0.1107 -0.1057  0.1705
   61BENZ    R1  181   1.104   2.596   1.309  0.0148  0.2747 -0.1803
   61BENZ    R2  182   1.096   2.755   1.527 -0.1889 -0.0689  0.0727
   61BENZ    R3  183   0.887   2.750   1.357 -0.0343  0.1912 -0.1330
   62BENZ    R1  184   4.168   1.790   1.560 -0.1404 -0.1607  0.2221
   62BENZ    R2  185   3.922   1.718   1.644 -0.1480 -0.4590 -0.0368
   62BENZ    R3  186   4.140   1.640   1.782 -0.1945 -0.1277  0.2377
   63BENZ    R1  187   3.933   3.893   1.236 -0.0586 -0.0344  0.2076
   63BENZ    R2  188   4.084   3.913   1.012 -0.3397  0.1345  0.0266
   63BENZ    R3  189   4.175   3.774   1.225 -0.0000  0.1030 -0.1332
   64BENZ    R1  190   1.159   3.211   1.758  0.0689  0.0316  0.1689
   64BENZ    R2  191   1.412   3.124   1.718  0.0525 -0.0070  0.1494
   64BENZ    R3  192   1.359   3.297   1.919  0.1472  0.2438 -0.0370
   65BENZ    R1  193   0.467   4.657   1.722 -0.0169  0.0167 -0.0005
   65BENZ    R2  194   0.530   4.655   1.460 -0.1952  0.1760 -0.0468
   65BENZ    R3  195   0.631   4.466   1.624 -0.2884 -0.0818 -0.2783
   66BENZ    R1  196   4.815   4.620   0.634 -0.0098 -0.3072 -0.1166
   66BENZ    R2  197   4.716   4.620   0.886  0.0386 -0.0889 -0.0956
   66BENZ    R3  198   4.667   4.828   0.721  0.0746 -0.1935 -0.2413
   67BENZ    R1  199   0.223   4.232   3.581 -0.0344  0.0303  0.2011
   67BENZ    R2  200   0.002   4.257   3.734 -0.2773 -0.3280 -0.0757
   67BENZ    R3  201   0.067   4.017   3.629  0.2326 -0.2222 -0.0256
   68BENZ    R1  202   0.701   2.085   4.535 -0.1685 -0.1365  0.0402
   68BENZ    R2  203   0.604   2.337   4.540  0.4527  0.1191  0.0351
   68BENZ    R3  204   0.551   2.176   4.330  0.0002  0.2159  0.0666
   69BENZ    R1  205   1.476   3.548   3.929  0.3394  0.2711  0.0526
   69BENZ    R2  206   1.455   3.564   4.198 -0.2079 -0.0822  0.0468
   69BENZ    R3  207   1.451   3.323   4.076 -0.0647  0.0781 -0.2894
   70BENZ    R1  208   4.346   1.264   1.069 -0.1451  0.2304 -0.3418
   70BENZ    R2  209   4.178   1.105   0.929  0.0309 -0.2521 -0.0301
   70BENZ    R3  210   4.445   1.079   0.899  0.0639  0.0747 -0.0589
   71BENZ    R1  211   4.170   2.149   3.118 -0.0578 -0.0876 -0.0095
   71BENZ    R2  212   4.037   2.322   3.277  0.1091 -0.1170  0.1663
   71BENZ    R3  213   4.140   2.407   3.043  0.0365 -0.0230  0.1676
   72BENZ    R1  214   2.497   1.310   1.566  0.0795  0.2510  0.3271
   72BENZ    R2  215   2.633   1.492   1.420  0.0648  0.0793  0.0922
   72BENZ    R3  216   2.366   1.468   1.390  0.1102 -0.2027 -0.1287
   73BENZ    R1  217   3.459   2.020   2.717  0.5578 -0.1975  0.4107
   73BENZ    R2  218   3.429   1.767   2.629 -0.1676  0.0687 -0.2225
   73BENZ    R3  219   3.266   1.862   2.822  0.2619  0.0055  0.1899
   74BENZ    R1  220   3.126   2.670   1.672 -0.1425 -0.0178  0.1268
   74BENZ    R2  221   2.975   2.893   1.647 -0.2224 -0.0322  0.4339
   74BENZ    R3  222   2.907   2.668   1.513 -0.1937  0.0986  0.1941
   75BENZ    R1  223   3.812   4.107   2.378  0.0069  0.0787  0.3232
   75BENZ    R2  224   3.987   4.002   2.201 -0.0351  0.0366  0.3065
   75BENZ    R3  225   4.060   4.037   2.459 -0.0506 -0.1193  0.3335
   76BENZ    R1  226   1.527   1.164   3.105  0.5185 -0.0310  0.1004
   76BENZ    R2  227   1.678   1.071   3.308  0.3409  0.1061  0.2995
   76BENZ    R3  228   1.462   1.225   3.360  0.2626  0.0999  0.0080
   77BENZ    R1  229   0.082   1.155   0.074 -0.1770  0.2106  0.0711
   77BENZ    R2  230  -0.009   1.238  -0.166  0.2227 -0.0014 -0.1657
   77BENZ    R3  231  -0.036   0.979  -0.094  0.0612  0.0710  0.0447
   78BENZ    R1  232   4.001   3.694   2.813 -0.1412 -0.0088 -0.0037
   78BENZ    R2  233   3.813   3.887   2.813  0.0572  0.2013  0.5125
   78BENZ    R3  234   3.766   3.653   2.938  0.0618  0.1708  0.4573
   79BENZ    R1  235   0.375   4.050   1.324  0.0505  0.2106 -0.1098
   79BENZ    R2  236   0.502   4.270   1.231  0.2588  0.1567  0.0382
   79BENZ    R3  237   0.625   4.030   1.224 -0.0297  0.0078 -0.2772
   80BENZ    R1  238   3.303   4.036   4.877  0.3475  0.0119  0.1162
   80BENZ    R2  239   3.258   4.280   4.771 -0.1603 -0.0321  0.2029
   80BENZ    R3  240   3.176   4.224   5.022 -0.0474 -0.2936  0.1847
   81BENZ    R1  241   4.318   3.725   2.240  0.0621 -0.1227  0.0896
   81BENZ    R2  242   4.251   3.581   2.458 -0.0023 -0.1487  0.0530
   81BENZ    R3  243   4.200   3.484   2.212  0.0714 -0.1200  0.0262
   82BENZ    R1  244   2.195   2.230   3.824  0.1492  0.1345  0.0167
   82BENZ    R2  245   2.368   2.411   3.926  0.1563  0.1622 -0.0439
   82BENZ    R3  246   2.338   2.388   3.659  0.1152  0.1112 -0.0353
   83BENZ    R1  247   1.456   1.411   1.003  0.0230 -0.2569 -0.1763
   83BENZ    R2  248   1.655   1.590   0.965  0.0367 -0.1435  0.3534
   83BENZ    R3  249   1.397   1.670   0.952  0.0324 -0.1827  0.1680
   84BENZ    R1  250   1.343   4.509   3.956 -0.2271 -0.1605 -0.0198
   84BENZ    R2  251   1.287   4.736   3.821 -0.2726 -0.2082 -0.0815
   84BENZ    R3  252   1.376   4.749   4.075 -0.0272 -0.1110 -0.1700
   85BENZ    R1  253   0.860   0.233   3.813  0.4735 -0.0681  0.0927
   85BENZ    R2  254   0.828  -0.016   3.914 -0.2449 -0.1493 -0.2680
   85BENZ    R3  255   0.898   0.016   3.655  0.4380  0.0488 -0.0795
   86BENZ    R1  256   1.690   0.351   2.640  0.2074  0.0829  0.2683
   86BENZ    R2  257   1.679   0.253   2.388  0.1508 -0.2304  0.3879
   86BENZ    R3  258   1.503   0.443   2.467  0.0473 -0.2663  0.2470
   87BENZ    R1  259   1.215   1.564   4.285 -0.1044 -0.1838 -0.0739
   87BENZ    R2  260   1.054   1.720   4.436 -0.0190 -0.1469 -0.0208
   87BENZ    R3  261   1.086   1.773   4.173  0.0267 -0.0609  0.0015
   88BENZ    R1  262   1.017   1.557   0.099 -0.1643 -0.0696  0.0644
   88BENZ    R2  263   0.928   1.307   0.050  0.0947 -0.1360 -0.0883
   88BENZ    R3  264   0.899   1.500  -0.136  0.5344 -0.2364 -0.2734
   89BENZ    R1  265   3.504   1.150   2.924  0.1042  0.0955 -0.0949
   89BENZ    R2  266   3.434   1.410   2.929  0.2166  0.1237  0.1131
   89BENZ    R3  267   3.690   1.339   2.974  0.1901 -0.0227  0.0380
   90BENZ    R1  268   3.821   0.215   4.225  0.5652 -0.1529  0.2464
   90BENZ    R2  269   4.031   0.384   4.205  0.3092  0.1369 -0.1563
   90BENZ    R3  270   3.849   0.370   4.006 -0.3235  0.2551  0.3764
   91BENZ    R1  271   0.228   4.579   2.969  0.5127  0.0297  0.0784
   91BENZ    R2  272   0.242   4.312   3.004  0.3606  0.0125  0.0121
   91BENZ    R3  273   0.271   4.477   3.215  0.3049 -0.0622  0.0787
   92BENZ    R1  274   1.314   4.797   1.036  0.1536 -0.0220  0.0135
   92BENZ    R2  275   1.186   4.675   0.832  0.1031 -0.1746  0.1349
   92BENZ    R3  276   1.421   4.801   0.788  0.0247 -0.0878 -0.0439
   93BENZ    R1  277   2.106   2.491   0.309 -0.2028 -0.0962  0.0374
   93BENZ    R2  278   2.167   2.751   0.354  0.0225 -0.1103 -0.1627
   93BENZ    R3  279   1.997   2.621   0.520  0.1583  0.0726  0.1284
   94BENZ    R1  280   2.014   3.154   0.071 -0.2977 -0.1484 -0.3096
   94BENZ    R2  281   2.039   3.398  -0.042  0.0870  0.0028  0.0726
   94BENZ    R3  282   1.885   3.366   0.177 -0.0344 -0.1204 -0.0292
   95BENZ    R1  283   1.764   0.727   2.070 -0.0203 -0.0514 -0.1168
   95BENZ    R2  284   1.597   0.529   1.993 -0.0275 -0.1345  0.1049
   95BENZ    R3  285   1.505   0.733   2.144  0.0318 -0.0838  0.0731
   96BENZ    R1  286   1.380   3.264   3.216  0.0858  0.0137 -0.2328
   96BENZ    R2  287   1.334   2.999   3.203 -0.0899  0.0163  0.1841
   96BENZ    R3  288   1.153   3.173   3.103 -0.1258 -0.0139  0.1965
   97BENZ    R1  289   3.424   0.302   1.465 -0.0568  0.1552  0.2291
   97BENZ    R2  290   3.670   0.257   1.365 -0.0922  0.4831 -0.0214
   97BENZ    R3  291   3.452   0.194   1.219 -0.1647  0.1589  0.2143
   98BENZ    R1  292   0.547   3.687   2.809  0.0268  0.0039 -0.1045
   98BENZ    R2  293   0.634   3.442   2.740  0.1431  0.1172 -0.3709
   98BENZ    R3  294   0.556   3.616   2.549 -0.3764  0.1311 -0.1596
   99BENZ    R1  295   1.954   4.235   1.260  0.0147 -0.1004 -0.1456
   99BENZ    R2  296   2.215   4.180   1.222 -0.0282 -0.2577 -0.2223
   99BENZ    R3  297   2.088   4.082   1.438  0.0583  0.1061  0.0031
  100BENZ    R1  298   2.201   0.787   0.449 -0.1956 -0.2646  0.0067
  100BENZ    R2  299   1.970   0.723   0.325 -0.3558  0.0800  0.1142
  100BENZ    R3  300   2.092   0.958   0.270  0.0559 -0.1626 -0.0535
  101BENZ    R1  301   3.881   1.052   0.473  0.2462  0.0124  0.1849
  101BENZ    R2  302   3.862   1.317   0.420  0.2145  0.0852  0.5352
  101BENZ    R3  303   4.105   1.202   0.449  0.2316  0.0486  0.2707
  102BENZ    R1  304   1.669   1.585   4.737  0.0740 -0.0309  0.0984
  102BENZ    R2  305   1.406   1.533   4.703 -0.0078  0.2809  0.2146
  102BENZ    R3  306   1.582   1.330   4.735 -0.1792  0.0510 -0.2185
  103BENZ    R1  307   0.885   2.139   1.707 -0.0242 -0.0571  0.1986
  103BENZ    R2  308   0.773   2.372   1.787 -0.3133 -0.1102 -0.0340
  103BENZ    R3  309   1.034   2.364   1.718 -0.2649  0.1111  0.1134
  104BENZ    R1  310   0.605   2.437   1.068 -0.1936 -0.2128 -0.2348
  104BENZ    R2  311   0.786   2.263   1.168 -0.3883 -0.1329  0.2892
  104BENZ    R3  312   0.590   2.360   1.326 -0.3181  0.5290  0.0025
  105BENZ    R1  313   1.603   2.133   1.947 -0.0515 -0.0869  0.3070
  105BENZ    R2  314   1.697   2.377   2.015 -0.2947  0.1004 -0.0003
  105BENZ    R3  315   1.788   2.255   1.792 -0.3388  0.0096  0.0307
  106BENZ    R1  316   2.229   4.459   4.817  0.1183 -0.1482  0.0764
  106BENZ    R2  317   2.038   4.270   4.788  0.0000 -0.0110 -0.0564
  106BENZ    R3  318   2.211   4.319   4.587  0.1469 -0.1022  0.0460
  107BENZ    R1  319   1.707   0.767   1.631  0.0672  0.1366 -0.2164
  107BENZ    R2  320   1.935   0.673   1.522  0.0810  0.0538 -0.1174
  107BENZ    R3  321   1.698   0.568   1.449  0.1010 -0.1080  0.0425
  108BENZ    R1  322   0.844   4.668   0.228  0.0296 -0.0479  0.0185
  108BENZ    R2  323   0.655   4.800   0.370 -0.0654 -0.1342 -0.0259
  108BENZ    R3  324   0.913   4.802   0.452 -0.0195  0.2799 -0.1560
  109BENZ    R1  325   3.478   3.151   1.767  0.0609 -0.6676  0.0059
  109BENZ    R2  326   3.376   3.049   1.996 -0.1399  0.3041  0.3959
  109BENZ    R3  327   3.624   3.155   1.994  0.0666 -0.1491  0.0046
  110BENZ    R1  328   0.636   3.084   1.618  0.0897 -0.0186  0.2891
  110BENZ    R2  329   0.626   3.346   1.553  0.0283 -0.0896 -0.0026
  110BENZ    R3  330   0.796   3.181   1.422  0.1056 -0.1873  0.2162
  111BENZ    R1  331   2.384   0.420   2.821 -0.0281  0.1669 -0.0778
  111BENZ    R2  332   2.481   0.653   2.724  0.1979  0.1622  0.1275
  111BENZ    R3  333   2.218   0.628   2.778  0.1381  0.2998 -0.0902
  112BENZ    R1  334   4.706   0.775   4.396  0.0126 -0.1306 -0.2351
  112BENZ    R2  335   4.948   0.692   4.481 -0.1636 -0.1392  0.2969
  112BENZ    R3  336   4.926   0.828   4.249  0.3088 -0.3637  0.1066
  113BENZ    R1  337   1.663   0.180   4.605  0.3091 -0.1535 -0.1008
  113BENZ    R2  338   1.454   0.058   4.484 -0.1587  0.3197  0.1882
  113BENZ    R3  339   1.540   0.298   4.396  0.1463  0.2165  0.1930
  114BENZ    R1  340   1.319   3.703   0.710  0.0151 -0.2620 -0.0025
  114BENZ    R2  341   1.370   3.451   0.792  0.1365 -0.1384  0.3182
  114BENZ    R3  342   1.574   3.618   0.738  0.0569 -0.1413 -0.0127
  115BENZ    R1  343   2.998   3.846   2.654 -0.0220  0.1597 -0.0262
  115BENZ    R2  344   3.188   4.037   2.660 -0.0507  0.2055 -0.3759
  115BENZ    R3  345   3.206   3.834   2.483 -0.1123 -0.0227 -0.1265
  116BENZ    R1  346   2.905   3.114   0.498 -0.2124 -0.0795 -0.0002
  116BENZ    R2  347   3.019   3.116   0.253 -0.1194  0.0041  0.0427
  116BENZ    R3  348   2.962   2.881   0.373  0.2898 -0.0487  0.1480
  117BENZ    R1  349   4.779   3.339   0.766 -0.1988 -0.0189 -0.3318
  117BENZ    R2  350   4.989   3.458   0.646  0.1239  0.0184  0.2314
  117BENZ    R3  351   5.008   3.201   0.726 -0.1426 -0.0549  0.0711
  118BENZ    R1  352   3.717   3.167   0.170 -0.1962  0.1179 -0.0220
  118BENZ    R2  353   3.568   3.375   0.254 -0.0981  0.2186 -0.0941
  118BENZ    R3  354   3.830   3.364   0.315 -0.0405  0.2585 -0.3242
  119BENZ    R1  355   2.381   4.318   2.055 -0.2133  0.0612  0.0712
  119BENZ    R2  356   2.351   4.584   2.090  0.0873  0.1233 -0.1084
  119BENZ    R3  357   2.597   4.479   2.052 -0.0149 -0.1977  0.0738
  120BENZ    R1  358   3.957   4.337   3.805  0.1243 -0.0013 -0.2306
  120BENZ    R2  359   4.173   4.175   3.814  0.2692  0.1952 -0.0816
  120BENZ    R3  360   3.968   4.135   3.984  0.2195  0.0542 -0.1727
  121BENZ    R1  361   3.799   2.777   1.122 -0.3194  0.0833  0.1222
  121BENZ    R2  362   3.895   2.571   0.976 -0.0530  0.2576  0.0443
  121BENZ    R3  363   3.936   2.578   1.243 -0.2607  0.0997  0.0830
  122BENZ    R1  364   4.498   3.907   0.669 -0.0343  0.2134  0.4467
  122BENZ    R2  365   4.293   3.735   0.638  0.1884 -0.0286  0.2781
  122BENZ    R3  366   4.492   3.678   0.811  0.1421  0.1801  0.4029
  123BENZ    R1  367   3.854   4.018   3.287  0.0522 -0.1947 -0.0057
  123BENZ    R2  368   4.059   3.984   3.459  0.0918 -0.1485 -0.0436
  123BENZ    R3  369   4.063   4.190   3.284  0.0725 -0.2205 -0.1295
  124BENZ    R1  370   0.538   1.202   1.663  0.0351 -0.0404 -0.1164
  124BENZ    R2  371   0.445   1.373   1.475 -0.1963 -0.0389 -0.0033
  124BENZ    R3  372   0.272   1.233   1.629 -0.0137 -0.4716 -0.1768
  125BENZ    R1  373   2.461   0.919   4.179  0.1533 -0.0943  0.0435
  125BENZ    R2  374   2.676   0.839   4.321  0.1803 -0.1087 -0.0052
  125BENZ    R3  375   2.669   1.087   4.215  0.0937 -0.0420  0.1515
  126BENZ    R1  376   0.360   1.651   3.447 -0.0048  0.2653  0.0298
  126BENZ    R2  377   0.229   1.557   3.664  0.0702  0.2992  0.0903
  126BENZ    R3  378   0.146   1.489   3.416  0.4249 -0.3542  0.1293
  127BENZ    R1  379   0.656   1.752   1.714  0.1459  0.0210  0.0875
  127BENZ    R2  380   0.730   1.644   1.950 -0.0085  0.0435  0.1475
  127BENZ    R3  381   0.820   1.537   1.719  0.2035  0.0670  0.2167
  128BENZ    R1  382   4.461   1.370   0.600  0.0505 -0.0508  0.1746
  128BENZ    R2  383   4.661   1.270   0.449  0.0843  0.2902 -0.0182
  128BENZ    R3  384   4.714   1.372   0.693  0.0412 -0.1908  0.2054
  129BENZ    R1  385   4.295   0.040   2.206 -0.0099 -0.0255 -0.0479
  129BENZ    R2  386   4.150   0.267   2.189 -0.1122 -0.0901 -0.0451
  129BENZ    R3  387   4.066   0.065   2.347  0.1980  0.0331  0.2914
  130BENZ    R1  388   1.833   1.351   2.119 -0.0809 -0.0885 -0.1268
  130BENZ    R2  389   1.567   1.374   2.161 -0.0822 -0.2237 -0.0536
  130BENZ    R3  390   1.662   1.175   2.005 -0.0267 -0.1467 -0.1189
  131BENZ    R1  391   2.235   1.133   3.042 -0.1181 -0.0429 -0.0506
  131BENZ    R2  392   2.417   1.036   3.216 -0.3244 -0.4016 -0.0232
  131BENZ    R3  393   2.177   1.121   3.305 -0.0762  0.3745 -0.0160
  132BENZ    R1  394   0.867   2.473   0.640 -0.0869 -0.0556 -0.1082
  132BENZ    R2  395   1.050   2.660   0.573  0.0271 -0.1768 -0.1390
  132BENZ    R3  396   1.021   2.585   0.831 -0.2636  0.1353 -0.0733
  133BENZ    R1  397   1.452   0.031   1.927  0.0376 -0.1452 -0.1300
  133BENZ    R2  398   1.526  -0.124   2.136  0.1766 -0.0615 -0.1161
  133BENZ    R3  399   1.308   0.035   2.156  0.1427 -0.1142 -0.0636
  134BENZ    R1  400   3.344   4.297   3.096 -0.0504 -0.0614 -0.2591
  134BENZ    R2  401   3.498   4.084   3.035  0.0478 -0.0213 -0.1531
  134BENZ    R3  402   3.264   4.048   3.163  0.0015 -0.0763 -0.2523
  135BENZ    R1  403   4.477   1.225   3.831  0.1289  0.0333  0.1243
  135BENZ    R2  404   4.718   1.247   3.712 -0.0063  0.1280 -0.1392
  135BENZ    R3  405   4.644   1.013   3.825  0.0995  0.0148 -0.3000
  136BENZ    R1  406   4.581   3.578   3.075 -0.2987  0.0740  0.0347
  136BENZ    R2  407   4.741   3.360   3.076 -0.1695  0.1610 -0.2909
  136BENZ    R3  408   4.473   3.331   3.060 -0.1907  0.0162  0.1825
  137BENZ    R1  409   0.534   1.294   2.888 -0.1472  0.0484 -0.2699
  137BENZ    R2  410   0.322   1.432   2.794 -0.1906  0.2558  0.1110
  137BENZ    R3  411   0.442   1.509   3.023  0.1646  0.0110  0.0157
  138BENZ    R1  412   2.605   3.544   4.744  0.1711  0.1408 -0.1459
  138BENZ    R2  413   2.390   3.528   4.581  0.1259  0.1558 -0.0883
  138BENZ    R3  414   2.593   3.695   4.520  0.1038  0.1703 -0.1227
  139BENZ    R1  415   0.392   1.127   2.134  0.1255 -0.0329  0.0697
  139BENZ    R2  416   0.358   1.195   2.393  0.0343 -0.0072  0.0513
  139BENZ    R3  417   0.496   1.357   2.227  0.0228  0.0161  0.0647
  140BENZ    R1  418   3.882   4.282   0.439 -0.0281 -0.3527 -0.0791
  140BENZ    R2  419   4.061   4.175   0.610  0.1661  0.2185  0.0973
  140BENZ    R3  420   3.957   4.420   0.658 -0.1377  0.1938 -0.3665
  141BENZ    R1  421   0.667   2.611   3.220  0.1252  0.0852 -0.0514
  141BENZ    R2  422   0.854   2.805   3.210  0.1480  0.0551 -0.2399
  141BENZ    R3  423   0.919   2.559   3.300  0.1005  0.1528  0.0739
  142BENZ    R1  424   4.362   4.531   4.073  0.0336  0.2700  0.1774
  142BENZ    R2  425   4.603   4.412   4.055 -0.1015  0.0396 -0.2146
  142BENZ    R3  426   4.492   4.526   3.837 -0.1931  0.4645  0.0437
  143BENZ    R1  427   3.697   4.230   1.028 -0.0763 -0.1619  0.0556
  143BENZ    R2  428   3.523   4.413   0.933  0.3714  0.0796 -0.3410
  143BENZ    R3  429   3.582   4.194   0.786 -0.1454 -0.4013  0.1209
  144BENZ    R1  430   0.353   0.070   4.495  0.2074 -0.3884  0.1953
  144BENZ    R2  431   0.358  -0.175   4.382  0.2531 -0.1795 -0.2779
  144BENZ    R3  432   0.582  -0.024   4.386  0.1771 -0.0679 -0.1673
  145BENZ    R1  433   2.694   3.297   2.586 -0.2563 -0.1718 -0.2113
  145BENZ    R2  434   2.811   3.460   2.405  0.1663 -0.2036  0.0211
  145BENZ    R3  435   2.599   3.547   2.546  0.1144 -0.0162 -0.1669
  146BENZ    R1  436   0.627   3.235   0.749  0.2618 -0.0360 -0.2804
  146BENZ    R2  437   0.577   2.977   0.689 -0.3225  0.0092 -0.0578
  146BENZ    R3  438   0.703   3.040   0.919 -0.0617 -0.0747 -0.1732
  147BENZ    R1  439   0.746   1.374   4.171  0.4616  0.1937 -0.2660
  147BENZ    R2  440   0.650   1.179   4.010 -0.0070  0.1039  0.1001
  147BENZ    R3  441   0.641   1.437   3.930 -0.0447  0.0423 -0.0992
  148BENZ    R1  442   4.308   1.996   4.447  0.1855 -0.2352 -0.0037
  148BENZ    R2  443   4.104   2.064   4.284  0.0498 -0.1821  0.1850
  148BENZ    R3  444   4.330   2.212   4.286 -0.0520 -0.0248  0.2367
  149BENZ    R1  445   3.507   2.828   2.578 -0.1225  0.0208 -0.1327
  149BENZ    R2  446   3.496   3.053   2.429  0.0440 -0.0304 -0.2251
  149BENZ    R3  447   3.543   2.815   2.311  0.0400 -0.0909 -0.1067
  150BENZ    R1  448   0.008   4.831   3.289  0.1596  0.0973 -0.0406
  150BENZ    R2  449  -0.229   4.719   3.355  0.1141  0.1391 -0.1302
  150BENZ    R3  450  -0.016   4.693   3.520 -0.0302  0.3522  0.0967
  151BENZ    R1  451   1.261   2.023   0.103  0.1756 -0.3960  0.3209
  151BENZ    R2  452   1.442   2.000  -0.095 -0.0186  0.2190  0.0450
  151BENZ    R3  453   1.181   2.033  -0.155 -0.1226  0.1202  0.4187
  152BENZ    R1  454   2.963   1.384   2.945  0.2806  0.0177 -0.1953
  152BENZ    R2  455   3.030   1.126   2.990  0.2557  0.0504  0.0463
  152BENZ    R3  456   2.788   1.218   3.065  0.3124  0.1758  0.0788
  153BENZ    R1  457   0.302   2.983   1.077  0.1840 -0.2761 -0.0519
  153BENZ    R2  458   0.472   2.863   1.249 -0.0674 -0.1575  0.2914
  153BENZ    R3  459   0.317   3.067   1.333 -0.2353 -0.1297 -0.0677
  154BENZ    R1  460   1.858   1.438   3.198 -0.0829 -0.3095  0.1441
  154BENZ    R2  461   1.860   1.619   3.398 -0.0343 -0.0411 -0.0933
  154BENZ    R3  462   1.672   1.634   3.204 -0.0431 -0.2602 -0.1039
  155BENZ    R1  463   3.574   4.772   2.307 -0.2334  0.0640 -0.0577
  155BENZ    R2  464   3.772   4.602   2.377  0.1887  0.3818 -0.4243
  155BENZ    R3  465   3.563   4.512   2.232  0.1413  0.0769 -0.1781
  156BENZ    R1  466   3.749   4.359   2.757 -0.0395  0.2279  0.0010
  156BENZ    R2  467   3.994   4.304   2.855 -0.1728  0.0424  0.2408
  156BENZ    R3  468   3.809   4.423   3.012 -0.2612  0.1152  0.0840
  157BENZ    R1  469   1.699   2.424   2.506  0.1010 -0.0839 -0.1971
  157BENZ    R2  470   1.624   2.176   2.429  0.0987 -0.3052  0.4573
  157BENZ    R3  471   1.886   2.236   2.455  0.1096 -0.1442  0.0435
  158BENZ    R1  472   0.853   0.085   1.831 -0.2515  0.0029 -0.0887
  158BENZ    R2  473   0.821  -0.100   2.025  0.0886 -0.0850 -0.1087
  158BENZ    R3  474   0.654   0.112   2.011  0.0272 -0.1040  0.2476
  159BENZ    R1  475   1.016   4.816   3.214  0.2314  0.2827  0.0749
  159BENZ    R2  476   1.191   4.651   3.337 -0.0147 -0.0614 -0.0194
  159BENZ    R3  477   0.928   4.590   3.334 -0.1050  0.3084 -0.1106
  160BENZ    R1  478   3.735   1.403   3.612  0.1537  0.1003  0.0820
  160BENZ    R2  479   3.582   1.389   3.390  0.0453 -0.0166  0.1629
  160BENZ    R3  480   3.836   1.300   3.384  0.0581  0.0254  0.0728
  161BENZ    R1  481   3.653   1.798   4.182 -0.2583 -0.0362 -0.2045
  161BENZ    R2  482   3.530   1.973   4.347  0.0117  0.0354 -0.0746
  161BENZ    R3  483   3.391   1.768   4.240 -0.1817  0.0171  0.2006
  162BENZ    R1  484   0.225   4.530   2.473  0.1908  0.0421 -0.1417
  162BENZ    R2  485   0.080   4.369   2.312  0.1172 -0.0104 -0.0243
  162BENZ    R3  486   0.002   4.411   2.566  0.2059  0.1110 -0.0162
  163BENZ    R1  487   0.387   0.528   2.493 -0.0246 -0.1122  0.1116
  163BENZ    R2  488   0.153   0.644   2.426  0.0078 -0.0687  0.0731
  163BENZ    R3  489   0.373   0.685   2.274  0.1332  0.2023  0.3180
  164BENZ    R1  490   4.027   0.761   3.832  0.0969  0.1150  0.0386
  164BENZ    R2  491   3.846   0.907   3.694 -0.2404 -0.1339  0.2018
  164BENZ    R3  492   4.082   1.017   3.768 -0.2218  0.1257 -0.2154
  165BENZ    R1  493   0.002   1.783   0.539  0.0903 -0.1829  0.4922
  165BENZ    R2  494  -0.259   1.827   0.590 -0.0222  0.2094 -0.2771
  165BENZ    R3  495  -0.073   2.005   0.673 -0.0160  0.0468  0.0718
  166BENZ    R1  496   0.205   2.582   4.379 -0.1501 -0.0761  0.0063
  166BENZ    R2  497   0.278   2.648   4.630 -0.0361 -0.1324 -0.0116
  166BENZ    R3  498   0.317   2.822   4.428  0.0676 -0.1692 -0.0239
  167BENZ    R1  499   1.429   4.268   0.905  0.2878  0.0468  0.0749
  167BENZ    R2  500   1.369   4.036   1.027 -0.1025  0.1888  0.1659
  167BENZ    R3  501   1.597   4.057   0.884  0.0068 -0.2031  0.2683
  168BENZ    R1  502   1.654   0.498   0.165 -0.0095 -0.0837 -0.1633
  168BENZ    R2  503   1.557   0.609   0.392 -0.0039  0.2170 -0.3027
  168BENZ    R3  504   1.569   0.340   0.367 -0.2768  0.1782 -0.0631
  169BENZ    R1  505   4.484   0.919   3.397 -0.1093  0.2773  0.0759
  169BENZ    R2  506   4.239   0.913   3.282  0.0401 -0.1865 -0.2499
  169BENZ    R3  507   4.309   0.723   3.461  0.0448  0.1529  0.1241
  170BENZ    R1  508   3.082   4.728   0.728 -0.4579  0.0785 -0.1191
  170BENZ    R2  509   3.228   4.896   0.576 -0.3461 -0.0144 -0.1155
  170BENZ    R3  510   3.119   4.675   0.466  0.2576 -0.4206  0.0544
  171BENZ    R1  511   2.424   2.891   3.245 -0.0721 -0.1567  0.2515
  171BENZ    R2  512   2.464   3.049   3.030  0.1967 -0.0664  0.3644
  171BENZ    R3  513   2.540   2.790   3.024 -0.0339 -0.1341  0.2612
  172BENZ    R1  514   4.060   4.447   1.507  0.0036  0.1106  0.0856
  172BENZ    R2  515   3.848   4.316   1.612 -0.1323  0.2003 -0.0724
  172BENZ    R3  516   4.072   4.180   1.548 -0.1422  0.1039  0.0920
  173BENZ    R1  517   4.411   2.521   3.768  0.0934 -0.0898 -0.1303
  173BENZ    R2  518   4.261   2.316   3.860 -0.3670  0.1494 -0.3137
  173BENZ    R3  519   4.306   2.342   3.595  0.1908 -0.0333 -0.2496
  174BENZ    R1  520   2.763   4.268   0.305  0.2254  0.1976  0.1206
  174BENZ    R2  521   2.561   4.430   0.226  0.2069 -0.0395 -0.3583
  174BENZ    R3  522   2.707   4.492   0.445 -0.1212  0.3482 -0.2371
  175BENZ    R1  523   4.427   4.376   4.508  0.1723  0.0088  0.0132
  175BENZ    R2  524   4.544   4.193   4.669  0.3598 -0.0703 -0.2082
  175BENZ    R3  525   4.279   4.242   4.690  0.3454 -0.2211 -0.0112
  176BENZ    R1  526   4.378   4.547   3.025 -0.1133 -0.2240 -0.4775
  176BENZ    R2  527   4.425   4.690   2.801  0.0589  0.3678 -0.0865
  176BENZ    R3  528   4.613   4.520   2.894  0.1841  0.4748 -0.1403
  177BENZ    R1  529   1.027   2.402   2.174  0.1581  0.0592  0.0920
  177BENZ    R2  530   1.152   2.176   2.250  0.1535  0.0022 -0.0665
  177BENZ    R3  531   1.297   2.391   2.173  0.1617  0.1087  0.2322
  178BENZ    R1  532   3.052   1.985   0.746  0.0303 -0.1193  0.0115
  178BENZ    R2  533   3.026   2.242   0.825  0.0011 -0.0847 -0.1092
  178BENZ    R3  534   2.811   2.107   0.732 -0.0140 -0.1974  0.0840
  179BENZ    R1  535   4.542   1.734   2.979  0.2072  0.1695  0.1267
  179BENZ    R2  536   4.777   1.626   3.055  0.1386 -0.0446  0.0432
  179BENZ    R3  537   4.684   1.584   2.805 -0.0197 -0.0161  0.0962
  180BENZ    R1  538   3.010   0.538   1.492 -0.2134 -0.0981 -0.0697
  180BENZ    R2  539   3.065   0.387   1.709 -0.1579 -0.0938 -0.0807
  180BENZ    R3  540   3.057   0.656   1.730 -0.0190 -0.0860 -0.1118
  181BENZ    R1  541   0.076   0.307   1.668  0.1833  0.1583 -0.2417
  181BENZ    R2  542   0.295   0.192   1.559  0.0155 -0.2236 -0.1916
  181BENZ    R3  543   0.084   0.040   1.630 -0.2909  0.1434 -0.2858
  182BENZ    R1  544   3.615   0.325   0.163 -0.1692  0.1373 -0.2203
  182BENZ    R2  545   3.636   0.581   0.245 -0.0266  0.0541  0.0138
  182BENZ    R3  546   3.859   0.438   0.194 -0.0738 -0.2048  0.4781
  183BENZ    R1  547   3.404   3.916   1.238  0.2791  0.2143 -0.1658
  183BENZ    R2  548   3.323   3.847   1.486 -0.1252  0.2550 -0.2788
  183BENZ    R3  549   3.549   3.991   1.453 -0.0882  0.2853  0.0671
  184BENZ    R1  550   3.086   0.321   3.504  0.0111  0.2890  0.0339
  184BENZ    R2  551   3.066   0.577   3.419  0.0662  0.3429  0.1802
  184BENZ    R3  552   2.874   0.472   3.578 -0.0226  0.2512  0.0152
  185BENZ    R1  553   3.088   4.537   2.772  0.1223 -0.0401 -0.0905
  185BENZ    R2  554   3.335   4.531   2.661  0.0164  0.0859 -0.3421
  185BENZ    R3  555   3.190   4.759   2.658 -0.0678  0.0394 -0.1090
  186BENZ    R1  556   2.095   2.625   2.964  0.0594  0.0561  0.2118
  186BENZ    R2  557   1.940   2.410   2.910  0.0884  0.1637 -0.3632
  186BENZ    R3  558   2.209   2.383   2.923  0.0746  0.1173 -0.1424
  187BENZ    R1  559   3.580   1.775   3.095 -0.2101  0.1813 -0.3551
  187BENZ    R2  560   3.837   1.760   3.177 -0.2512  0.0966 -0.2383
  187BENZ    R3  561   3.739   1.993   3.081 -0.1296  0.1278 -0.2887
  188BENZ    R1  562   1.252   4.228   3.199  0.0782 -0.3213 -0.0136
  188BENZ    R2  563   1.328   4.364   2.978  0.0217  0.3229  0.3373
  188BENZ    R3  564   1.067   4.306   3.018  0.0626 -0.0454  0.1151
  189BENZ    R1  565   4.472   4.063   1.877 -0.1088  0.1271 -0.1181
  189BENZ    R2  566   4.269   3.901   1.805 -0.0503  0.1372 -0.3116
  189BENZ    R3  567   4.486   3.924   1.646  0.1209  0.0970 -0.0880
  190BENZ    R1  568   4.201   4.595   3.458  0.1519  0.2654  0.1921
  190BENZ    R2  569   3.932   4.618   3.448  0.1456  0.1238 -0.0246
  190BENZ    R3  570   4.087   4.770   3.288  0.1718 -0.1297 -0.2470
  191BENZ    R1  571   2.496   2.470   0.574 -0.4935  0.0906 -0.2145
  191BENZ    R2  572   2.644   2.595   0.387 -0.0019 -0.2764 -0.0904
  191BENZ    R3  573   2.643   2.325   0.401 -0.1568 -0.2619  0.3332
  192BENZ    R1  574   3.312   2.892   4.202 -0.2230 -0.2436 -0.0965
  192BENZ    R2  575   3.144   2.689   4.259 -0.3707 -0.0740  0.0863
  192BENZ    R3  576   3.049   2.940   4.236 -0.2275 -0.0535 -0.3721
  193BENZ    R1  577   0.625   1.108   4.647  0.0193 -0.0031  0.0495
  193BENZ    R2  578   0.367   1.040   4.609 -0.0354  0.3163 -0.1844
  193BENZ    R3  579   0.468   1.051   4.859 -0.2527  0.2092 -0.0890
  194BENZ    R1  580   2.408   3.469   2.134 -0.0584 -0.0787  0.1214
  194BENZ    R2  581   2.307   3.336   1.922  0.0393  0.0281  0.0070
  194BENZ    R3  582   2.419   3.200   2.126 -0.2286 -0.0856  0.0809
  195BENZ    R1  583   4.676   3.270   0.300  0.1071 -0.2930  0.2066
  195BENZ    R2  584   4.483   3.398   0.440  0.2018  0.1111 -0.0172
  195BENZ    R3  585   4.416   3.203   0.266  0.0318  0.0084  0.1588
  196BENZ    R1  586   0.806   3.348   3.660  0.0082  0.0662  0.2037
  196BENZ    R2  587   1.058   3.392   3.746  0.0598  0.2829 -0.0465
  196BENZ    R3  588   1.015   3.275   3.507 -0.0806  0.0360  0.0954
  197BENZ    R1  589   4.351   0.038   3.733  0.0516 -0.0033  0.0068
  197BENZ    R2  590   4.110   0.040   3.855  0.0123  0.1744 -0.0703
  197BENZ    R3  591   4.164   0.220   3.661  0.2009  0.1232 -0.0671
  198BENZ    R1  592   1.011   4.518   4.272 -0.3692  0.0608 -0.0793
  198BENZ    R2  593   0.841   4.309   4.295 -0.1234 -0.1625 -0.2313
  198BENZ    R3  594   1.103   4.265   4.246 -0.0245  0.1771 -0.0406
  199BENZ    R1  595   0.208   0.280   3.843 -0.1840 -0.1940  0.0874
  199BENZ    R2  596   0.202   0.343   4.105  0.0594  0.1449  0.0184
  199BENZ    R3  597   0.396   0.181   4.009 -0.1537 -0.1539  0.0771
  200BENZ    R1  598   0.258   2.566   1.508 -0.3147 -0.4958  0.0449
  200BENZ    R2  599   0.337   2.661   1.748  0.3110 -0.4011 -0.1793
  200BENZ    R3  600   0.117   2.505   1.730 -0.2589  0.2795  0.3212
  201BENZ    R1  601   4.620   3.881   0.191  0.2045  0.2088 -0.0593
  201BENZ    R2  602   4.807   3.700   0.265 -0.0973 -0.2053 -0.2695
  201BENZ    R3  603   4.837   3.960   0.330  0.4107 -0.3046 -0.0666
  202BENZ    R1  604   1.893   0.746   2.523  0.0545  0.0017  0.2718
  202BENZ    R2  605   1.876   1.002   2.439 -0.1664 -0.1036 -0.0232
  202BENZ    R3  606   2.098   0.857   2.387 -0.1535 -0.0561 -0.1021
  203BENZ    R1  607   3.372   3.394   4.139  0.0279  0.5466  0.1094
  203BENZ    R2  608   3.139   3.305   4.035  0.1492  0.0627  0.2271
  203BENZ    R3  609   3.352   3.346   3.874  0.0654  0.2395  0.1587
  204BENZ    R1  610   2.367   2.767   2.552  0.0247  0.1675 -0.0381
  204BENZ    R2  611   2.116   2.833   2.478  0.0831 -0.0548 -0.4648
  204BENZ    R3  612   2.177   2.575   2.532  0.1062  0.0655  0.1438
  205BENZ    R1  613   0.593   3.892   3.599  0.2375 -0.3537  0.2292
  205BENZ    R2  614   0.478   3.648   3.591 -0.0721 -0.2071  0.0038
  205BENZ    R3  615   0.469   3.795   3.817  0.1085 -0.3971  0.1377
  206BENZ    R1  616   3.738   4.000   4.720 -0.1068 -0.2026  0.0268
  206BENZ    R2  617   3.746   4.170   4.929 -0.0173 -0.0581 -0.0924
  206BENZ    R3  618   3.776   4.264   4.678 -0.3847 -0.1928 -0.1932
  207BENZ    R1  619   4.082   0.221   0.482 -0.0606 -0.1222 -0.4073
  207BENZ    R2  620   4.318   0.093   0.511 -0.1606 -0.3002 -0.3671
  207BENZ    R3  621   4.088  -0.028   0.585 -0.2081  0.1415  0.2978
  208BENZ    R1  622   3.073   4.404   1.114 -0.0651 -0.0781  0.3561
  208BENZ    R2  623   3.134   4.663   1.160  0.1132 -0.0595  0.0466
  208BENZ    R3  624   2.916   4.552   1.276 -0.1606  0.3240 -0.0807
  209BENZ    R1  625   3.960   4.606   1.072  0.1966  0.1966  0.0079
  209BENZ    R2  626   3.784   4.804   1.021  0.1018  0.0406 -0.2905
  209BENZ    R3  627   3.760   4.657   1.246  0.1634  0.3534 -0.0750
  210BENZ    R1  628   3.982   3.085   1.458 -0.0588  0.0102  0.0915
  210BENZ    R2  629   3.944   3.205   1.697  0.0993  0.0381  0.1038
  210BENZ    R3  630   4.151   3.035   1.663 -0.0261 -0.1038  0.0378
  211BENZ    R1  631   0.441   2.304   3.595 -0.1291 -0.0015  0.0361
  211BENZ    R2  632   0.525   2.083   3.464 -0.1325 -0.1014  0.1983
  211BENZ    R3  633   0.705   2.250   3.576 -0.1196  0.0903 -0.0974
  212BENZ    R1  634   2.612   0.939   0.398  0.1905  0.1238  0.1930
  212BENZ    R2  635   2.555   1.065   0.166  0.0187  0.0245  0.1791
  212BENZ    R3  636   2.482   1.176   0.401  0.2759  0.1711  0.1946
  213BENZ    R1  637   3.456   4.464   1.484  0.0936  0.2565 -0.1301
  213BENZ    R2  638   3.238   4.322   1.558  0.1707  0.0364 -0.3143
  213BENZ    R3  639   3.398   4.432   1.746  0.0620 -0.0474 -0.1712
  214BENZ    R1  640   2.285   2.294   2.174 -0.1348  0.2307  0.4830
  214BENZ    R2  641   2.432   2.520   2.167  0.3177 -0.0535 -0.0886
  214BENZ    R3  642   2.225   2.488   1.997  0.3573 -0.1310 -0.1227
  215BENZ    R1  643   4.729   0.516   2.076 -0.3595 -0.1604  0.1495
  215BENZ    R2  644   4.541   0.548   1.884  0.0789 -0.1847 -0.3054
  215BENZ    R3  645   4.626   0.300   1.949 -0.1507 -0.1850  0.0168
  216BENZ    R1  646   3.651   4.850   1.723  0.4154 -0.1847 -0.0234
  216BENZ    R2  647   3.787   4.979   1.917  0.2004 -0.0232  0.0242
  216BENZ    R3  648   3.522   5.018   1.891  0.1985 -0.1712 -0.2001
  217BENZ    R1  649   2.424   3.627   3.327 -0.4195 -0.3554  0.1047
  217BENZ    R2  650   2.495   3.368   3.354 -0.0489 -0.2918 -0.1805
  217BENZ    R3  651   2.513   3.489   3.113 -0.1508  0.0198 -0.0367
  218BENZ    R1  652   2.052   3.799   2.343  0.1486 -0.2240  0.2038
  218BENZ    R2  653   2.084   4.065   2.302 -0.1217 -0.1951  0.1677
  218BENZ    R3  654   2.300   3.908   2.340  0.0555 -0.0067 -0.0332
  219BENZ    R1  655   1.126   0.825   0.647  0.0597 -0.0323  0.0212
  219BENZ    R2  656   1.335   0.782   0.813 -0.0109  0.1142  0.1509
  219BENZ    R3  657   1.252   1.034   0.762 -0.0859  0.0625  0.0114
  220BENZ    R1  658   0.276   0.407   4.745 -0.1906 -0.0390  0.2496
  220BENZ    R2  659   0.435   0.596   4.855  0.1584 -0.2309  0.0931
  220BENZ    R3  660   0.172   0.586   4.919  0.1381  0.2779  0.1329
  221BENZ    R1  661   3.245   0.772   2.616 -0.1222  0.1998  0.2899
  221BENZ    R2  662   3.492   0.770   2.507 -0.3046  0.1697 -0.1444
  221BENZ    R3  663   3.452   0.663   2.751  0.1135  0.2059 -0.0516
  222BENZ    R1  664   1.673   1.622   0.512 -0.1481  0.0707 -0.1607
  222BENZ    R2  665   1.517   1.631   0.292 -0.1682 -0.1553 -0.1577
  222BENZ    R3  666   1.419   1.710   0.531 -0.1117  0.1974 -0.2458
  223BENZ    R1  667   1.161   1.935   2.863  0.0265  0.0176  0.1295
  223BENZ    R2  668   1.230   2.176   2.965  0.2222 -0.0476  0.1554
  223BENZ    R3  669   1.284   2.118   2.707  0.0089  0.0020  0.0972
  224BENZ    R1  670   4.373   2.918   2.844 -0.1269  0.0170  0.1172
  224BENZ    R2  671   4.278   2.726   2.679  0.2219  0.1006 -0.1942
  224BENZ    R3  672   4.469   2.666   2.861  0.1550  0.1016 -0.1235
  225BENZ    R1  673   0.918   2.945   2.124  0.3040  0.2135  0.0183
  225BENZ    R2  674   1.101   2.783   2.010  0.1278 -0.0067  0.0430
  225BENZ    R3  675   0.854   2.806   1.902  0.1502  0.2461  0.0409
  226BENZ    R1  676   1.881   1.255   1.518 -0.2107 -0.1458 -0.1886
  226BENZ    R2  677   1.896   1.327   1.259  0.0460  0.1189 -0.1057
  226BENZ    R3  678   2.038   1.116   1.349 -0.0084  0.0545 -0.1692
  227BENZ    R1  679   4.490   4.478   1.555 -0.1709 -0.0323 -0.0082
  227BENZ    R2  680   4.591   4.728   1.549  0.3137 -0.2202 -0.2039
  227BENZ    R3  681   4.524   4.604   1.319  0.0173 -0.2535 -0.1040
  228BENZ    R1  682   2.728   3.433   1.765 -0.0271  0.2103  0.2213
  228BENZ    R2  683   2.901   3.621   1.679  0.2656 -0.0161  0.3025
  228BENZ    R3  684   2.850   3.404   1.526 -0.1394  0.1657  0.1683
  229BENZ    R1  685   2.004   4.370   1.862 -0.2177  0.1155 -0.2165
  229BENZ    R2  686   1.899   4.478   2.086  0.0342  0.1626 -0.1177
  229BENZ    R3  687   1.776   4.513   1.848 -0.2467  0.0953  0.0135
  230BENZ    R1  688   1.204   0.435   3.480  0.0894 -0.0234 -0.2858
  230BENZ    R2  689   1.302   0.188   3.530 -0.1715 -0.0702  0.0175
  230BENZ    R3  690   1.330   0.385   3.713  0.1021  0.1515 -0.2539
  231BENZ    R1  691   1.696   0.185   3.941 -0.0647  0.1529  0.0962
  231BENZ    R2  692   1.862   0.336   3.791 -0.0534 -0.1024 -0.1568
  231BENZ    R3  693   1.716   0.140   3.676 -0.2389 -0.1379  0.1274
  232BENZ    R1  694   3.896   1.644   4.654  0.0920  0.0422  0.1709
  232BENZ    R2  695   4.024   1.416   4.590  0.0908  0.0338  0.1986
  232BENZ    R3  696   4.162   1.622   4.695  0.0863  0.0343  0.2034
  233BENZ    R1  697   3.886   0.747   0.894 -0.1520  0.4365 -0.0864
  233BENZ    R2  698   3.759   0.662   1.116  0.0496 -0.0003 -0.1278
  233BENZ    R3  699   3.616   0.741   0.901 -0.1485  0.4800  0.1649
  234BENZ    R1  700   0.518   4.855   0.777 -0.2002 -0.0359  0.0476
  234BENZ    R2  701   0.523   4.641   0.942  0.1432  0.0289  0.1298
  234BENZ    R3  702   0.753   4.767   0.878  0.0274 -0.0220 -0.4422
  235BENZ    R1  703   3.015   0.683   0.323 -0.0570 -0.1294 -0.0505
  235BENZ    R2  704   3.213   0.506   0.371 -0.1203 -0.0784  0.4544
  235BENZ    R3  705   2.975   0.420   0.276 -0.0397 -0.2153  0.3722
  236BENZ    R1  706   3.005   2.651   1.072  0.0190  0.2004 -0.0658
  236BENZ    R2  707   2.849   2.844   0.967 -0.2757 -0.0789 -0.1578
  236BENZ    R3  708   2.999   2.690   0.804  0.1840  0.2475 -0.0640
  237BENZ    R1  709   4.824   3.657   1.099  0.1481 -0.0068  0.0558
  237BENZ    R2  710   4.735   3.847   1.270 -0.2384  0.0717 -0.2182
  237BENZ    R3  711   4.646   3.593   1.292  0.1093 -0.0374  0.0104
  238BENZ    R1  712   4.368   1.847   3.981  0.1461 -0.0028 -0.1131
  238BENZ    R2  713   4.621   1.810   4.067  0.1126 -0.0880 -0.0501
  238BENZ    R3  714   4.523   1.657   3.867 -0.0609 -0.4298  0.2813
  239BENZ    R1  715   3.966   0.833   0.063 -0.4062 -0.1609  0.1410
  239BENZ    R2  716   3.919   0.914  -0.190 -0.1340  0.0679  0.1590
  239BENZ    R3  717   3.928   1.095   0.010 -0.0024 -0.0674  0.2782
  240BENZ    R1  718   0.879   0.810   0.054  0.2412 -0.0956  0.2042
  240BENZ    R2  719   0.860   0.645   0.266  0.1408 -0.2442  0.0821
  240BENZ    R3  720   0.797   0.906   0.293 -0.2352 -0.3371  0.1493
  241BENZ    R1  721   2.478   3.177   4.345  0.2251 -0.0405 -0.0737
  241BENZ    R2  722   2.700   3.304   4.260  0.0825  0.3056  0.0526
  241BENZ    R3  723   2.458   3.375   4.163  0.0222 -0.0774 -0.0943
  242BENZ    R1  724   2.104   1.826   4.052 -0.3896  0.3184 -0.2371
  242BENZ    R2  725   1.964   1.646   3.907 -0.0705 -0.2523  0.1243
  242BENZ    R3  726   2.189   1.757   3.805 -0.2025 -0.1439 -0.0551
  243BENZ    R1  727   2.728   2.576   2.682  0.0315  0.0070  0.0978
  243BENZ    R2  728   2.596   2.379   2.553  0.0932 -0.1421  0.2601
  243BENZ    R3  729   2.783   2.523   2.423 -0.1074 -0.0421  0.0777
  244BENZ    R1  730   3.601   0.612   4.241  0.0927  0.0335 -0.0502
  244BENZ    R2  731   3.566   0.815   4.066 -0.1077 -0.1259 -0.1998
  244BENZ    R3  732   3.628   0.868   4.323  0.1501  0.1127 -0.3055
  245BENZ    R1  733   3.144   3.129   3.441  0.3347  0.0912 -0.0035
  245BENZ    R2  734   3.139   3.146   3.172  0.3153  0.2598  0.0065
  245BENZ    R3  735   2.908   3.154   3.312  0.3043 -0.0846  0.0159
  246BENZ    R1  736   4.767   1.172   2.693 -0.1496  0.0230  0.0408
  246BENZ    R2  737   4.804   1.262   2.441  0.0203 -0.0585  0.0350
  246BENZ    R3  738   4.804   0.997   2.490 -0.0362 -0.0434  0.1182
  247BENZ    R1  739   2.502   1.758   3.163  0.0149  0.0671 -0.3735
  247BENZ    R2  740   2.235   1.723   3.170  0.0406 -0.0952  0.0842
  247BENZ    R3  741   2.393   1.531   3.064 -0.0154 -0.0389 -0.1045
  248BENZ    R1  742   0.987   2.302   4.131  0.2306  0.2998 -0.2740
  248BENZ    R2  743   1.252   2.274   4.175  0.1772 -0.0871 -0.1594
  248BENZ    R3  744   1.074   2.176   4.354 -0.0445  0.0342 -0.3089
  249BENZ    R1  745   3.337   1.566   0.587 -0.1122  0.1497  0.1002
  249BENZ    R2  746   3.572   1.622   0.467 -0.1065 -0.1298 -0.0270
  249BENZ    R3  747   3.342   1.644   0.328 -0.1028 -0.4217 -0.0868
  250BENZ    R1  748   3.461   0.788   1.629  0.1233  0.0649 -0.1617
  250BENZ    R2  749   3.721   0.840   1.685  0.0668  0.0940  0.0863
  250BENZ    R3  750   3.604   0.615   1.779 -0.0414  0.1606  0.1134
  251BENZ    R1  751   3.065   2.282   4.408  0.0095  0.1327  0.1123
  251BENZ    R2  752   2.994   2.060   4.271  0.1562  0.3371 -0.3138
  251BENZ    R3  753   2.913   2.093   4.527 -0.0560 -0.0972 -0.3163
  252BENZ    R1  754   3.687   1.127   1.071  0.0037  0.3063  0.2022
  252BENZ    R2  755   3.554   1.349   0.994 -0.1678  0.1656  0.0844
  252BENZ    R3  756   3.663   1.187   0.809  0.1820  0.2842  0.1800
  253BENZ    R1  757   3.571   3.448   1.165  0.1553  0.2829  0.3027
  253BENZ    R2  758   3.835   3.482   1.209  0.2031  0.2443  0.0602
  253BENZ    R3  759   3.746   3.259   1.085  0.0867  0.3863 -0.1176
  254BENZ    R1  760   0.809   1.313   1.288 -0.1636  0.0319 -0.0237
  254BENZ    R2  761   0.911   1.267   1.042  0.3024  0.4769  0.0679
  254BENZ    R3  762   1.072   1.262   1.258 -0.1592 -0.2696  0.4372
  255BENZ    R1  763   4.192   1.101   1.968 -0.1497 -0.1247  0.2992
  255BENZ    R2  764   4.005   1.164   1.784  0.2615  0.3115  0.0060
  255BENZ    R3  765   3.966   1.228   2.043 -0.0222  0.3270 -0.0372
  256BENZ    R1  766   0.641   4.255   3.205 -0.0972 -0.0993  0.1357
  256BENZ    R2  767   0.712   4.116   2.985  0.1766  0.2750 -0.0224
  256BENZ    R3  768   0.802   4.039   3.228 -0.0972 -0.1190 -0.0362
  257BENZ    R1  769   0.531   1.485   0.265 -0.1012 -0.1096  0.0795
  257BENZ    R2  770   0.270   1.506   0.331 -0.1082  0.0418  0.0074
  257BENZ    R3  771   0.424   1.727   0.314 -0.0296 -0.0242 -0.1694
  258BENZ    R1  772   1.553   1.040   0.240  0.0662 -0.0381 -0.0255
  258BENZ    R2  773   1.397   1.220   0.366 -0.0182 -0.0924 -0.0515
  258BENZ    R3  774   1.285   1.010   0.239  0.0840 -0.2130  0.0541
  259BENZ    R1  775   3.873   2.037   1.312  0.0621  0.0698  0.2452
  259BENZ    R2  776   3.911   2.086   1.049 -0.2872  0.1062  0.1969
  259BENZ    R3  777   4.113   2.125   1.224 -0.0320  0.0231 -0.0713
  260BENZ    R1  778   2.055   0.065   0.610  0.1803  0.1256 -0.0508
  260BENZ    R2  779   1.942   0.308   0.642 -0.0477  0.0576 -0.3044
  260BENZ    R3  780   2.119   0.267   0.442 -0.0587 -0.0014 -0.3022
  261BENZ    R1  781   4.267   4.289   1.084 -0.2412  0.1249 -0.3745
  261BENZ    R2  782   4.430   4.290   0.869  0.3287 -0.0057  0.0343
  261BENZ    R3  783   4.515   4.184   1.103 -0.3442 -0.0478  0.2814
  262BENZ    R1  784   0.829   1.836   3.165 -0.2367 -0.0265  0.3179
  262BENZ    R2  785   0.726   1.954   2.946  0.1033 -0.2920  0.0027
  262BENZ    R3  786   0.831   2.105   3.143 -0.3002 -0.0460  0.0424
  263BENZ    R1  787   1.593   2.969   3.724 -0.0726  0.1322 -0.1501
  263BENZ    R2  788   1.701   3.216   3.734  0.0006  0.0930  0.1075
  263BENZ    R3  789   1.457   3.180   3.624  0.0519  0.2545 -0.0655
  264BENZ    R1  790   2.463   3.886   4.139 -0.0862  0.1283 -0.0576
  264BENZ    R2  791   2.227   3.997   4.068 -0.1363 -0.0028 -0.0987
  264BENZ    R3  792   2.290   3.968   4.329 -0.2085 -0.0558 -0.0868
  265BENZ    R1  793   4.825   1.247   1.102  0.0113  0.1337 -0.3261
  265BENZ    R2  794   5.071   1.183   1.192  0.0283  0.1594 -0.3540
  265BENZ    R3  795   4.992   1.104   0.946 -0.1810 -0.2968 -0.1520
  266BENZ    R1  796   2.500   3.179   0.152  0.1628  0.0539 -0.1007
  266BENZ    R2  797   2.455   3.118  -0.107  0.1801  0.0985 -0.1143
  266BENZ    R3  798   2.564   2.935   0.058  0.2382  0.0949 -0.1567
  267BENZ    R1  799   3.555   4.167   3.667  0.0425 -0.0950 -0.0839
  267BENZ    R2  800   3.614   4.357   3.483 -0.0283 -0.2837 -0.3057
  267BENZ    R3  801   3.357   4.288   3.529 -0.0301 -0.0628  0.0477
  268BENZ    R1  802   0.754   1.757   3.607 -0.0670  0.0930 -0.1163
  268BENZ    R2  803   0.980   1.626   3.673 -0.1057 -0.0272 -0.2172
  268BENZ    R3  804   0.974   1.896   3.679  0.1105 -0.0138 -0.4299
  269BENZ    R1  805   3.499   0.020   4.687 -0.1531 -0.1768  0.2417
  269BENZ    R2  806   3.500  -0.250   4.682 -0.0157 -0.1754  0.1143
  269BENZ    R3  807   3.573  -0.111   4.462 -0.0838 -0.0341  0.1799
  270BENZ    R1  808   1.460   1.099   1.374 -0.2977  0.1993 -0.0811
  270BENZ    R2  809   1.567   1.001   1.146 -0.1238  0.1074  0.0376
  270BENZ    R3  810   1.378   0.860   1.278 -0.0919  0.0741  0.0479
  271BENZ    R1  811   2.187   0.566   4.315  0.1777  0.0461 -0.1653
  271BENZ    R2  812   2.122   0.330   4.429  0.2737  0.0521 -0.0972
  271BENZ    R3  813   1.949   0.452   4.262  0.0668  0.1161  0.1571
  272BENZ    R1  814   3.017   1.857   0.071  0.1264  0.1956 -0.1700
  272BENZ    R2  815   2.902   1.908   0.310  0.2097 -0.0647 -0.0705
  272BENZ    R3  816   2.802   2.019   0.085  0.1295  0.1816  0.0832
  273BENZ    R1  817   2.252   0.578   2.107 -0.1475 -0.0458 -0.1674
  273BENZ    R2  818   2.333   0.458   2.335  0.1023  0.2381 -0.1007
  273BENZ    R3  819   2.081   0.422   2.246  0.0728 -0.0644  0.0919
  274BENZ    R1  820   3.630   3.716   2.469  0.1158 -0.1406 -0.0484
  274BENZ    R2  821   3.676   3.451   2.494  0.1844 -0.1522 -0.2748
  274BENZ    R3  822   3.790   3.590   2.292 -0.0107  0.0103 -0.2767
  275BENZ    R1  823   4.275   2.809   1.162  0.1739 -0.1519 -0.0107
  275BENZ    R2  824   4.327   2.684   1.396  0.2171  0.0537  0.0915
  275BENZ    R3  825   4.379   2.560   1.162  0.5137 -0.0160  0.1899
  276BENZ    R1  826   4.400   2.754   1.945 -0.0227  0.0347 -0.3218
  276BENZ    R2  827   4.474   2.498   1.901 -0.0966 -0.1082  0.2940
  276BENZ    R3  828   4.657   2.696   1.885  0.0689 -0.2598  0.2791
  277BENZ    R1  829   0.027   3.556   3.765 -0.2795 -0.1212 -0.0962
  277BENZ    R2  830   0.133   3.370   3.600 -0.4554 -0.1147 -0.2191
  277BENZ    R3  831  -0.004   3.294   3.820 -0.0339 -0.1221  0.0509
  278BENZ    R1  832   0.830   3.747   0.876  0.0336  0.1224  0.1881
  278BENZ    R2  833   1.008   3.763   1.079  0.0730 -0.2287  0.1878
  278BENZ    R3  834   0.927   3.522   0.989  0.4495 -0.1073 -0.5582
  279BENZ    R1  835   2.251   0.365   1.220  0.0058 -0.1330  0.1925
  279BENZ    R2  836   2.026   0.273   1.336 -0.1276 -0.1539 -0.0752
  279BENZ    R3  837   2.041   0.292   1.067  0.0672  0.1682 -0.0459
  280BENZ    R1  838   1.171   4.466   1.214  0.0421  0.1742  0.0777
  280BENZ    R2  839   0.926   4.369   1.157  0.1127 -0.1090  0.2383
  280BENZ    R3  840   0.956   4.559   1.347  0.0226 -0.1029  0.2469
  281BENZ    R1  841   0.247   4.046   2.667 -0.1592 -0.0337  0.1622
  281BENZ    R2  842   0.346   4.018   2.418 -0.1055 -0.2088  0.2024
  281BENZ    R3  843   0.496   4.134   2.610 -0.0717 -0.2514  0.2019
  282BENZ    R1  844   1.377   3.514   2.305 -0.2884 -0.1656 -0.0672
  282BENZ    R2  845   1.577   3.342   2.360 -0.0688  0.0678 -0.1168
  282BENZ    R3  846   1.633   3.600   2.303 -0.3969  0.1768  0.0323
  283BENZ    R1  847   1.627   3.730   3.452  0.0221  0.2465 -0.2003
  283BENZ    R2  848   1.456   3.938   3.432 -0.0100  0.2406 -0.0073
  283BENZ    R3  849   1.368   3.701   3.525  0.0164  0.1256 -0.2655
  284BENZ    R1  850   0.564   0.191   1.227 -0.1026 -0.0676  0.2577
  284BENZ    R2  851   0.704   0.259   1.447  0.2891 -0.0247  0.0055
  284BENZ    R3  852   0.815   0.098   1.261 -0.1358 -0.2810 -0.0387
  285BENZ    R1  853   0.735   2.937   4.712 -0.2329 -0.1359 -0.1184
  285BENZ    R2  854   0.787   2.764   4.511  0.3486 -0.0772 -0.0350
  285BENZ    R3  855   0.794   3.030   4.465 -0.5371 -0.0448 -0.1617
  286BENZ    R1  856   1.176   3.290   2.662  0.1228  0.0060 -0.2150
  286BENZ    R2  857   0.985   3.361   2.486 -0.2250  0.3911  0.2896
  286BENZ    R3  858   1.161   3.167   2.422 -0.6633  0.1472 -0.2633
  287BENZ    R1  859   0.463   3.725   4.430  0.1794  0.0782  0.2151
  287BENZ    R2  860   0.362   3.974   4.459  0.1517  0.0594  0.2824
  287BENZ    R3  861   0.583   3.935   4.309 -0.1310  0.0545 -0.1509
  288BENZ    R1  862   2.469   2.060   4.306 -0.4463 -0.1362 -0.0560
  288BENZ    R2  863   2.562   2.041   4.053  0.2005  0.0720  0.1452
  288BENZ    R3  864   2.566   1.825   4.215  0.1192  0.0258  0.0866
  289BENZ    R1  865   1.767   4.428   4.018  0.0582 -0.0212 -0.2074
  289BENZ    R2  866   1.978   4.388   3.855  0.2361  0.3084 -0.0682
  289BENZ    R3  867   2.014   4.398   4.122  0.0390  0.3409 -0.0411
  290BENZ    R1  868   3.122   2.289   2.830 -0.2060  0.1200  0.0242
  290BENZ    R2  869   3.349   2.435   2.819  0.0435 -0.2620 -0.1089
  290BENZ    R3  870   3.140   2.499   2.660  0.0577  0.0834  0.0019
  291BENZ    R1  871   3.396   4.394   4.281 -0.0896 -0.3797  0.0408
  291BENZ    R2  872   3.554   4.177   4.256  0.1330 -0.2103 -0.0564
  291BENZ    R3  873   3.589   4.388   4.092  0.0532 -0.0193  0.1678
  292BENZ    R1  874   4.680   2.054   3.613 -0.0504 -0.1385  0.0152
  292BENZ    R2  875   4.940   1.989   3.643  0.0743  0.3056 -0.0340
  292BENZ    R3  876   4.807   1.913   3.420  0.0971 -0.0998  0.0829
  293BENZ    R1  877   3.956   4.875   4.777 -0.0694  0.2114  0.0651
  293BENZ    R2  878   4.035   4.633   4.869 -0.0698  0.1344 -0.1328
  293BENZ    R3  879   4.032   4.846   5.034 -0.0236  0.0095  0.0310
  294BENZ    R1  880   2.956   0.006   0.060  0.0744 -0.2622  0.0697
  294BENZ    R2  881   3.136  -0.194   0.036  0.0744 -0.2066 -0.5623
  294BENZ    R3  882   3.217   0.051   0.114  0.1765 -0.3031 -0.3556
  295BENZ    R1  883   0.277   0.813   3.542  0.0678  0.1553 -0.1575
  295BENZ    R2  884   0.176   0.766   3.788  0.4552 -0.1245 -0.0410
  295BENZ    R3  885   0.254   1.015   3.719 -0.0024  0.0334 -0.0253
  296BENZ    R1  886   4.453   1.353   1.659  0.1372 -0.1914 -0.0955
  296BENZ    R2  887   4.477   1.130   1.509  0.1082 -0.0674 -0.2875
  296BENZ    R3  888   4.683   1.304   1.526  0.1214 -0.0947 -0.1589
  297BENZ    R1  889   1.677   4.024   2.136 -0.1980 -0.1529 -0.4572
  297BENZ    R2  890   1.477   3.998   2.315  0.0751 -0.1087 -0.1363
  297BENZ    R3  891   1.491   4.219   2.160 -0.0784 -0.0740 -0.1026
  298BENZ    R1  892   1.197   3.804   3.052  0.2022  0.1385 -0.0104
  298BENZ    R2  893   1.031   3.663   3.211  0.5130 -0.2472 -0.0119
  298BENZ    R3  894   1.004   3.650   2.942  0.1956  0.1448 -0.0075
  299BENZ    R1  895   0.907   0.709   1.546 -0.0709 -0.0319  0.2241
  299BENZ    R2  896   0.970   0.972   1.552  0.2281 -0.0854 -0.1597
  299BENZ    R3  897   1.130   0.792   1.674  0.2451 -0.1262 -0.2419
  300BENZ    R1  898   3.123   4.300   3.930 -0.0617  0.0983 -0.1820
  300BENZ    R2  899   2.970   4.114   4.051 -0.0132 -0.0275 -0.3121
  300BENZ    R3  900   3.222   4.054   3.975  0.1268  0.1973 -0.0434
  301BENZ    R1  901   4.115   0.763   1.363  0.1976  0.1362 -0.3272
  301BENZ    R2  902   4.264   0.539   1.340 -0.2478 -0.1860 -0.2255
  301BENZ    R3  903   4.261   0.721   1.140  0.3987 -0.0788 -0.1607
  302BENZ    R1  904   3.222   3.365   2.224  0.1277  0.0844 -0.0814
  302BENZ    R2  905   3.398   3.525   2.097 -0.0259  0.2671 -0.0682
  302BENZ    R3  906   3.146   3.501   2.004 -0.0665  0.2032  0.0556
  303BENZ    R1  907   1.436   4.145   1.705 -0.1688  0.3865 -0.0834
  303BENZ    R2  908   1.693   4.175   1.628 -0.1611 -0.0675 -0.2654
  303BENZ    R3  909   1.500   4.135   1.443 -0.3658  0.2431 -0.1286
  304BENZ    R1  910   2.563   2.880   1.439  0.1709 -0.1850 -0.0166
  304BENZ    R2  911   2.493   2.705   1.632 -0.1395 -0.1920 -0.1300
  304BENZ    R3  912   2.490   2.970   1.683 -0.0963 -0.1994 -0.0883
  305BENZ    R1  913   1.420   2.785   2.316  0.0959  0.2535  0.5105
  305BENZ    R2  914   1.500   2.961   2.127 -0.2240 -0.0335  0.0905
  305BENZ    R3  915   1.674   2.779   2.225 -0.1006 -0.0021 -0.0677
  306BENZ    R1  916   1.852   3.348   3.277 -0.0292  0.2098 -0.2962
  306BENZ    R2  917   2.081   3.247   3.174 -0.0393  0.1846 -0.2941
  306BENZ    R3  918   2.046   3.515   3.190  0.0777  0.1898 -0.1025
  307BENZ    R1  919   1.796   0.892   4.682 -0.0863  0.1460  0.0388
  307BENZ    R2  920   1.826   0.624   4.656 -0.0786  0.1350  0.1539
  307BENZ    R3  921   1.615   0.749   4.542  0.1603  0.1488 -0.2950
  308BENZ    R1  922   0.592   2.589   0.144 -0.2092 -0.2020  0.0074
  308BENZ    R2  923   0.756   2.776   0.249 -0.1764 -0.1540 -0.1268
  308BENZ    R3  924   0.518   2.725   0.365 -0.2310  0.0450 -0.1476
  309BENZ    R1  925   2.541   0.022   0.355 -0.3015 -0.1117  0.0734
  309BENZ    R2  926   2.495  -0.028   0.616 -0.0257 -0.1173  0.1241
  309BENZ    R3  927   2.734   0.070   0.538 -0.1556  0.0207 -0.1113
  310BENZ    R1  928   4.344   1.249   2.825 -0.1191  0.1738 -0.0498
  310BENZ    R2  929   4.252   1.313   3.071 -0.0267 -0.3454  0.1337
  310BENZ    R3  930   4.084   1.209   2.886 -0.1611  0.3056 -0.1388
  311BENZ    R1  931   0.846   1.545   2.405  0.0426  0.0951 -0.1984
  311BENZ    R2  932   0.936   1.782   2.496  0.0906  0.0099 -0.0182
  311BENZ    R3  933   0.820   1.608   2.666 -0.0717 -0.0391 -0.1761
  312BENZ    R1  934   4.509   3.841   3.756  0.2417  0.1034 -0.4112
  312BENZ    R2  935   4.422   3.675   3.562 -0.2150 -0.1707  0.0065
  312BENZ    R3  936   4.292   3.686   3.799  0.2655  0.2275  0.2692
  313BENZ    R1  937   0.225   2.645   0.680  0.0825  0.0259 -0.0119
  313BENZ    R2  938   0.383   2.426   0.696  0.0793  0.0522  0.5871
  313BENZ    R3  939   0.132   2.404   0.600  0.2450 -0.0983  0.1631
  314BENZ    R1  940   0.424   0.855   2.995 -0.1392 -0.2932  0.1556
  314BENZ    R2  941   0.247   0.891   2.794 -0.0489 -0.2593  0.0815
  314BENZ    R3  942   0.227   0.675   2.954 -0.0463 -0.3532 -0.0434
  315BENZ    R1  943   4.247   0.313   3.165  0.0213  0.0010 -0.2335
  315BENZ    R2  944   4.467   0.235   3.301 -0.2296 -0.0601  0.1517
  315BENZ    R3  945   4.431   0.155   3.045  0.1301 -0.1544  0.1254
  316BENZ    R1  946   2.793   3.566   0.570 -0.1579  0.0555  0.1962
  316BENZ    R2  947   2.818   3.771   0.396 -0.0359  0.0380  0.1925
  316BENZ    R3  948   2.661   3.560   0.334 -0.1349  0.1141  0.1816
  317BENZ    R1  949   4.369   1.147   4.753 -0.2190  0.1967 -0.0587
  317BENZ    R2  950   4.403   1.357   4.920  0.1997  0.2070 -0.1447
  317BENZ    R3  951   4.424   1.105   5.014  0.2065  0.2101 -0.1378
  318BENZ    R1  952   2.570   3.218   1.083  0.0686  0.1230 -0.0198
  318BENZ    R2  953   2.803   3.330   1.004  0.0763  0.0434 -0.1120
  318BENZ    R3  954   2.621   3.251   0.820  0.1766 -0.3186 -0.0633
  319BENZ    R1  955   4.060   3.887   4.399 -0.1673  0.0439 -0.0416
  319BENZ    R2  956   4.286   3.974   4.280 -0.2311  0.1617 -0.0780
  319BENZ    R3  957   4.174   3.741   4.202  0.0135 -0.0247  0.1106
  320BENZ    R1  958   3.100   2.128   2.414 -0.2496 -0.0606  0.0246
  320BENZ    R2  959   3.244   2.012   2.218 -0.2493  0.0365 -0.0333
  320BENZ    R3  960   3.074   1.864   2.366 -0.3195 -0.0200 -0.1691
  321BENZ    R1  961   3.423   1.177   0.395 -0.3835  0.1172  0.0123
  321BENZ    R2  962   3.391   0.932   0.286  0.3053  0.0046  0.0192
  321BENZ    R3  963   3.466   1.140   0.131  0.1010  0.1273  0.0814
  322BENZ    R1  964   2.659   0.932   1.356  0.0967 -0.1489  0.0782
  322BENZ    R2  965   2.397   0.867   1.353 -0.0046  0.2310  0.1869
  322BENZ    R3  966   2.577   0.703   1.237 -0.2932 -0.0102  0.0640
  323BENZ    R1  967   3.858   0.813   2.868  0.1070 -0.0637 -0.1230
  323BENZ    R2  968   3.883   0.564   2.968 -0.0479  0.1274  0.4248
  323BENZ    R3  969   4.098   0.689   2.863 -0.0218 -0.3199 -0.0981
  324BENZ    R1  970   4.572   4.052   2.869  0.0055 -0.2299  0.3937
  324BENZ    R2  971   4.315   4.031   2.951 -0.1151  0.0697  0.1143
  324BENZ    R3  972   4.406   3.875   2.750 -0.2150  0.2754 -0.0955
  325BENZ    R1  973   4.685   3.050   4.741  0.4567  0.1042 -0.1257
  325BENZ    R2  974   4.607   2.869   4.557  0.0461 -0.0825  0.2138
  325BENZ    R3  975   4.462   3.094   4.595  0.5069  0.2993 -0.1470
  326BENZ    R1  976   0.678   3.300   4.097 -0.0398 -0.0213  0.0128
  326BENZ    R2  977   0.909   3.411   4.182 -0.0132 -0.1178  0.0678
  326BENZ    R3  978   0.714   3.567   4.082  0.0482 -0.0282  0.0866
  327BENZ    R1  979   4.600   2.117   0.262  0.1763 -0.1289  0.0051
  327BENZ    R2  980   4.399   2.296   0.244 -0.1213 -0.3926  0.4837
  327BENZ    R3  981   4.634   2.369   0.354 -0.0390 -0.1557  0.1669
  328BENZ    R1  982   2.564   0.657   0.822  0.3369 -0.3613  0.1877
  328BENZ    R2  983   2.642   0.538   0.593  0.1071 -0.0344 -0.0696
  328BENZ    R3  984   2.430   0.442   0.730  0.2997 -0.2846  0.0602
  329BENZ    R1  985   3.542   1.963   1.711  0.1704  0.1744 -0.1433
  329BENZ    R2  986   3.274   1.965   1.738  0.1345  0.0021 -0.4487
  329BENZ    R3  987   3.414   2.194   1.770 -0.0247  0.0574 -0.1008
  330BENZ    R1  988   3.147   0.494   0.967  0.1810  0.0976  0.0988
  330BENZ    R2  989   2.983   0.329   0.830  0.2641 -0.0077  0.1244
  330BENZ    R3  990   2.912   0.417   1.075  0.1677  0.0881  0.0636
  331BENZ    R1  991   3.272   3.325   0.845  0.3445  0.1519  0.1944
  331BENZ    R2  992   3.207   3.585   0.811 -0.0936  0.0321  0.0474
  331BENZ    R3  993   3.250   3.428   0.596  0.1294 -0.0302  0.1351
  332BENZ    R1  994   1.719   2.337   4.073 -0.0437  0.1977 -0.1195
  332BENZ    R2  995   1.544   2.482   3.928 -0.1798 -0.0999 -0.2614
  332BENZ    R3  996   1.729   2.330   3.803 -0.0414 -0.0542 -0.1154
  333BENZ    R1  997   0.027   4.140   1.735  0.0264 -0.1552  0.2132
  333BENZ    R2  998   0.291   4.198   1.745 -0.0058 -0.0145  0.2622
  333BENZ    R3  999   0.166   4.101   1.964 -0.0613  0.2191  0.3379
  334BENZ    R1 1000   2.859   4.331   3.249 -0.1063 -0.1264 -0.0018
  334BENZ    R2 1001   2.890   4.225   3.002  0.0266 -0.0773 -0.0066
  334BENZ    R3 1002   2.645   4.235   3.115 -0.0668  0.0731 -0.2158
  335BENZ    R1 1003   2.242   4.870   1.564 -0.4598  0.0751 -0.2091
  335BENZ    R2 1004   2.167   4.629   1.469 -0.1257 -0.0035 -0.2884
  335BENZ    R3 1005   2.378   4.648   1.636 -0.2204  0.2240 -0.1911
  336BENZ    R1 1006   1.315   2.076   1.542  0.3196  0.0732 -0.0784
  336BENZ    R2 1007   1.503   2.245   1.447  0.1986  0.2983  0.0741
  336BENZ    R3 1008   1.311   2.151   1.283  0.1561  0.4602  0.0294
  337BENZ    R1 1009   2.055   3.967   3.355  0.0268  0.3639  0.1720
  337BENZ    R2 1010   2.297   4.054   3.272  0.2992 -0.1423  0.3912
  337BENZ    R3 1011   2.230   4.070   3.533 -0.0067  0.2035  0.2997
  338BENZ    R1 1012   2.356   3.797   0.641 -0.0955 -0.1061  0.1358
  338BENZ    R2 1013   2.507   4.020   0.658 -0.0228 -0.1489  0.0576
  338BENZ    R3 1014   2.269   4.009   0.785  0.0075 -0.0552  0.1242
  339BENZ    R1 1015   2.066   2.212   4.249  0.0772 -0.1011 -0.1879
  339BENZ    R2 1016   1.914   2.329   4.439  0.0204 -0.0268 -0.2777
  339BENZ    R3 1017   2.178   2.383   4.426  0.0617 -0.1769 -0.1046
  340BENZ    R1 1018   3.902   3.185   2.968 -0.1399 -0.0244  0.1751
  340BENZ    R2 1019   3.847   3.048   2.742 -0.1233  0.1661  0.0534
  340BENZ    R3 1020   4.043   3.233   2.743 -0.1134  0.1564  0.2289
  341BENZ    R1 1021   3.661   3.818   0.260  0.1097  0.1001  0.0111
  341BENZ    R2 1022   3.491   3.766   0.464 -0.2540  0.1448 -0.2687
  341BENZ    R3 1023   3.504   4.014   0.358 -0.2350  0.0701 -0.4448
  342BENZ    R1 1024   4.123   2.899   0.083 -0.2296  0.0298  0.0233
  342BENZ    R2 1025   4.267   2.686  -0.001 -0.5085 -0.1519 -0.0068
  342BENZ    R3 1026   4.308   2.789   0.246 -0.1920 -0.0734 -0.0876
  343BENZ    R1 1027   1.722   3.002   1.077 -0.0533  0.1796  0.0636
  343BENZ    R2 1028   1.703   3.271   1.062  0.0393  0.1791 -0.0925
  343BENZ    R3 1029   1.723   3.150   1.303 -0.0357  0.3090 -0.0197
  344BENZ    R1 1030   1.024   4.074   1.531  0.0190 -0.0727  0.3796
  344BENZ    R2 1031   0.883   3.845   1.556  0.1559 -0.1555  0.4056
  344BENZ    R3 1032   0.775   4.080   1.635 -0.1771 -0.1365 -0.0630
  345BENZ    R1 1033   3.174   4.038   0.719  0.1777  0.0977 -0.0934
  345BENZ    R2 1034   3.181   4.291   0.627  0.3757  0.1629  0.0927
  345BENZ    R3 1035   2.945   4.179   0.695  0.3001  0.3421  0.1318
  346BENZ    R1 1036   1.011   4.236   0.749  0.1285  0.0901  0.0906
  346BENZ    R2 1037   0.842   4.403   0.621  0.0375  0.0589  0.1685
  346BENZ    R3 1038   0.744   4.205   0.777  0.1459  0.1928  0.4118
  347BENZ    R1 1039   3.528   4.561   0.208 -0.1046  0.1434 -0.0739
  347BENZ    R2 1040   3.650   4.764   0.339 -0.0273  0.0637 -0.0213
  347BENZ    R3 1041   3.552   4.553   0.477  0.0260 -0.0060 -0.0884
  348BENZ    R1 1042   4.304   3.428   1.787  0.1149 -0.3734 -0.1151
  348BENZ    R2 1043   4.534   3.485   1.917  0.0300 -0.0016 -0.1166
  348BENZ    R3 1044   4.439   3.232   1.916  0.0864 -0.0388  0.4607
  349BENZ    R1 1045   2.243   3.257   2.701  0.2296 -0.0092 -0.1188
  349BENZ    R2 1046   1.992   3.250   2.602  0.0406 -0.0314  0.3367
  349BENZ    R3 1047   2.169   3.428   2.505 -0.1571  0.0071  0.0306
  350BENZ    R1 1048   3.126   0.703   4.281 -0.1215  0.1335  0.0134
  350BENZ    R2 1049   3.028   0.729   4.031  0.1369  0.2464 -0.0790
  350BENZ    R3 1050   3.133   0.943   4.158 -0.0827  0.2125  0.1675
  351BENZ    R1 1051   4.719   2.605   2.391 -0.1211 -0.1655  0.3225
  351BENZ    R2 1052   4.754   2.816   2.556 -0.1429 -0.0018  0.1230
  351BENZ    R3 1053   4.599   2.841   2.337  0.2672 -0.0668 -0.1869
  352BENZ    R1 1054   1.887   1.930   0.216  0.1164  0.1459  0.1052
  352BENZ    R2 1055   1.831   2.103   0.017 -0.3530 -0.1202 -0.0102
  352BENZ    R3 1056   1.706   2.127   0.256  0.0069  0.0340  0.1707
  353BENZ    R1 1057   4.128   1.862   2.747 -0.1015 -0.1120 -0.0182
  353BENZ    R2 1058   3.872   1.836   2.664 -0.1553 -0.0504  0.1250
  353BENZ    R3 1059   4.002   1.624   2.772 -0.2319 -0.0165  0.2873
  354BENZ    R1 1060   2.372   1.430   4.059 -0.2766 -0.0057 -0.0259
  354BENZ    R2 1061   2.436   1.414   4.321  0.0565  0.2435 -0.0860
  354BENZ    R3 1062   2.178   1.398   4.244 -0.0371  0.0743  0.2459
  355BENZ    R1 1063   1.553   2.633   4.518  0.3007  0.0724  0.1132
  355BENZ    R2 1064   1.482   2.372   4.516  0.0860  0.1288  0.0480
  355BENZ    R3 1065   1.628   2.471   4.721  0.1021 -0.0244  0.1121
  356BENZ    R1 1066   0.545   1.090   0.659 -0.0694  0.0842  0.1564
  356BENZ    R2 1067   0.509   0.826   0.702 -0.1573  0.0939  0.1435
  356BENZ    R3 1068   0.742   0.944   0.772 -0.0460 -0.0246 -0.0218
  357BENZ    R1 1069   1.083   0.587   2.194 -0.3104  0.2235  0.3736
  357BENZ    R2 1070   0.955   0.531   1.962 -0.0307  0.1139  0.2406
  357BENZ    R3 1071   0.815   0.550   2.193 -0.2720 -0.0939  0.1166
  358BENZ    R1 1072   0.231   4.752   0.281 -0.0961  0.2759  0.0073
  358BENZ    R2 1073   0.224   4.914   0.066  0.0403  0.2345 -0.0292
  358BENZ    R3 1074   0.356   4.679   0.054 -0.3629 -0.0003 -0.0576
  359BENZ    R1 1075   1.464   2.659   1.767 -0.0086  0.0122 -0.0934
  359BENZ    R2 1076   1.550   2.654   1.511  0.0248  0.3492 -0.0934
  359BENZ    R3 1077   1.723   2.708   1.711  0.0591 -0.1860  0.0368
  360BENZ    R1 1078   1.759   1.978   0.771  0.0127  0.0616 -0.0850
  360BENZ    R2 1079   1.710   2.228   0.681  0.0262  0.2222  0.3339
  360BENZ    R3 1080   1.649   2.161   0.936  0.0626 -0.1924  0.2410
  361BENZ    R1 1081   0.311   2.221   3.045 -0.1408 -0.1953  0.0212
  361BENZ    R2 1082   0.088   2.070   3.018 -0.1492 -0.2163  0.1966
  361BENZ    R3 1083   0.328   1.951   3.058 -0.0769 -0.2013 -0.1609
  362BENZ    R1 1084   0.499   3.136   2.070 -0.1751  0.1485  0.0217
  362BENZ    R2 1085   0.562   3.284   2.286  0.0596  0.2567 -0.1164
  362BENZ    R3 1086   0.692   3.324   2.053  0.0276 -0.0713 -0.1950
  363BENZ    R1 1087   4.358   2.233   0.784  0.0790 -0.0653  0.1139
  363BENZ    R2 1088   4.268   2.465   0.680 -0.0231  0.0147  0.3711
  363BENZ    R3 1089   4.170   2.230   0.591  0.1020  0.0655  0.0887
  364BENZ    R1 1090   0.363   4.477   0.600  0.2631  0.0862  0.1050
  364BENZ    R2 1091   0.466   4.391   0.365  0.0008 -0.0110  0.0226
  364BENZ    R3 1092   0.209   4.335   0.429 -0.1087  0.5021  0.0777
  365BENZ    R1 1093   0.116   2.081   4.586 -0.0786 -0.1610 -0.2009
  365BENZ    R2 1094  -0.076   2.022   4.407 -0.0575 -0.2048 -0.2092
  365BENZ    R3 1095   0.131   1.853   4.443  0.1041 -0.0457 -0.3714
  366BENZ    R1 1096   4.391   4.479   0.465  0.0435 -0.1405  0.1142
  366BENZ    R2 1097   4.579   4.357   0.314  0.1214  0.0473  0.0568
  366BENZ    R3 1098   4.320   4.352   0.237  0.1488  0.0694 -0.0389
  367BENZ    R1 1099   4.437   0.534   4.106  0.1491 -0.1052 -0.0007
  367BENZ    R2 1100   4.663   0.425   4.007  0.0462 -0.1056 -0.2407
  367BENZ    R3 1101   4.452   0.471   3.844 -0.1294 -0.1093 -0.0191
  368BENZ    R1 1102   2.179   3.415   0.829  0.2413 -0.0682 -0.0632
  368BENZ    R2 1103   2.218   3.344   0.571 -0.0188 -0.1932 -0.0705
  368BENZ    R3 1104   1.981   3.450   0.648 -0.1149 -0.5874  0.2035
  369BENZ    R1 1105   0.048   2.399   3.886 -0.1864  0.0873  0.1097
  369BENZ    R2 1106  -0.117   2.291   4.070  0.0719 -0.0773  0.2516
  369BENZ    R3 1107   0.146   2.233   4.074  0.0257 -0.4408 -0.4320
  370BENZ    R1 1108   0.717   1.780   1.307 -0.0179  0.1148  0.0466
  370BENZ    R2 1109   0.882   1.707   1.106 -0.1811  0.1158 -0.0904
  370BENZ    R3 1110   0.985   1.798   1.339  0.0189 -0.2216 -0.0400
  371BENZ    R1 1111   2.319   1.018   0.917 -0.3232  0.0029 -0.1137
  371BENZ    R2 1112   2.451   1.214   1.049 -0.2378 -0.2466  0.1836
  371BENZ    R3 1113   2.562   1.098   0.831 -0.4249  0.2401 -0.1878
  372BENZ    R1 1114   3.610   2.736   3.317 -0.3539  0.1083 -0.0697
  372BENZ    R2 1115   3.603   2.559   3.114  0.2227 -0.0086 -0.0069
  372BENZ    R3 1116   3.547   2.819   3.068  0.0901 -0.0772 -0.2561
  373BENZ    R1 1117   1.021   4.839   4.575  0.1218  0.0553 -0.1761
  373BENZ    R2 1118   1.118   4.851   4.827 -0.1626 -0.1289 -0.0526
  373BENZ    R3 1119   1.178   4.641   4.669 -0.0723 -0.0663 -0.1027
  374BENZ    R1 1120   3.896   0.107   2.883 -0.2905  0.0693  0.4008
  374BENZ    R2 1121   3.733  -0.090   2.798 -0.1453  0.1246 -0.0255
  374BENZ    R3 1122   3.999  -0.105   2.753 -0.1224  0.3769  0.0101
  375BENZ    R1 1123   4.725   2.840   3.884 -0.0635  0.1539 -0.0153
  375BENZ    R2 1124   4.755   2.771   4.143 -0.2277  0.0462 -0.0238
  375BENZ    R3 1125   4.962   2.877   4.007 -0.1152  0.0222  0.1268
  376BENZ    R1 1126   1.240   2.080   0.648 -0.0412  0.2284  0.0609
  376BENZ    R2 1127   1.067   1.909   0.765 -0.0865 -0.1245 -0.4883
  376BENZ    R3 1128   1.116   2.149   0.877 -0.3184 -0.3338  0.0974
  377BENZ    R1 1129   4.003   2.316   4.616  0.1713 -0.0928 -0.1331
  377BENZ    R2 1130   4.061   2.258   4.873  0.3330 -0.0729 -0.1643
  377BENZ    R3 1131   3.920   2.083   4.724  0.2611 -0.0960 -0.0697
  378BENZ    R1 1132   3.327   3.017   1.211  0.2337  0.2102  0.1411
  378BENZ    R2 1133   3.069   3.072   1.268  0.1487 -0.2209  0.2061
  378BENZ    R3 1134   3.266   3.221   1.377 -0.0700  0.1966  0.0526
  379BENZ    R1 1135   3.986   2.716   3.819  0.2916 -0.1539 -0.0154
  379BENZ    R2 1136   3.783   2.539   3.837  0.3171 -0.1992 -0.1630
  379BENZ    R3 1137   3.919   2.565   3.606  0.2360  0.0985 -0.1803
  380BENZ    R1 1138   3.412   0.328   3.968  0.2100 -0.2528 -0.1190
  380BENZ    R2 1139   3.366   0.245   4.221  0.1890 -0.3757 -0.1625
  380BENZ    R3 1140   3.159   0.291   4.054  0.1884  0.0117 -0.0626
  381BENZ    R1 1141   2.118   2.890   3.589 -0.2612 -0.0344  0.3961
  381BENZ    R2 1142   1.923   2.704   3.575  0.0872 -0.3846 -0.2547
  381BENZ    R3 1143   1.984   2.852   3.358 -0.0908  0.4283  0.2102
  382BENZ    R1 1144   0.847   0.335   0.564 -0.1153 -0.0389 -0.0131
  382BENZ    R2 1145   1.008   0.204   0.736 -0.0611 -0.1748 -0.1642
  382BENZ    R3 1146   1.109   0.396   0.576 -0.0714 -0.1839 -0.1817
  383BENZ    R1 1147   3.106   4.352   2.307  0.2267 -0.2945  0.0930
  383BENZ    R2 1148   3.020   4.587   2.204 -0.2237 -0.3592  0.2963
  383BENZ    R3 1149   3.089   4.385   2.039  0.1505 -0.0991  0.1197
  384BENZ    R1 1150   1.512   0.563   4.056 -0.0115 -0.0381 -0.0552
  384BENZ    R2 1151   1.413   0.815   4.052  0.0433 -0.0110  0.1704
  384BENZ    R3 1152   1.667   0.770   4.133  0.0051 -0.1480  0.2174
  385BENZ    R1 1153   0.109   3.450   1.582  0.1484  0.0666 -0.2743
  385BENZ    R2 1154   0.193   3.702   1.533 -0.0736  0.1294 -0.3437
  385BENZ    R3 1155  -0.015   3.659   1.700  0.0165 -0.0153 -0.2662
  386BENZ    R1 1156   3.612   1.231   4.630  0.3803 -0.1205 -0.0917
  386BENZ    R2 1157   3.641   1.377   4.405 -0.1884  0.1879  0.0152
  386BENZ    R3 1158   3.407   1.253   4.456  0.0400 -0.1500  0.2918
  387BENZ    R1 1159   2.255   3.791   2.893  0.1400 -0.2189  0.2013
  387BENZ    R2 1160   2.465   3.909   2.770 -0.0515 -0.0367  0.0406
  387BENZ    R3 1161   2.251   4.056   2.843 -0.0895 -0.2053  0.2820
  388BENZ    R1 1162   1.172   2.723   4.259 -0.0554 -0.0320 -0.2683
  388BENZ    R2 1163   1.352   2.874   4.125  0.0244  0.2524  0.1393
  388BENZ    R3 1164   1.112   2.978   4.192 -0.0905  0.0490  0.0534
  389BENZ    R1 1165   2.472   4.359   4.149 -0.1121 -0.2393 -0.2823
  389BENZ    R2 1166   2.429   4.609   4.055 -0.1072 -0.1248  0.0084
  389BENZ    R3 1167   2.432   4.399   3.885 -0.2331  0.0566 -0.2235
  390BENZ    R1 1168   1.638   1.934   4.145 -0.0042  0.0879  0.2897
  390BENZ    R2 1169   1.505   1.973   4.377  0.1388  0.0451  0.3804
  390BENZ    R3 1170   1.762   1.892   4.381  0.2210  0.2877  0.2101
  391BENZ    R1 1171   2.611   0.051   2.181 -0.1766 -0.3295  0.0183
  391BENZ    R2 1172   2.649   0.253   2.006  0.0507  0.0918  0.5287
  391BENZ    R3 1173   2.415   0.120   2.008  0.0936 -0.0347 -0.1826
  392BENZ    R1 1174   1.198   0.387   0.078 -0.0341  0.0055  0.0827
  392BENZ    R2 1175   1.205   0.440  -0.186  0.0357 -0.0673  0.0696
  392BENZ    R3 1176   1.266   0.634  -0.009 -0.2214  0.0441  0.0411
  393BENZ    R1 1177   2.096   4.761   4.384  0.0502  0.0038  0.1674
  393BENZ    R2 1178   1.847   4.793   4.284  0.0514 -0.3354  0.0430
  393BENZ    R3 1179   1.883   4.660   4.516  0.1219 -0.3284  0.0364
  394BENZ    R1 1180   1.774   2.817   0.206 -0.0791  0.0592 -0.1158
  394BENZ    R2 1181   1.507   2.851   0.213 -0.0789  0.0661 -0.1396
  394BENZ    R3 1182   1.623   2.662   0.368 -0.0700  0.2343  0.0630
  395BENZ    R1 1183   1.886   3.121   2.111 -0.4756 -0.3460 -0.0340
  395BENZ    R2 1184   1.915   3.094   1.844 -0.0412 -0.0381 -0.0270
  395BENZ    R3 1185   2.049   2.930   2.011 -0.0203  0.0081  0.0018
  396BENZ    R1 1186   3.003   2.852   2.130  0.0536 -0.0368  0.2328
  396BENZ    R2 1187   2.785   2.973   2.232  0.1420  0.0800  0.2854
  396BENZ    R3 1188   2.918   3.087   2.027  0.0132 -0.1126  0.0909
  397BENZ    R1 1189   4.110   0.302   0.989 -0.0932  0.0340  0.4601
  397BENZ    R2 1190   4.270   0.085   0.984 -0.0215  0.0698 -0.4399
  397BENZ    R3 1191   4.375   0.331   0.950 -0.1614  0.2165  0.0931
  398BENZ    R1 1192   2.857   1.030   3.707 -0.0323 -0.0837  0.2021
  398BENZ    R2 1193   2.725   0.898   3.512  0.1612  0.0281 -0.0085
  398BENZ    R3 1194   2.639   0.882   3.767 -0.3225  0.1807 -0.1506
  399BENZ    R1 1195   2.488   2.961   3.865  0.4025 -0.1670 -0.0183
  399BENZ    R2 1196   2.631   3.025   3.645  0.2746  0.0664 -0.0370
  399BENZ    R3 1197   2.734   3.067   3.891  0.1150  0.5652 -0.0448
  400BENZ    R1 1198   2.858   1.928   3.713 -0.1764 -0.1703 -0.0957
  400BENZ    R2 1199   2.613   1.993   3.620 -0.1288 -0.3446 -0.3501
  400BENZ    R3 1200   2.656   1.748   3.726 -0.1532 -0.1882  0.0352
  401BENZ    R1 1201   4.149   1.612   0.253  0.0195 -0.1265  0.0250
  401BENZ    R2 1202   4.196   1.873   0.206  0.1085 -0.0958  0.2693
  401BENZ    R3 1203   3.946   1.789   0.262  0.0286 -0.1097 -0.0850
  402BENZ    R1 1204   1.091   2.880   3.735  0.0505  0.0475 -0.4248
  402BENZ    R2 1205   1.198   2.641   3.671  0.0035 -0.0784 -0.0577
  402BENZ    R3 1206   0.973   2.652   3.819  0.0264  0.1950 -0.0383
  403BENZ    R1 1207   1.632   3.128   4.440  0.2690  0.0905  0.0844
  403BENZ    R2 1208   1.659   3.055   4.699  0.3360 -0.0975  0.0263
  403BENZ    R3 1209   1.679   3.315   4.629  0.0826 -0.0160  0.2406
  404BENZ    R1 1210   0.832   0.561   0.982 -0.0666 -0.0686 -0.1685
  404BENZ    R2 1211   1.017   0.735   1.073  0.1614 -0.2005 -0.3667
  404BENZ    R3 1212   1.003   0.487   1.178  0.0674 -0.1776 -0.3239
  405BENZ    R1 1213   3.882   3.258   3.984  0.1826  0.1386  0.2278
  405BENZ    R2 1214   3.702   3.057   3.996  0.2702  0.0402 -0.0251
  405BENZ    R3 1215   3.760   3.200   4.218 -0.3258  0.2635  0.0068
  406BENZ    R1 1216   2.971   4.875   3.781 -0.2856  0.0665  0.2801
  406BENZ    R2 1217   2.863   4.645   3.690  0.1090 -0.1612  0.3663
  406BENZ    R3 1218   2.714   4.870   3.696 -0.1911 -0.3372 -0.0122
  407BENZ    R1 1219   3.393   3.011   0.489 -0.3165 -0.0725  0.3444
  407BENZ    R2 1220   3.434   2.886   0.724 -0.0228 -0.1873  0.2359
  407BENZ    R3 1221   3.605   3.077   0.641  0.2533 -0.5882 -0.1704
  408BENZ    R1 1222   2.783   2.420   3.625  0.0772  0.1092  0.0812
  408BENZ    R2 1223   2.869   2.329   3.864  0.1633  0.0644  0.0339
  408BENZ    R3 1224   2.768   2.579   3.843 -0.1447 -0.0415  0.1804
  409BENZ    R1 1225   2.163   1.453   0.228  0.2782  0.0830 -0.2453
  409BENZ    R2 1226   1.922   1.384   0.128  0.0668  0.3633  0.0467
  409BENZ    R3 1227   2.148   1.311  -0.000 -0.1651 -0.0133 -0.1659
  410BENZ    R1 1228   2.010   1.561   2.818 -0.1568  0.2003 -0.0737
  410BENZ    R2 1229   2.070   1.380   2.627  0.0703  0.2451 -0.0479
  410BENZ    R3 1230   1.826   1.377   2.744  0.0324  0.0288 -0.1270
  411BENZ    R1 1231   0.029   3.749   4.193 -0.0794  0.0503 -0.5638
  411BENZ    R2 1232   0.099   3.966   4.048 -0.1195  0.3155 -0.2014
  411BENZ    R3 1233  -0.089   3.987   4.241  0.0462  0.0130  0.0015
  412BENZ    R1 1234   3.448   0.755   3.504  0.3135  0.1647 -0.3774
  412BENZ    R2 1235   3.295   0.959   3.414 -0.1395  0.0413  0.0663
  412BENZ    R3 1236   3.518   0.887   3.279 -0.2365  0.5025 -0.3681
  413BENZ    R1 1237   2.155   0.106   4.763  0.0237 -0.4529 -0.2658
  413BENZ    R2 1238   2.029  -0.034   4.957 -0.0576 -0.0237  0.0052
  413BENZ    R3 1239   1.956   0.221   4.906  0.3714  0.0710 -0.1761
  414BENZ    R1 1240   1.877   1.209   0.580 -0.3395 -0.2435  0.1388
  414BENZ    R2 1241   1.677   1.049   0.666 -0.1370 -0.4280  0.2747
  414BENZ    R3 1242   1.835   1.175   0.844 -0.2571 -0.1197  0.1687
  415BENZ    R1 1243   4.854   4.802   4.212  0.3907  0.0586 -0.1041
  415BENZ    R2 1244   4.991   4.719   3.995 -0.1087  0.1270 -0.4646
  415BENZ    R3 1245   4.757   4.849   3.964 -0.2434  0.0521  0.1249
  416BENZ    R1 1246   1.515   1.284   4.196  0.0362 -0.2598  0.0690
  416BENZ    R2 1247   1.750   1.417   4.192 -0.0154 -0.1714 -0.0900
  416BENZ    R3 1248   1.735   1.172   4.306  0.1499 -0.1711 -0.0654
  417BENZ    R1 1249   1.692   2.848   2.721  0.0979 -0.0478 -0.1903
  417BENZ    R2 1250   1.595   3.090   2.792 -0.3453 -0.2096 -0.2108
  417BENZ    R3 1251   1.811   2.988   2.919 -0.1769  0.1735 -0.1754
  418BENZ    R1 1252   1.038   4.369   1.862 -0.2761  0.1755  0.0955
  418BENZ    R2 1253   1.170   4.558   1.722 -0.0866 -0.1549 -0.1877
  418BENZ    R3 1254   1.193   4.549   1.991  0.2834 -0.0628 -0.2112
  419BENZ    R1 1255   3.426   2.057   0.467 -0.1443  0.0964  0.1084
  419BENZ    R2 1256   3.565   2.048   0.698 -0.3084  0.1084  0.2090
  419BENZ    R3 1257   3.694   2.093   0.465 -0.1452  0.1226  0.3004
  420BENZ    R1 1258   2.900   3.572   3.270 -0.0979  0.4690  0.0831
  420BENZ    R2 1259   2.898   3.783   3.100  0.1323  0.2804 -0.1628
  420BENZ    R3 1260   2.964   3.537   3.010  0.1022  0.1441  0.1706
  421BENZ    R1 1261   1.734   0.789   3.623 -0.2004  0.0785  0.0114
  421BENZ    R2 1262   1.467   0.793   3.581 -0.2084 -0.2000  0.0158
  421BENZ    R3 1263   1.625   0.628   3.436 -0.0470 -0.0910  0.0643
  422BENZ    R1 1264   1.985   2.358   1.292  0.1503 -0.2140  0.0729
  422BENZ    R2 1265   1.985   2.610   1.195 -0.4481 -0.1851  0.1072
  422BENZ    R3 1266   2.038   2.565   1.456  0.1165 -0.1566  0.0116
  423BENZ    R1 1267   4.487   1.962   1.879  0.1695  0.0260  0.1693
  423BENZ    R2 1268   4.751   1.970   1.824  0.1105  0.2958 -0.1090
  423BENZ    R3 1269   4.600   1.764   1.735  0.2549  0.0379  0.2196
  424BENZ    R1 1270   3.444   4.777   3.321  0.4219 -0.4144  0.1704
  424BENZ    R2 1271   3.193   4.680   3.297  0.2232  0.0392  0.3058
  424BENZ    R3 1272   3.352   4.699   3.080  0.0005  0.1057  0.1463
  425BENZ    R1 1273   3.961   1.761   0.703  0.0302 -0.0698 -0.1565
  425BENZ    R2 1274   3.988   1.516   0.814 -0.1305  0.0248  0.1029
  425BENZ    R3 1275   4.192   1.692   0.824 -0.0164 -0.0929 -0.0797
  426BENZ    R1 1276   1.292   1.489   2.477  0.0150 -0.1023  0.0592
  426BENZ    R2 1277   1.204   1.361   2.698 -0.1997 -0.0072  0.0318
  426BENZ    R3 1278   1.414   1.529   2.714 -0.2192  0.0053  0.1656
  427BENZ    R1 1279   1.991   1.721   2.369  0.1693  0.2042  0.2714
  427BENZ    R2 1280   1.727   1.779   2.386  0.1563  0.1500  0.2561
  427BENZ    R3 1281   1.862   1.832   2.159  0.0809 -0.1343  0.1407
  428BENZ    R1 1282   3.719   0.404   0.648 -0.2706 -0.2057 -0.0084
  428BENZ    R2 1283   3.657   0.147   0.700 -0.0895 -0.2768 -0.1325
  428BENZ    R3 1284   3.474   0.341   0.743 -0.2038 -0.4165  0.0291
  429BENZ    R1 1285   4.301   0.638   0.687  0.1362 -0.4144 -0.2729
  429BENZ    R2 1286   4.342   0.825   0.497  0.1926 -0.2502 -0.1027
  429BENZ    R3 1287   4.107   0.692   0.507 -0.0041  0.0939  0.0111
  430BENZ    R1 1288   1.320   1.932   3.299 -0.0121 -0.4553 -0.0420
  430BENZ    R2 1289   1.219   2.159   3.405 -0.0674 -0.5020  0.0063
  430BENZ    R3 1290   1.475   2.087   3.456 -0.0954 -0.5273  0.1139
  431BENZ    R1 1291   4.663   3.468   2.643 -0.3981 -0.0649  0.0954
  431BENZ    R2 1292   4.645   3.389   2.385 -0.2255 -0.0843  0.0878
  431BENZ    R3 1293   4.572   3.221   2.584  0.0131 -0.2185  0.0663
  432BENZ    R1 1294   1.020   2.432   0.157 -0.1600  0.1305 -0.0201
  432BENZ    R2 1295   1.270   2.506   0.091 -0.1028  0.0866  0.1427
  432BENZ    R3 1296   1.071   2.527  -0.090  0.0209  0.1065  0.0073
  433BENZ    R1 1297   0.065   1.532   4.033  0.3080  0.1389  0.0569
  433BENZ    R2 1298   0.263   1.492   4.212  0.1429 -0.2209  0.1690
  433BENZ    R3 1299   0.142   1.281   4.095 -0.0652 -0.0016 -0.0217
  434BENZ    R1 1300   2.332   1.768   2.651 -0.0937  0.0893 -0.1989
  434BENZ    R2 1301   2.355   1.980   2.816 -0.1388  0.1472 -0.2668
  434BENZ    R3 1302   2.335   2.018   2.549 -0.1776  0.0593 -0.2767
  435BENZ    R1 1303   1.533   4.001   3.877 -0.0581  0.1009 -0.1713
  435BENZ    R2 1304   1.734   3.895   4.024 -0.2699  0.0875  0.1168
  435BENZ    R3 1305   1.787   4.010   3.785  0.0355 -0.1904  0.0439
  436BENZ    R1 1306   4.468   2.286   2.609  0.1759  0.0690 -0.0527
  436BENZ    R2 1307   4.549   2.178   2.843 -0.3184 -0.0810  0.0622
  436BENZ    R3 1308   4.551   2.029   2.618 -0.1470 -0.0371  0.0327
  437BENZ    R1 1309   4.758   2.600   3.464 -0.2443 -0.3889  0.3361
  437BENZ    R2 1310   4.935   2.410   3.391  0.0428 -0.0772  0.1928
  437BENZ    R3 1311   4.702   2.436   3.257  0.1199 -0.1561  0.0414
  438BENZ    R1 1312   4.815   0.121   4.662 -0.2568  0.0854  0.3726
  438BENZ    R2 1313   4.671   0.338   4.735 -0.3902  0.1499 -0.0544
  438BENZ    R3 1314   4.743   0.304   4.477  0.1379 -0.0209  0.1016
  439BENZ    R1 1315   2.441   4.496   3.455  0.0035 -0.0227 -0.1932
  439BENZ    R2 1316   2.361   4.751   3.410 -0.0149 -0.0115 -0.0995
  439BENZ    R3 1317   2.196   4.577   3.534  0.0682 -0.0163  0.0061
  440BENZ    R1 1318   3.524   2.798   4.763  0.1990  0.0188  0.0646
  440BENZ    R2 1319   3.784   2.730   4.745  0.2339  0.2040 -0.1716
  440BENZ    R3 1320   3.687   2.933   4.595 -0.1054 -0.0372 -0.2899
  441BENZ    R1 1321   0.292   3.335   0.213  0.1525  0.0801  0.1580
  441BENZ    R2 1322   0.183   3.285  -0.029 -0.2210 -0.0905  0.3520
  441BENZ    R3 1323   0.414   3.166   0.042 -0.1281 -0.0686  0.0971
  442BENZ    R1 1324   2.891   4.085   3.598 -0.0091 -0.0557 -0.0825
  442BENZ    R2 1325   2.719   3.885   3.541 -0.0108 -0.0890  0.0371
  442BENZ    R3 1326   2.660   4.062   3.737  0.1631 -0.1962  0.1894
  443BENZ    R1 1327   3.242   3.510   4.865  0.2093 -0.1432  0.1672
  443BENZ    R2 1328   2.995   3.615   4.892  0.2484  0.0655 -0.2182
  443BENZ    R3 1329   3.181   3.659   5.082  0.1235  0.2972 -0.1450
  444BENZ    R1 1330   1.350   2.521   3.199  0.0728  0.1983 -0.0356
  444BENZ    R2 1331   1.591   2.560   3.082  0.1808 -0.0929  0.0808
  444BENZ    R3 1332   1.573   2.538   3.351  0.0334 -0.1472  0.0672
  445BENZ    R1 1333   3.369   0.809   2.096 -0.0760  0.0284 -0.2059
  445BENZ    R2 1334   3.628   0.880   2.120 -0.0188 -0.2062 -0.0968
  445BENZ    R3 1335   3.434   1.065   2.152  0.1347 -0.0085 -0.2720
  446BENZ    R1 1336   0.052   3.901   4.770 -0.0861 -0.1579  0.3009
  446BENZ    R2 1337   0.253   3.727   4.813  0.1996  0.0417 -0.1452
  446BENZ    R3 1338   0.280   3.985   4.888 -0.2017 -0.0716  0.4669
  447BENZ    R1 1339   4.116   3.861   4.846  0.2107  0.0302  0.0833
  447BENZ    R2 1340   4.168   3.705   5.061  0.0462 -0.1084  0.0244
  447BENZ    R3 1341   4.098   3.964   5.096  0.0758 -0.1149  0.1349
  448BENZ    R1 1342   4.295   0.133   1.438  0.1487  0.2402  0.5356
  448BENZ    R2 1343   4.055   0.009   1.436  0.1614  0.2054  0.0579
  448BENZ    R3 1344   4.183   0.053   1.670 -0.4787  0.5652  0.3647
  449BENZ    R1 1345   1.957   3.801   1.019 -0.4627  0.2686 -0.1701
  449BENZ    R2 1346   1.754   3.790   1.197 -0.1659  0.0885  0.1709
  449BENZ    R3 1347   1.976   3.642   1.237 -0.0432  0.1301 -0.2989
  450BENZ    R1 1348   0.678   2.965   3.593 -0.0703  0.1521 -0.0281
  450BENZ    R2 1349   0.458   3.062   3.716  0.0675 -0.0852  0.4308
  450BENZ    R3 1350   0.444   2.831   3.576 -0.1271  0.2666 -0.1696
  451BENZ    R1 1351   3.442   2.334   1.044  0.0513 -0.4380 -0.1272
  451BENZ    R2 1352   3.445   2.261   1.304 -0.0563  0.1447  0.0519
  451BENZ    R3 1353   3.392   2.517   1.236  0.2484  0.0689 -0.5357
  452BENZ    R1 1354   2.640   0.051   1.256 -0.3265 -0.0921 -0.2685
  452BENZ    R2 1355   2.496   0.054   1.028  0.0185  0.0347 -0.4944
  452BENZ    R3 1356   2.758  -0.008   1.020 -0.0043 -0.1416 -0.1007
  453BENZ    R1 1357   0.097   0.412   3.376  0.0942 -0.0315  0.0209
  453BENZ    R2 1358  -0.088   0.467   3.565  0.0723 -0.3667  0.1037
  453BENZ    R3 1359  -0.094   0.597   3.329 -0.0685 -0.1421  0.2275
  454BENZ    R1 1360   2.617   2.384   1.005 -0.1385  0.0558 -0.2765
  454BENZ    R2 1361   2.541   2.489   1.241  0.1269  0.0102 -0.1662
  454BENZ    R3 1362   2.406   2.280   1.137  0.0906 -0.0575  0.0129
  455BENZ    R1 1363   4.016   0.632   1.999  0.0066 -0.0918  0.0232
  455BENZ    R2 1364   3.990   0.443   1.808 -0.1114  0.1893 -0.2466
  455BENZ    R3 1365   4.152   0.656   1.767 -0.1368  0.2521 -0.0313
  456BENZ    R1 1366   1.008   3.224   0.597  0.0904  0.2340 -0.1426
  456BENZ    R2 1367   1.007   3.448   0.447  0.0691  0.3127 -0.0265
  456BENZ    R3 1368   0.953   3.209   0.333  0.1296  0.3606 -0.1585
  457BENZ    R1 1369   4.366   1.507   2.434  0.1644 -0.0571  0.1553
  457BENZ    R2 1370   4.432   1.530   2.173 -0.1169  0.5325  0.1213
  457BENZ    R3 1371   4.524   1.710   2.353  0.1973  0.0486  0.4697
  458BENZ    R1 1372   1.308   0.069   2.630 -0.3868  0.0733 -0.0704
  458BENZ    R2 1373   1.145   0.039   2.843 -0.2882 -0.0645 -0.0125
  458BENZ    R3 1374   1.387  -0.081   2.840 -0.2271  0.0583 -0.1392
  459BENZ    R1 1375   1.369   3.559   4.859 -0.0269  0.0591  0.0181
  459BENZ    R2 1376   1.362   3.734   5.065  0.2088 -0.1026  0.1687
  459BENZ    R3 1377   1.417   3.473   5.111 -0.2220 -0.2399 -0.0411
  460BENZ    R1 1378   0.109   3.078   1.897 -0.0945 -0.1221  0.1404
  460BENZ    R2 1379   0.121   3.299   2.052 -0.3405 -0.0537  0.0673
  460BENZ    R3 1380  -0.025   3.086   2.132 -0.1439 -0.1735  0.1144
  461BENZ    R1 1381   4.006   3.541   3.476  0.0129 -0.2400  0.0262
  461BENZ    R2 1382   4.115   3.620   3.243  0.0072  0.0982  0.1329
  461BENZ    R3 1383   4.120   3.359   3.312  0.5358  0.0683  0.0267
  462BENZ    R1 1384   2.218   1.046   4.494  0.0527  0.0122 -0.0539
  462BENZ    R2 1385   2.450   1.072   4.629  0.0314 -0.2766  0.0464
  462BENZ    R3 1386   2.257   0.909   4.723 -0.2554  0.0329  0.0154
  463BENZ    R1 1387   4.497   1.885   1.184 -0.0376 -0.0780  0.1513
  463BENZ    R2 1388   4.583   1.684   1.025 -0.1728  0.1097 -0.1692
  463BENZ    R3 1389   4.477   1.628   1.267  0.0838 -0.1783 -0.1161
  464BENZ    R1 1390   1.065   0.488   4.181  0.0063 -0.1523  0.0211
  464BENZ    R2 1391   0.938   0.290   4.314 -0.0316 -0.0336  0.1647
  464BENZ    R3 1392   1.172   0.241   4.189 -0.0083 -0.1532  0.2540
  465BENZ    R1 1393   1.780   3.020   0.636  0.0581  0.2603  0.3112
  465BENZ    R2 1394   1.626   3.208   0.518  0.1427  0.0474 -0.1658
  465BENZ    R3 1395   1.512   2.990   0.630  0.0780  0.0933 -0.1416
  466BENZ    R1 1396   1.517   4.089   4.863  0.0818 -0.0688 -0.1133
  466BENZ    R2 1397   1.594   4.347   4.880  0.2903 -0.1462  0.2214
  466BENZ    R3 1398   1.335   4.280   4.918  0.1869  0.0340 -0.1197
  467BENZ    R1 1399   0.916   1.308   0.500 -0.0555  0.1591 -0.0843
  467BENZ    R2 1400   1.086   1.458   0.646  0.0227  0.2327 -0.2485
  467BENZ    R3 1401   0.822   1.513   0.649 -0.0031  0.1101  0.0171
  468BENZ    R1 1402   3.422   1.435   1.653  0.0121 -0.0964 -0.0663
  468BENZ    R2 1403   3.534   1.223   1.778 -0.0533 -0.0797  0.0222
  468BENZ    R3 1404   3.265   1.243   1.762 -0.0459 -0.0659 -0.0954
  469BENZ    R1 1405   0.103   1.863   1.237  0.0279  0.0843  0.2032
  469BENZ    R2 1406   0.002   1.711   1.436  0.0573  0.1191  0.2449
  469BENZ    R3 1407   0.247   1.822   1.461  0.0686  0.1092  0.1818
  470BENZ    R1 1408   3.591   3.945   1.948  0.0081  0.2430  0.0492
  470BENZ    R2 1409   3.416   4.016   2.140  0.0428  0.1809  0.1042
  470BENZ    R3 1410   3.326   3.941   1.897 -0.0135  0.0323  0.1701
  471BENZ    R1 1411   2.656   2.264   3.002 -0.1853 -0.0587  0.0483
  471BENZ    R2 1412   2.565   2.400   3.218  0.0921  0.0177  0.1207
  471BENZ    R3 1413   2.689   2.162   3.250  0.1596  0.0425  0.0488
  472BENZ    R1 1414   0.659   3.562   4.864 -0.2550  0.1247  0.0621
  472BENZ    R2 1415   0.734   3.423   4.645 -0.4196  0.0301  0.0642
  472BENZ    R3 1416   0.907   3.458   4.849 -0.1907  0.3010 -0.1674
  473BENZ    R1 1417   3.076   1.328   2.311  0.0420  0.3869  0.0386
  473BENZ    R2 1418   3.160   1.180   2.520  0.0957  0.3062 -0.0391
  473BENZ    R3 1419   3.165   1.450   2.535  0.0177  0.3015  0.0951
  474BENZ    R1 1420   0.789   1.996   0.129  0.2296 -0.5399 -0.0666
  474BENZ    R2 1421   0.732   2.124   0.360 -0.0165 -0.0994 -0.3566
  474BENZ    R3 1422   0.881   1.899   0.363  0.1667  0.0152  0.2047
  475BENZ    R1 1423   1.577   4.648   1.477 -0.0559 -0.4599  0.0743
  475BENZ    R2 1424   1.759   4.749   1.305 -0.0887 -0.1139  0.2340
  475BENZ    R3 1425   1.639   4.513   1.252  0.1010 -0.1459 -0.0769
  476BENZ    R1 1426   4.276   2.664   4.194  0.0518  0.0846 -0.2650
  476BENZ    R2 1427   4.192   2.713   4.446 -0.0128 -0.5101 -0.1561
  476BENZ    R3 1428   4.059   2.819   4.236 -0.2519 -0.3971  0.0468
  477BENZ    R1 1429   2.201   2.041   0.821 -0.4363 -0.0848  0.2400
  477BENZ    R2 1430   2.167   2.304   0.770 -0.1689 -0.1163 -0.1401
  477BENZ    R3 1431   2.151   2.124   0.569 -0.1120 -0.3669  0.0749
  478BENZ    R1 1432   4.099   0.818   4.292  0.3112 -0.1570  0.0110
  478BENZ    R2 1433   4.074   1.087   4.275  0.4731 -0.1094  0.4182
  478BENZ    R3 1434   4.309   0.968   4.213  0.3524 -0.1801  0.0759
  479BENZ    R1 1435   0.032   1.070   3.326  0.1438 -0.1917  0.1340
  479BENZ    R2 1436   0.069   1.164   3.076  0.1659  0.2498  0.2943
  479BENZ    R3 1437  -0.163   1.213   3.206  0.2267  0.1872  0.4284
  480BENZ    R1 1438   3.361   3.544   2.810 -0.3537  0.1722  0.4899
  480BENZ    R2 1439   3.394   3.280   2.857  0.2302  0.1995  0.3127
  480BENZ    R3 1440   3.210   3.363   2.678  0.1756 -0.0990  0.2244
  481BENZ    R1 1441   0.441   3.168   3.103 -0.1505  0.1209 -0.0493
  481BENZ    R2 1442   0.693   3.224   3.183 -0.1400 -0.1028  0.0849
  481BENZ    R3 1443   0.493   3.398   3.234 -0.0283  0.0367  0.0530
  482BENZ    R1 1444   3.807   3.067   3.517  0.1528 -0.1677  0.1101
  482BENZ    R2 1445   3.659   3.287   3.568 -0.0803 -0.3414  0.2038
  482BENZ    R3 1446   3.671   3.187   3.317  0.1596 -0.1317  0.1270
  483BENZ    R1 1447   3.892   0.561   2.477 -0.2089  0.0280  0.0353
  483BENZ    R2 1448   3.723   0.438   2.306  0.2963 -0.5451 -0.0843
  483BENZ    R3 1449   3.726   0.368   2.567 -0.0393 -0.1147  0.0467
  484BENZ    R1 1450   4.032   2.376   2.600 -0.1719  0.3933  0.0080
  484BENZ    R2 1451   3.827   2.326   2.768 -0.1624  0.0668 -0.0711
  484BENZ    R3 1452   3.856   2.571   2.659 -0.4384  0.1501  0.0361
  485BENZ    R1 1453   4.699   0.661   2.818 -0.3959 -0.3605 -0.1535
  485BENZ    R2 1454   4.493   0.608   2.984 -0.2457  0.1195  0.2097
  485BENZ    R3 1455   4.588   0.860   2.964  0.3012 -0.0863  0.0437
  486BENZ    R1 1456   1.744   1.182   3.818 -0.0321  0.2075  0.1333
  486BENZ    R2 1457   1.993   1.110   3.895 -0.0842 -0.2667 -0.1034
  486BENZ    R3 1458   1.958   1.271   3.680  0.0165 -0.1038 -0.0001
  487BENZ    R1 1459   1.422   1.786   3.756  0.2853 -0.0534 -0.0366
  487BENZ    R2 1460   1.389   1.597   3.566  0.4869  0.0048 -0.1320
  487BENZ    R3 1461   1.485   1.529   3.809  0.1781 -0.0786 -0.0293
  488BENZ    R1 1462   0.651   4.173   4.755 -0.0326 -0.0276 -0.6169
  488BENZ    R2 1463   0.513   4.389   4.671 -0.2286  0.1797  0.1628
  488BENZ    R3 1464   0.778   4.408   4.717 -0.2209  0.2164  0.1035
  489BENZ    R1 1465   4.075   2.472   1.670  0.1297 -0.0014 -0.0535
  489BENZ    R2 1466   4.098   2.204   1.694 -0.1831  0.0008  0.3713
  489BENZ    R3 1467   3.855   2.316   1.661 -0.0239  0.2178 -0.1757
  490BENZ    R1 1468   3.152   3.062   4.710 -0.0325 -0.0005  0.3747
  490BENZ    R2 1469   3.076   3.264   4.548 -0.0406 -0.3792 -0.1174
  490BENZ    R3 1470   2.899   3.155   4.719 -0.1586 -0.2514 -0.1567
  491BENZ    R1 1471   1.951   2.757   4.558  0.0722  0.2280 -0.1986
  491BENZ    R2 1472   2.065   3.000   4.536  0.1299  0.2306  0.0868
  491BENZ    R3 1473   2.214   2.787   4.610  0.0289  0.1564  0.0781
  492BENZ    R1 1474   3.948   4.624   4.159  0.1574  0.2305 -0.0206
  492BENZ    R2 1475   4.020   4.449   4.351 -0.0264  0.1038 -0.0638
  492BENZ    R3 1476   4.023   4.714   4.402  0.5072  0.1114 -0.0787
  493BENZ    R1 1477   1.812   0.609   2.979  0.2131 -0.2588 -0.2328
  493BENZ    R2 1478   1.863   0.872   2.946  0.1768 -0.2251 -0.0355
  493BENZ    R3 1479   1.974   0.738   3.152  0.0719 -0.3288 -0.0457
  494BENZ    R1 1480   2.932   1.575   1.764  0.3075  0.0355 -0.0569
  494BENZ    R2 1481   3.080   1.614   1.987 -0.1188 -0.0377  0.2499
  494BENZ    R3 1482   2.900   1.800   1.910  0.0658  0.0149 -0.0750
  495BENZ    R1 1483   1.687   2.640   0.857  0.0740 -0.0121 -0.0675
  495BENZ    R2 1484   1.435   2.545   0.844  0.1282 -0.1492 -0.1390
  495BENZ    R3 1485   1.561   2.559   1.082  0.1105 -0.2334 -0.1245
  496BENZ    R1 1486   4.740   2.807   0.203 -0.0425  0.3274  0.0862
  496BENZ    R2 1487   4.998   2.778   0.129 -0.0507 -0.1693  0.2146
  496BENZ    R3 1488   4.936   2.916   0.353  0.0729  0.2026  0.0285
  497BENZ    R1 1489   3.385   2.893   3.736  0.2240  0.0703  0.3973
  497BENZ    R2 1490   3.318   2.642   3.663  0.1272  0.2472 -0.1686
  497BENZ    R3 1491   3.128   2.812   3.754  0.1458  0.1963 -0.0333
  498BENZ    R1 1492   0.951   1.418   3.016  0.0645  0.1885 -0.0937
  498BENZ    R2 1493   1.183   1.508   3.121  0.1267 -0.1378  0.0612
  498BENZ    R3 1494   0.998   1.394   3.281 -0.1484  0.1240 -0.0604
  499BENZ    R1 1495   4.348   0.916   2.570 -0.3843  0.3441  0.0265
  499BENZ    R2 1496   4.261   0.819   2.334 -0.1255  0.0266  0.0561
  499BENZ    R3 1497   4.382   1.060   2.343 -0.3538  0.1507 -0.0938
  500BENZ    R1 1498   2.881   2.731   3.314 -0.1617  0.1388 -0.3367
  500BENZ    R2 1499   2.946   2.589   3.094  0.1074 -0.3728  0.0506
  500BENZ    R3 1500   3.140   2.676   3.262 -0.0737  0.2411 -0.0314
  501BENZ    R1 1501   1.886   1.785   1.498  0.1413  0.3550  0.0533
  501BENZ    R2 1502   1.735   1.900   1.305 -0.1047  0.0688  0.0682
  501BENZ    R3 1503   1.998   1.858   1.263 -0.1441  0.0584 -0.1857
  502BENZ    R1 1504   3.017   3.692   4.356 -0.0020 -0.0215 -0.1318
  502BENZ    R2 1505   3.248   3.760   4.477 -0.1383  0.1087  0.0599
  502BENZ    R3 1506   3.034   3.924   4.493 -0.1783  0.0996 -0.3086
  503BENZ    R1 1507   4.627   4.008   2.259 -0.1459  0.1654 -0.3887
  503BENZ    R2 1508   4.732   3.867   2.464 -0.3915  0.3357 -0.1387
  503BENZ    R3 1509   4.833   3.838   2.215 -0.2927 -0.1106 -0.0558
  504BENZ    R1 1510   2.788   1.697   2.729 -0.1370  0.1956  0.1087
  504BENZ    R2 1511   2.876   1.851   2.933  0.0302  0.1155  0.0985
  504BENZ    R3 1512   2.815   1.963   2.695 -0.0424  0.1922  0.1531
  505BENZ    R1 1513   4.042   3.051   2.092  0.1195 -0.0159 -0.2157
  505BENZ    R2 1514   4.219   3.067   2.296  0.0403  0.1500 -0.1580
  505BENZ    R3 1515   3.964   3.150   2.331  0.0066  0.1114 -0.3034
  506BENZ    R1 1516   1.366   1.763   2.126 -0.0311  0.1698  0.0331
  506BENZ    R2 1517   1.180   1.593   2.031  0.0345  0.0507  0.1158
  506BENZ    R3 1518   1.204   1.840   1.925 -0.2452  0.1082  0.1792
  507BENZ    R1 1519   4.084   3.469   4.548 -0.1266 -0.0361 -0.1309
  507BENZ    R2 1520   4.065   3.200   4.526  0.2768 -0.0758 -0.0714
  507BENZ    R3 1521   4.110   3.314   4.767  0.0269  0.0552 -0.0829
  508BENZ    R1 1522   2.725   4.066   2.092 -0.1659 -0.3860 -0.1266
  508BENZ    R2 1523   2.709   3.903   2.307  0.1528  0.0039  0.2102
  508BENZ    R3 1524   2.929   3.898   2.150 -0.0051 -0.1570 -0.0120
  509BENZ    R1 1525   2.089   3.843   1.900 -0.0281 -0.0826 -0.0215
  509BENZ    R2 1526   2.196   3.736   1.676  0.1135  0.2175 -0.1022
  509BENZ    R3 1527   2.356   3.853   1.860 -0.0142  0.0773  0.1025
  510BENZ    R1 1528   1.804   0.679   0.826  0.1088 -0.0865  0.0840
  510BENZ    R2 1529   1.919   0.755   1.058 -0.0266  0.0103  0.1209
  510BENZ    R3 1530   2.073   0.677   0.850  0.1076  0.1737  0.1564
  511BENZ    R1 1531   0.877   2.237   2.669  0.0605 -0.0883  0.3291
  511BENZ    R2 1532   0.694   2.402   2.779  0.0025  0.0648  0.0167
  511BENZ    R3 1533   0.727   2.398   2.511  0.1057 -0.3303  0.0296
  512BENZ    R1 1534   4.212   4.594   1.944  0.3639 -0.0833  0.0235
  512BENZ    R2 1535   3.955   4.533   2.002  0.2118  0.5241  0.0598
  512BENZ    R3 1536   4.145   4.341   2.011 -0.2708  0.0012 -0.2200
  513BENZ    R1 1537   2.388   2.790   0.919 -0.4679 -0.1037  0.2336
  513BENZ    R2 1538   2.399   2.912   0.679 -0.1746 -0.0947  0.2473
  513BENZ    R3 1539   2.179   2.938   0.834 -0.2067  0.2323  0.1553
  514BENZ    R1 1540   2.103   4.844   3.843  0.1449  0.1622  0.0708
  514BENZ    R2 1541   2.214   5.016   4.020 -0.0154  0.2649  0.0740
  514BENZ    R3 1542   2.295   5.017   3.762  0.2246  0.1093  0.1447
  515BENZ    R1 1543   2.133   1.586   1.818 -0.1360 -0.1758  0.0615
  515BENZ    R2 1544   2.374   1.699   1.773 -0.1245 -0.2655 -0.1123
  515BENZ    R3 1545   2.170   1.849   1.868 -0.0436 -0.1545 -0.1114
  516BENZ    R1 1546   0.275   2.535   2.687 -0.0027 -0.1745  0.0504
  516BENZ    R2 1547   0.040   2.458   2.795 -0.0340 -0.2375 -0.0614
  516BENZ    R3 1548   0.165   2.299   2.616  0.0824 -0.1936 -0.0199
  517BENZ    R1 1549   1.204   0.844   4.420  0.2279 -0.0177  0.0198
  517BENZ    R2 1550   1.036   1.049   4.368  0.1753 -0.1293 -0.2666
  517BENZ    R3 1551   1.192   1.055   4.588  0.1503  0.2011 -0.2531
  518BENZ    R1 1552   0.381   3.424   1.054  0.3229  0.2408  0.1225
  518BENZ    R2 1553   0.543   3.592   1.190  0.1812  0.6540 -0.1959
  518BENZ    R3 1554   0.391   3.686   0.988  0.1064  0.1300 -0.3994
  519BENZ    R1 1555   3.804   1.361   1.407  0.3657 -0.2084 -0.0193
  519BENZ    R2 1556   3.995   1.465   1.247  0.2274 -0.3054 -0.2524
  519BENZ    R3 1557   4.028   1.220   1.355  0.3705 -0.1942 -0.0371
  520BENZ    R1 1558   2.802   0.044   3.175  0.1073 -0.0291 -0.1142
  520BENZ    R2 1559   2.688  -0.191   3.105 -0.0398  0.0326 -0.0859
  520BENZ    R3 1560   2.570   0.042   3.036 -0.0798  0.0963  0.1857
  521BENZ    R1 1561   2.525   1.859   0.552  0.2210  0.5971 -0.2261
  521BENZ    R2 1562   2.394   1.869   0.316  0.1336  0.3866 -0.1891
  521BENZ    R3 1563   2.531   1.647   0.385 -0.3579  0.1932  0.2254
  522BENZ    R1 1564   1.024   3.841   4.462 -0.0561 -0.0107  0.0713
  522BENZ    R2 1565   1.273   3.858   4.566 -0.1206 -0.3042  0.2845
  522BENZ    R3 1566   1.064   3.971   4.695 -0.0723  0.1589 -0.0183
  523BENZ    R1 1567   2.861   1.381   0.555  0.0901  0.0370 -0.0768
  523BENZ    R2 1568   2.988   1.215   0.383 -0.1748 -0.0689 -0.1750
  523BENZ    R3 1569   2.923   1.466   0.306 -0.0387 -0.0182 -0.1282
  524BENZ    R1 1570   1.103   4.624   2.451 -0.1786 -0.1442  0.1512
  524BENZ    R2 1571   1.326   4.488   2.519  0.1073  0.1474 -0.1609
  524BENZ    R3 1572   1.085   4.367   2.531  0.2797 -0.1866  0.1478
  525BENZ    R1 1573   0.561   0.538   4.388 -0.2527 -0.0367  0.1447
  525BENZ    R2 1574   0.761   0.704   4.464  0.1870 -0.3926 -0.1798
  525BENZ    R3 1575   0.595   0.775   4.262  0.1106 -0.1818 -0.0460
  526BENZ    R1 1576   4.065   0.468   4.665  0.1870 -0.0557 -0.1644
  526BENZ    R2 1577   4.277   0.631   4.626 -0.0170  0.2767  0.0586
  526BENZ    R3 1578   4.250   0.500   4.860 -0.1040  0.3086  0.0667
  527BENZ    R1 1579   1.307   2.570   2.691 -0.1632 -0.1331  0.0942
  527BENZ    R2 1580   1.232   2.823   2.747  0.2793 -0.0269  0.2493
  527BENZ    R3 1581   1.070   2.663   2.602  0.0641  0.3967  0.0036
  528BENZ    R1 1582   0.505   4.599   3.557  0.0549 -0.2147 -0.2549
  528BENZ    R2 1583   0.386   4.832   3.624  0.0125 -0.2890 -0.0644
  528BENZ    R3 1584   0.484   4.797   3.375  0.2213  0.0168 -0.0312
  529BENZ    R1 1585   0.306   3.917   3.176 -0.2019  0.1563  0.0445
  529BENZ    R2 1586   0.167   3.706   3.272 -0.2202  0.1510  0.0064
  529BENZ    R3 1587   0.144   3.777   3.012 -0.0050  0.0316 -0.0479
  530BENZ    R1 1588   0.405   1.887   3.968 -0.0355  0.2209  0.2380
  530BENZ    R2 1589   0.611   1.817   4.127 -0.1613  0.2150  0.4012
  530BENZ    R3 1590   0.639   2.020   3.951  0.1641 -0.1454  0.0178
  531BENZ    R1 1591   1.131   1.200   3.647  0.1527  0.1961 -0.1581
  531BENZ    R2 1592   1.317   1.155   3.837  0.0329  0.0569 -0.0718
  531BENZ    R3 1593   1.094   1.295   3.897  0.0499  0.1139 -0.1411
  532BENZ    R1 1594   0.115   0.140   0.923  0.0233  0.4699 -0.4119
  532BENZ    R2 1595  -0.010   0.368   0.998 -0.0512  0.3037 -0.0047
  532BENZ    R3 1596  -0.054   0.139   1.134  0.2933  0.1211 -0.1867
  533BENZ    R1 1597   2.087   1.688   0.625 -0.1264 -0.1424  0.0748
  533BENZ    R2 1598   2.081   1.576   0.871 -0.0108 -0.1728  0.0643
  533BENZ    R3 1599   2.218   1.456   0.671 -0.1795 -0.1957 -0.0392
  534BENZ    R1 1600   0.263   2.171   0.276 -0.4073 -0.0576 -0.0335
  534BENZ    R2 1601   0.391   2.187   0.039  0.1777 -0.0057  0.2677
  534BENZ    R3 1602   0.157   2.317   0.075  0.1200  0.0544 -0.2470
  535BENZ    R1 1603   3.295   1.764   3.653 -0.0827  0.1724  0.0501
  535BENZ    R2 1604   3.534   1.744   3.778 -0.1529 -0.0476  0.1538
  535BENZ    R3 1605   3.515   1.876   3.543  0.0383  0.1103  0.2245
  536BENZ    R1 1606   4.540   4.018   3.332 -0.1096 -0.0121 -0.0845
  536BENZ    R2 1607   4.512   4.245   3.475  0.1589 -0.1017  0.1198
  536BENZ    R3 1608   4.697   4.230   3.279  0.0235 -0.0912 -0.0113
  537BENZ    R1 1609   0.179   3.350   2.509 -0.2576 -0.3119 -0.1295
  537BENZ    R2 1610   0.203   3.387   2.776 -0.1192 -0.2762 -0.1465
  537BENZ    R3 1611   0.153   3.140   2.678 -0.3566 -0.2583 -0.0769
  538BENZ    R1 1612   4.676   1.763   4.813  0.1706  0.0005  0.1274
  538BENZ    R2 1613   4.730   1.632   5.043 -0.2183  0.0555  0.2573
  538BENZ    R3 1614   4.912   1.802   4.939  0.0090 -0.0582  0.4588
  539BENZ    R1 1615   0.919   0.772   3.639 -0.2221 -0.0210 -0.0841
  539BENZ    R2 1616   0.713   0.725   3.808 -0.1533  0.0566  0.0229
  539BENZ    R3 1617   0.950   0.810   3.905  0.0375 -0.3603 -0.0591
  540BENZ    R1 1618   3.411   1.105   3.806  0.0821  0.0418 -0.0235
  540BENZ    R2 1619   3.375   1.271   4.016  0.0200 -0.0297  0.0229
  540BENZ    R3 1620   3.190   1.260   3.819  0.0411 -0.0184  0.0026
  541BENZ    R1 1621   3.742   2.377   4.273  0.0769  0.1100 -0.1969
  541BENZ    R2 1622   3.553   2.485   4.433  0.2758 -0.1496  0.2310
  541BENZ    R3 1623   3.671   2.636   4.243  0.2339  0.2595  0.5150
  542BENZ    R1 1624   2.497   0.523   4.666 -0.1372 -0.0434 -0.1022
  542BENZ    R2 1625   2.594   0.608   4.904 -0.1318  0.0182 -0.1261
  542BENZ    R3 1626   2.354   0.483   4.892 -0.1277  0.0066 -0.0870
  543BENZ    R1 1627   3.023   0.918   0.856  0.1039 -0.0063 -0.2466
  543BENZ    R2 1628   3.199   1.095   0.754  0.0445  0.0586 -0.2376
  543BENZ    R3 1629   3.195   0.841   0.663  0.2871 -0.0033 -0.0883
  544BENZ    R1 1630   4.754   2.199   1.460 -0.0653 -0.2184  0.2452
  544BENZ    R2 1631   4.487   2.239   1.477 -0.0763 -0.0449 -0.2103
  544BENZ    R3 1632   4.655   2.450   1.464  0.1010 -0.1513  0.1981
  545BENZ    R1 1633   2.264   0.548   3.718  0.3898  0.5913  0.4142
  545BENZ    R2 1634   2.223   0.809   3.660 -0.3126  0.4012 -0.0800
  545BENZ    R3 1635   2.120   0.703   3.886  0.0033  0.5449  0.1390
  546BENZ    R1 1636   2.826   1.443   4.006  0.5093 -0.5402 -0.0429
  546BENZ    R2 1637   2.910   1.504   4.255  0.1524  0.1865 -0.0724
  546BENZ    R3 1638   3.017   1.630   4.042 -0.1476  0.2229 -0.2076
  547BENZ    R1 1639   1.131   1.006   2.992 -0.2985  0.2545  0.0519
  547BENZ    R2 1640   1.128   0.885   3.233 -0.1863 -0.1413 -0.1368
  547BENZ    R3 1641   0.915   0.863   3.069 -0.1449 -0.1241 -0.1930
  548BENZ    R1 1642   2.775   0.751   2.434  0.0580 -0.3706 -0.0429
  548BENZ    R2 1643   2.548   0.834   2.313  0.3438  0.0515 -0.3184
  548BENZ    R3 1644   2.716   0.666   2.184  0.3691  0.0369 -0.2665
  549BENZ    R1 1645   0.081   2.948   3.306 -0.4392 -0.0596 -0.1337
  549BENZ    R2 1646  -0.062   2.917   3.079 -0.1689 -0.4175 -0.2651
  549BENZ    R3 1647   0.168   2.781   3.113  0.0586  0.0123  0.0151
  550BENZ    R1 1648   4.020   2.923   0.546  0.0317  0.0916 -0.0909
  550BENZ    R2 1649   4.089   2.958   0.805 -0.3155  0.0743  0.0089
  550BENZ    R3 1650   4.051   3.173   0.645 -0.2330  0.0881  0.0071
  551BENZ    R1 1651   1.648   0.024   3.250  0.0395  0.0396 -0.2466
  551BENZ    R2 1652   1.766   0.097   3.018  0.0098 -0.0101 -0.2778
  551BENZ    R3 1653   1.740   0.275   3.220  0.0572  0.0264 -0.3040
  552BENZ    R1 1654   4.281   1.510   3.471  0.1456 -0.2591  0.0703
  552BENZ    R2 1655   4.543   1.546   3.414  0.1089  0.1707  0.1406
  552BENZ    R3 1656   4.383   1.759   3.454 -0.1641 -0.0900  0.5132
  553BENZ    R1 1657   4.482   3.159   3.710  0.1076  0.0628  0.1381
  553BENZ    R2 1658   4.317   2.973   3.814 -0.1442 -0.0542 -0.4321
  553BENZ    R3 1659   4.215   3.191   3.691  0.1464  0.3217 -0.0375
  554BENZ    R1 1660   3.182   2.881   2.801  0.1158 -0.3036 -0.1195
  554BENZ    R2 1661   2.942   3.001   2.832  0.3000  0.1044 -0.2081
  554BENZ    R3 1662   3.028   2.934   2.585  0.1744 -0.2739 -0.1543
  555BENZ    R1 1663   1.879   4.002   0.272  0.3467 -0.1381 -0.1774
  555BENZ    R2 1664   1.836   3.742   0.332  0.3601 -0.1317 -0.1402
  555BENZ    R3 1665   1.927   3.911   0.521  0.0270 -0.0242 -0.0693
  556BENZ    R1 1666   1.940   0.335   1.825  0.0453 -0.0625  0.3044
  556BENZ    R2 1667   1.972   0.095   1.944  0.3731 -0.2756 -0.1820
  556BENZ    R3 1668   1.819   0.116   1.723  0.0126  0.0554  0.0849
  557BENZ    R1 1669   0.429   0.244   3.072  0.1516  0.0501 -0.1164
  557BENZ    R2 1670   0.588   0.424   2.948 -0.0552  0.1705 -0.2127
  557BENZ    R3 1671   0.463   0.233   2.804 -0.0400  0.1087 -0.1446
  558BENZ    R1 1672   3.419   0.808   4.693 -0.0657  0.1233 -0.2003
  558BENZ    R2 1673   3.326   0.610   4.851 -0.0959  0.1430 -0.1933
  558BENZ    R3 1674   3.520   0.559   4.669  0.1497  0.1812  0.0519
  559BENZ    R1 1675   3.496   2.378   2.387 -0.0126  0.0460  0.2794
  559BENZ    R2 1676   3.678   2.180   2.361 -0.1732 -0.0795  0.0779
  559BENZ    R3 1677   3.615   2.334   2.149 -0.2762 -0.0139  0.1553
  560BENZ    R1 1678   0.506   0.510   1.824 -0.0790 -0.0662 -0.4233
  560BENZ    R2 1679   0.305   0.682   1.773 -0.0209  0.2219  0.2231
  560BENZ    R3 1680   0.556   0.775   1.808  0.1514 -0.0858 -0.1311
  561BENZ    R1 1681   4.629   2.667   0.690  0.1275 -0.2231  0.1159
  561BENZ    R2 1682   4.537   2.919   0.657 -0.0276 -0.3116 -0.1544
  561BENZ    R3 1683   4.713   2.865   0.854 -0.3558 -0.0852  0.2156
  562BENZ    R1 1684   3.763   2.571   0.542  0.2947  0.2537 -0.0247
  562BENZ    R2 1685   3.696   2.709   0.320  0.0313  0.1246 -0.0294
  562BENZ    R3 1686   3.894   2.526   0.310 -0.0380  0.0560 -0.1819
  563BENZ    R1 1687   3.630   2.761   1.635  0.3156  0.0505 -0.0009
  563BENZ    R2 1688   3.526   2.668   1.866 -0.0012  0.0303 -0.1454
  563BENZ    R3 1689   3.781   2.758   1.859  0.0598 -0.1014  0.1750
  564BENZ    R1 1690   3.314   1.106   1.307 -0.3160  0.3179 -0.1911
  564BENZ    R2 1691   3.297   0.845   1.238  0.0147  0.1741  0.2241
  564BENZ    R3 1692   3.106   0.956   1.393 -0.1802  0.2138 -0.0371
  565BENZ    R1 1693   0.652   4.190   2.062 -0.1641 -0.2183 -0.0056
  565BENZ    R2 1694   0.530   4.425   2.116  0.1744 -0.0003 -0.1492
  565BENZ    R3 1695   0.717   4.328   2.286 -0.1222 -0.2884  0.0259
  566BENZ    R1 1696   4.337   0.155   4.511  0.1251  0.2528  0.0038
  566BENZ    R2 1697   4.480  -0.059   4.429 -0.0851  0.0340  0.1927
  566BENZ    R3 1698   4.391   0.121   4.248  0.1268 -0.0138  0.0362
  567BENZ    R1 1699   2.011   4.504   0.377 -0.2224 -0.1016  0.0426
  567BENZ    R2 1700   2.228   4.546   0.532 -0.2332 -0.0273  0.0382
  567BENZ    R3 1701   2.161   4.295   0.458 -0.1015 -0.0435 -0.0289
  568BENZ    R1 1702   2.701   2.494   4.296 -0.2609  0.0940 -0.3005
  568BENZ    R2 1703   2.508   2.682   4.270 -0.1195  0.2713 -0.1007
  568BENZ    R3 1704   2.661   2.675   4.492 -0.3806 -0.3283  0.0803
  569BENZ    R1 1705   1.686   1.894   2.795  0.0317 -0.3527  0.2994
  569BENZ    R2 1706   1.650   2.094   2.972 -0.0417 -0.1167  0.0256
  569BENZ    R3 1707   1.877   1.948   2.978  0.1909  0.2312 -0.0127
  570BENZ    R1 1708   3.537   2.197   3.891  0.0126 -0.2721  0.2281
  570BENZ    R2 1709   3.293   2.094   3.947 -0.1207 -0.0944 -0.0099
  570BENZ    R3 1710   3.340   2.358   3.982 -0.0516 -0.0746 -0.2345
  571BENZ    R1 1711   2.342   0.958   1.817 -0.2458 -0.1218  0.0963
  571BENZ    R2 1712   2.250   1.120   2.013 -0.1683 -0.0987  0.1139
  571BENZ    R3 1713   2.076   0.996   1.848 -0.2276  0.0123  0.0921
  572BENZ    R1 1714   3.618   0.273   3.569  0.0458  0.1057  0.3903
  572BENZ    R2 1715   3.804   0.219   3.380 -0.3024  0.0415  0.0526
  572BENZ    R3 1716   3.824   0.444   3.528 -0.0462  0.1163 -0.0892
  573BENZ    R1 1717   0.986   3.943   0.431 -0.0864 -0.1927 -0.0401
  573BENZ    R2 1718   0.899   4.114   0.241  0.1217  0.1499  0.1615
  573BENZ    R3 1719   0.825   3.854   0.233 -0.0819  0.2115 -0.2357
  574BENZ    R1 1720   4.536   0.414   0.330 -0.1999 -0.1026  0.0827
  574BENZ    R2 1721   4.739   0.394   0.506  0.0955  0.4993 -0.1615
  574BENZ    R3 1722   4.761   0.281   0.262 -0.1792 -0.0519  0.0516
  575BENZ    R1 1723   0.691   2.068   2.182 -0.0894  0.0949  0.2435
  575BENZ    R2 1724   0.450   1.971   2.106 -0.0113  0.0349  0.0664
  575BENZ    R3 1725   0.470   2.222   2.202 -0.1646 -0.0077  0.2162
  576BENZ    R1 1726   0.662   1.029   3.391 -0.3525 -0.3661 -0.0593
  576BENZ    R2 1727   0.465   1.205   3.337 -0.0576 -0.0319 -0.0788
  576BENZ    R3 1728   0.649   1.262   3.527  0.2061 -0.1875 -0.2810
  577BENZ    R1 1729   2.951   2.430   4.858 -0.1518 -0.0234  0.0239
  577BENZ    R2 1730   3.124   2.595   4.733 -0.0421 -0.1635 -0.0109
  577BENZ    R3 1731   2.916   2.698   4.870  0.0805  0.0078  0.0508
  578BENZ    R1 1732   1.270   3.746   1.883 -0.0401  0.0983  0.3473
  578BENZ    R2 1733   1.069   3.865   2.018 -0.2473 -0.1124  0.2308
  578BENZ    R3 1734   1.032   3.622   1.906 -0.0239 -0.0217 -0.0515
  579BENZ    R1 1735   1.198   0.331   1.632 -0.1494 -0.1604 -0.0711
  579BENZ    R2 1736   1.434   0.236   1.540  0.0476 -0.2225  0.4648
  579BENZ    R3 1737   1.205   0.104   1.485  0.0672  0.0426 -0.3879
  580BENZ    R1 1738   0.802   0.289   4.801  0.2397  0.0847  0.2179
  580BENZ    R2 1739   0.650   0.068   4.830  0.3134 -0.0004 -0.0213
  580BENZ    R3 1740   0.672   0.244   5.034 -0.1534  0.0465 -0.0002
  581BENZ    R1 1741   1.546   4.413   4.412 -0.2046 -0.0855 -0.2481
  581BENZ    R2 1742   1.752   4.242   4.447 -0.2123 -0.0285  0.1110
  581BENZ    R3 1743   1.531   4.162   4.314  0.0091 -0.1114 -0.2185
  582BENZ    R1 1744   2.239   0.321   3.347  0.2831 -0.0553 -0.0929
  582BENZ    R2 1745   2.373   0.547   3.287  0.1570 -0.0412 -0.3337
  582BENZ    R3 1746   2.503   0.339   3.398  0.2668  0.1608 -0.0720
  583BENZ    R1 1747   1.468   0.335   0.845  0.2766  0.1486 -0.0144
  583BENZ    R2 1748   1.472   0.447   1.091 -0.1744 -0.2503  0.1922
  583BENZ    R3 1749   1.640   0.243   1.032  0.1544  0.0500  0.0512
  584BENZ    R1 1750   3.428   0.340   3.143  0.0042  0.0547 -0.2381
  584BENZ    R2 1751   3.171   0.323   3.063 -0.0086  0.3312 -0.2651
  584BENZ    R3 1752   3.370   0.242   2.899 -0.0854 -0.1076 -0.1531
  585BENZ    R1 1753   0.731   4.507   2.786 -0.0650 -0.0628  0.0476
  585BENZ    R2 1754   0.683   4.651   2.563  0.2816 -0.1003 -0.0570
  585BENZ    R3 1755   0.730   4.776   2.797 -0.0418 -0.0602 -0.0090
  586BENZ    R1 1756   1.245   3.145   4.864 -0.1834 -0.0676 -0.2351
  586BENZ    R2 1757   1.229   2.944   4.685 -0.2457 -0.1217 -0.1695
  586BENZ    R3 1758   1.228   3.201   4.601  0.0431 -0.1502 -0.2694
  587BENZ    R1 1759   2.229   3.429   3.697  0.3236  0.2831 -0.2928
  587BENZ    R2 1760   2.024   3.598   3.651 -0.2894 -0.2570  0.2363
  587BENZ    R3 1761   2.254   3.691   3.757 -0.4524  0.2885  0.1448
  588BENZ    R1 1762   1.682   3.715   1.698 -0.3545 -0.2129 -0.2131
  588BENZ    R2 1763   1.743   3.511   1.864 -0.2102 -0.1362 -0.1709
  588BENZ    R3 1764   1.679   3.460   1.607  0.1751 -0.2139 -0.2585
  589BENZ    R1 1765   0.415   0.413   0.675  0.1340  0.0346 -0.1362
  589BENZ    R2 1766   0.309   0.228   0.510  0.0568 -0.0651  0.0225
  589BENZ    R3 1767   0.377   0.471   0.414  0.0027 -0.1173 -0.1523
  590BENZ    R1 1768   0.818   1.102   2.591 -0.3115  0.0705  0.3368
  590BENZ    R2 1769   0.810   0.843   2.666  0.1710 -0.0556 -0.0016
  590BENZ    R3 1770   0.697   0.920   2.433  0.1471  0.0127  0.0323
  591BENZ    R1 1771   4.084   1.796   2.277  0.1725 -0.0080 -0.2470
  591BENZ    R2 1772   4.003   1.983   2.100 -0.0496  0.0037 -0.1362
  591BENZ    R3 1773   4.229   2.022   2.243 -0.0875  0.1827 -0.1227
  592BENZ    R1 1774   3.021   1.031   4.575 -0.0682  0.0151 -0.1221
  592BENZ    R2 1775   3.054   1.094   4.836  0.3631 -0.0342 -0.1582
  592BENZ    R3 1776   2.913   0.874   4.767 -0.0823  0.1858  0.0125
  593BENZ    R1 1777   4.838   1.450   1.942  0.1459  0.0945  0.3895
  593BENZ    R2 1778   5.056   1.600   1.886  0.0123  0.0763 -0.2565
  593BENZ    R3 1779   4.894   1.668   2.091  0.4974  0.2146  0.0993
  594BENZ    R1 1780   3.369   2.201   4.722  0.1844  0.1653 -0.0526
  594BENZ    R2 1781   3.541   2.273   4.917  0.2511  0.1404 -0.1018
  594BENZ    R3 1782   3.460   2.016   4.897 -0.1478  0.2323  0.2014
  595BENZ    R1 1783   4.413   2.926   3.288  0.1226 -0.1422  0.0979
  595BENZ    R2 1784   4.262   2.788   3.465  0.0420 -0.0759  0.0812
  595BENZ    R3 1785   4.170   2.835   3.216 -0.0035  0.1514  0.1382
  596BENZ    R1 1786   3.345   2.286   3.330  0.3143  0.0892  0.1844
  596BENZ    R2 1787   3.143   2.234   3.502  0.1428  0.2864  0.0464
  596BENZ    R3 1788   3.135   2.137   3.250  0.2410  0.2598  0.0530
  597BENZ    R1 1789   3.972   1.795   3.664  0.2966  0.0112 -0.4156
  597BENZ    R2 1790   3.907   1.959   3.869 -0.0027 -0.1950 -0.3385
  597BENZ    R3 1791   3.898   2.050   3.615  0.1994  0.0115 -0.2747
  598BENZ    R1 1792   2.831   1.041   1.781 -0.0375  0.1384  0.0653
  598BENZ    R2 1793   2.750   1.201   1.983 -0.3272 -0.0963  0.1412
  598BENZ    R3 1794   2.932   1.007   2.028 -0.2414 -0.0188  0.1299
  599BENZ    R1 1795   2.765   0.511   3.027 -0.0283 -0.1109 -0.4940
  599BENZ    R2 1796   2.696   0.768   3.072  0.0861 -0.1666  0.0692
  599BENZ    R3 1797   2.939   0.709   2.969  0.1244 -0.0556  0.0946
  600BENZ    R1 1798   2.585   0.551   4.002 -0.0209 -0.2072 -0.2510
  600BENZ    R2 1799   2.597   0.405   4.228  0.0428 -0.0666 -0.1622
  600BENZ    R3 1800   2.706   0.310   4.000  0.0074 -0.1945 -0.1268
  601BENZ    R1 1801   0.158   0.903   0.426  0.0443 -0.2669 -0.2743
  601BENZ    R2 1802  -0.024   0.837   0.614  0.1338  0.5779  0.1578
  601BENZ    R3 1803  -0.090   0.829   0.353 -0.2595  0.1492  0.2580
  602BENZ    R1 1804   4.603   3.093   1.479 -0.0417 -0.1157 -0.1711
  602BENZ    R2 1805   4.791   3.150   1.294  0.0911 -0.0028 -0.0047
  602BENZ    R3 1806   4.748   2.894   1.369  0.1438 -0.0338 -0.0796
  603BENZ    R1 1807   1.978   3.773   4.612  0.0718 -0.3130 -0.0583
  603BENZ    R2 1808   1.766   3.751   4.778  0.0512  0.0493 -0.0283
  603BENZ    R3 1809   1.728   3.754   4.510  0.0435 -0.1123 -0.0301
  604BENZ    R1 1810   0.781   3.033   2.825 -0.1432 -0.3479  0.3456
  604BENZ    R2 1811   0.703   2.945   2.581  0.0608 -0.1210  0.1939
  604BENZ    R3 1812   0.618   2.818   2.804  0.0883 -0.4994 -0.0029
  605BENZ    R1 1813   0.668   2.547   4.089  0.1594 -0.1075 -0.3925
  605BENZ    R2 1814   0.586   2.801   4.046 -0.1474 -0.1327 -0.0162
  605BENZ    R3 1815   0.414   2.596   4.011 -0.1663 -0.2144  0.4806
  606BENZ    R1 1816   4.019   1.565   4.131  0.1719 -0.0387  0.1737
  606BENZ    R2 1817   4.087   1.414   3.918  0.0340 -0.0164  0.1123
  606BENZ    R3 1818   3.837   1.400   4.018 -0.0038  0.2292  0.0561
  607BENZ    R1 1819   2.937   4.552   4.240 -0.2241  0.0812 -0.2740
  607BENZ    R2 1820   3.001   4.814   4.222 -0.0110  0.0312 -0.2700
  607BENZ    R3 1821   3.088   4.668   4.431 -0.2047 -0.0234 -0.2254
  608BENZ    R1 1822   2.496   1.338   2.663 -0.0298  0.3505  0.1304
  608BENZ    R2 1823   2.525   1.072   2.700 -0.5320  0.2293 -0.2370
  608BENZ    R3 1824   2.691   1.205   2.533 -0.3122  0.1426 -0.0920
  609BENZ    R1 1825   1.689   4.627   3.542  0.2642  0.0980 -0.1775
  609BENZ    R2 1826   1.617   4.481   3.326 -0.2742  0.0763  0.0023
  609BENZ    R3 1827   1.597   4.375   3.573  0.1646  0.1635  0.0837
  610BENZ    R1 1828   4.503   4.671   4.868  0.2620  0.0001  0.0153
  610BENZ    R2 1829   4.427   4.925   4.922  0.2068  0.0372 -0.2262
  610BENZ    R3 1830   4.576   4.788   5.100 -0.2682  0.0248  0.1814
  611BENZ    R1 1831   2.565   4.721   4.606  0.2214  0.1138 -0.1401
  611BENZ    R2 1832   2.539   4.953   4.471  0.0744  0.1121 -0.1160
  611BENZ    R3 1833   2.559   4.955   4.740 -0.2242  0.0814 -0.0903
  612BENZ    R1 1834   3.448   1.715   1.269 -0.1361 -0.0840 -0.0445
  612BENZ    R2 1835   3.369   1.901   1.090 -0.1220  0.0626  0.0990
  612BENZ    R3 1836   3.591   1.754   1.043 -0.2592 -0.0788 -0.1220
  613BENZ    R1 1837   0.036   4.583   1.905  0.1236  0.1547 -0.2184
  613BENZ    R2 1838  -0.203   4.484   1.983  0.1979  0.0579 -0.1106
  613BENZ    R3 1839  -0.163   4.751   1.976  0.0718  0.0756 -0.1752
  614BENZ    R1 1840   0.895   3.964   3.977 -0.0734 -0.1310  0.1666
  614BENZ    R2 1841   1.126   3.827   4.006  0.0735  0.0609 -0.0563
  614BENZ    R3 1842   1.016   3.855   3.761 -0.1986 -0.0421  0.0496
  615BENZ    R1 1843   0.228   2.664   2.186  0.0339  0.1382 -0.0546
  615BENZ    R2 1844   0.491   2.694   2.239 -0.0003  0.2079  0.0797
  615BENZ    R3 1845   0.309   2.844   2.370 -0.1105  0.1251  0.0230
  616BENZ    R1 1846   1.247   0.913   2.527  0.1326 -0.3943 -0.0565
  616BENZ    R2 1847   1.456   1.076   2.478  0.0732 -0.2682  0.1011
  616BENZ    R3 1848   1.469   0.897   2.679  0.0056 -0.2145  0.1537
  617BENZ    R1 1849   0.557   4.504   3.994  0.1804 -0.0967 -0.1890
  617BENZ    R2 1850   0.344   4.388   4.113  0.0148  0.1740 -0.2141
  617BENZ    R3 1851   0.472   4.261   3.912 -0.1157  0.0051 -0.1926
  618BENZ    R1 1852   3.707   3.780   0.876  0.5659 -0.1195  0.2506
  618BENZ    R2 1853   3.880   3.715   0.679  0.1392  0.0156 -0.1879
  618BENZ    R3 1854   3.697   3.535   0.763  0.1865  0.0271 -0.0591
  619BENZ    R1 1855   0.370   1.689   2.474 -0.1001 -0.0806  0.3298
  619BENZ    R2 1856   0.184   1.829   2.609 -0.1639 -0.2357  0.4056
  619BENZ    R3 1857   0.426   1.938   2.561 -0.1944 -0.1199  0.5076
  620BENZ    R1 1858   2.494   2.134   4.733 -0.0661 -0.0484 -0.1711
  620BENZ    R2 1859   2.506   2.397   4.795  0.1882 -0.0831 -0.0617
  620BENZ    R3 1860   2.295   2.249   4.875  0.1893  0.0219  0.1421
  621BENZ    R1 1861   2.922   0.288   4.463  0.2398  0.0840 -0.1515
  621BENZ    R2 1862   2.957   0.449   4.677  0.0636  0.2875 -0.2715
  621BENZ    R3 1863   3.152   0.277   4.605  0.0668  0.1083  0.1377
  622BENZ    R1 1864   1.544   1.577   1.719 -0.2677 -0.2334 -0.0774
  622BENZ    R2 1865   1.323   1.459   1.619 -0.2794  0.0345 -0.3856
  622BENZ    R3 1866   1.478   1.611   1.459 -0.1777  0.3068 -0.0412
  623BENZ    R1 1867   0.367   1.526   4.653  0.3789 -0.0522  0.0030
  623BENZ    R2 1868   0.550   1.665   4.510  0.2456  0.1641  0.0387
  623BENZ    R3 1869   0.459   1.762   4.745  0.3857 -0.1387  0.2246
  624BENZ    R1 1870   3.123   2.335   0.401  0.4052 -0.2096 -0.0436
  624BENZ    R2 1871   3.312   2.492   0.513 -0.1103  0.1476  0.3813
  624BENZ    R3 1872   3.212   2.553   0.270  0.2710 -0.0192  0.1731
  625BENZ    R1 1873   2.793   1.730   1.089 -0.0744  0.0213 -0.1489
  625BENZ    R2 1874   2.541   1.824   1.060 -0.1586 -0.2333 -0.2740
  625BENZ    R3 1875   2.622   1.608   0.919  0.0604 -0.2899 -0.0683
  626BENZ    R1 1876   2.910   3.981   1.229 -0.0288 -0.2227  0.1050
  626BENZ    R2 1877   2.846   3.884   0.984 -0.2272 -0.1971  0.1449
  626BENZ    R3 1878   2.993   3.735   1.155 -0.1377 -0.2385  0.0324
  627BENZ    R1 1879   1.281   2.974   1.002  0.1313  0.4596  0.1125
  627BENZ    R2 1880   1.104   3.148   1.107 -0.1264  0.2045  0.1136
  627BENZ    R3 1881   1.288   3.031   1.266 -0.3081  0.0626  0.2231
  628BENZ    R1 1882   0.396   3.725   0.356  0.1853  0.2770 -0.0986
  628BENZ    R2 1883   0.508   3.815   0.584 -0.4425 -0.1655  0.4195
  628BENZ    R3 1884   0.558   3.564   0.499 -0.2027  0.0004  0.0437
  629BENZ    R1 1885   1.798   3.963   2.687  0.1661  0.0915 -0.0467
  629BENZ    R2 1886   1.595   4.071   2.828  0.0623 -0.2752  0.0961
  629BENZ    R3 1887   1.838   4.044   2.941  0.0838 -0.2086  0.0663
  630BENZ    R1 1888   0.061   2.504   1.111  0.0569  0.2434 -0.5786
  630BENZ    R2 1889   0.113   2.248   1.041  0.3421  0.1174  0.0309
  630BENZ    R3 1890  -0.135   2.349   1.009  0.1289 -0.3565  0.1187
  631BENZ    R1 1891   2.338   2.048   1.490  0.1221  0.1419 -0.0995
  631BENZ    R2 1892   2.316   2.266   1.646  0.1511 -0.0781  0.2215
  631BENZ    R3 1893   2.560   2.172   1.580  0.1391  0.0248  0.0228
  632BENZ    R1 1894   3.239   0.216   2.378 -0.4727 -0.0284  0.3139
  632BENZ    R2 1895   3.133   0.125   2.148  0.0684  0.1939 -0.0441
  632BENZ    R3 1896   3.135   0.390   2.200  0.0915  0.1582  0.1435
  633BENZ    R1 1897   2.718   4.015   1.634 -0.1188 -0.2625 -0.3770
  633BENZ    R2 1898   2.779   4.276   1.669  0.0077 -0.3220 -0.1340
  633BENZ    R3 1899   2.522   4.201   1.635 -0.0385 -0.1742 -0.1164
  634BENZ    R1 1900   2.565   1.375   3.463 -0.1943  0.1687 -0.1996
  634BENZ    R2 1901   2.494   1.268   3.700  0.0619 -0.2213 -0.2902
  634BENZ    R3 1902   2.330   1.443   3.577 -0.0933 -0.0426  0.1511
  635BENZ    R1 1903   2.624   4.276   1.028 -0.3379 -0.5662 -0.0438
  635BENZ    R2 1904   2.509   4.478   1.164  0.3165 -0.3163  0.1773
  635BENZ    R3 1905   2.501   4.475   0.894 -0.1668 -0.3013  0.1828
  636BENZ    R1 1906   3.751   3.667   4.094 -0.1017 -0.2497  0.0801
  636BENZ    R2 1907   3.614   3.817   3.916 -0.2710 -0.2545  0.2041
  636BENZ    R3 1908   3.857   3.720   3.852 -0.1437  0.0974  0.1316
  637BENZ    R1 1909   1.181   3.455   1.425  0.1966  0.0371 -0.0551
  637BENZ    R2 1910   1.361   3.656   1.425 -0.0900  0.3100 -0.4860
  637BENZ    R3 1911   1.352   3.484   1.217  0.1977 -0.2092 -0.0915
   4.87167   4.88796   4.88796
