Ethanol box
 2197
    1EOL    COH    1   0.789   5.169   2.020  0.0418 -0.3403  0.0162
    2EOL    COH    2   1.093   3.679   3.676  0.3606 -0.0126 -0.0451
    3EOL    COH    3   5.720   5.377   4.292  0.2708  0.0727  0.0106
    4EOL    COH    4   5.295   3.992   2.348 -0.1394 -0.0875 -0.1002
    5EOL    COH    5   4.913   1.297   2.202 -0.1259 -0.2011  0.1030
    6EOL    COH    6   6.272   4.845   4.949  0.1896 -0.4374 -0.1104
    7EOL    COH    7   6.179   2.334   3.944 -0.1048  0.4414 -0.0024
    8EOL    COH    8   4.147   5.634   1.426 -0.2782  0.4027 -0.0750
    9EOL    COH    9   4.948   5.333   1.055  0.1001  0.2542  0.1740
   10EOL    COH   10   0.173   1.803   2.176  0.2721 -0.0487 -0.0070
   11EOL    COH   11   3.147   5.385   5.038  0.4183 -0.1959 -0.0674
   12EOL    COH   12   2.182   1.043   4.498 -0.0829  0.2545 -0.2439
   13EOL    COH   13   0.647   0.318   3.553 -0.2997 -0.1224 -0.3665
   14EOL    COH   14   5.747   0.636   5.037  0.0248 -0.3527 -0.1051
   15EOL    COH   15   4.804   3.151   1.538  0.0787  0.2319 -0.1567
   16EOL    COH   16   2.504   2.744   1.949 -0.4437 -0.3354  0.3754
   17EOL    COH   17   5.417   0.315   6.349 -0.0097 -0.0048 -0.3118
   18EOL    COH   18   0.137   3.639   4.265  0.1170 -0.0337 -0.2534
   19EOL    COH   19   0.870   3.830   1.328 -0.1183  0.0186  0.1273
   20EOL    COH   20   3.771   1.424   3.488 -0.0980  0.0986  0.0334
   21EOL    COH   21   5.212   4.789   2.643  0.0716 -0.1857  0.1705
   22EOL    COH   22   1.575   3.511   0.121  0.0652  0.1077  0.0413
   23EOL    COH   23   1.310   2.838   1.762  0.1886 -0.2085 -0.2821
   24EOL    COH   24   4.525   5.045   4.528  0.0944  0.1539  0.0122
   25EOL    COH   25   5.276   3.125   1.933  0.0972  0.0173  0.1521
   26EOL    COH   26   1.457   4.561   5.698  0.2461 -0.0670  0.0883
   27EOL    COH   27   4.430   1.400   1.954 -0.2297 -0.1565 -0.0602
   28EOL    COH   28   2.505   1.903   1.290  0.1719 -0.2095  0.0508
   29EOL    COH   29   5.725   0.187   0.289  0.0454 -0.1852 -0.1124
   30EOL    COH   30   0.461   3.603   0.867  0.2012  0.2599  0.1075
   31EOL    COH   31   2.270   6.090   2.219 -0.0654 -0.0563  0.0396
   32EOL    COH   32   1.965   2.703   2.713 -0.1271  0.1287  0.0729
   33EOL    COH   33   5.395   5.915   5.328 -0.0114 -0.0677 -0.2823
   34EOL    COH   34   5.031   1.804   5.981 -0.1357 -0.0670  0.0286
   35EOL    COH   35   2.990   0.027   1.619  0.0738 -0.1205 -0.3173
   36EOL    COH   36   4.572   4.573   1.200 -0.0206  0.0801 -0.1462
   37EOL    COH   37   3.483   3.528   3.239  0.2774 -0.0745  0.1546
   38EOL    COH   38   4.500   1.760   1.074  0.2380  0.1241  0.3038
   39EOL    COH   39   1.718   4.022   1.426 -0.0212  0.2464 -0.2781
   40EOL    COH   40   4.167   1.270   0.713 -0.0102 -0.1291  0.0407
   41EOL    COH   41   2.515   3.793   4.843 -0.1414  0.0976  0.1125
   42EOL    COH   42   5.840   2.213   2.714  0.2428  0.1189 -0.2548
   43EOL    COH   43   5.409   2.682   2.189 -0.0494  0.2732 -0.1420
   44EOL    COH   44   1.984   4.887   4.859 -0.1666 -0.0304  0.0498
   45EOL    COH   45   3.452   1.077   6.416 -0.0237 -0.0238 -0.0392
   46EOL    COH   46   2.009   5.723   4.477  0.1864  0.0795  0.1626
   47EOL    COH   47   2.985   5.298   3.772 -0.1406  0.1186  0.2625
   48EOL    COH   48   0.175   5.370   3.480  0.1097 -0.1176  0.0603
   49EOL    COH   49   5.203   1.121   4.399 -0.0343  0.2384 -0.3299
   50EOL    COH   50   3.591   3.395   1.109 -0.1257 -0.1484  0.3934
   51EOL    COH   51   2.274   1.437   1.098 -0.1542 -0.0672  0.1928
   52EOL    COH   52   0.988   6.371   4.030 -0.0432  0.2332 -0.3803
   53EOL    COH   53   3.963   4.172   2.672  0.2878  0.1911 -0.0897
   54EOL    COH   54   4.234   4.308   4.789  0.3736  0.1090 -0.0630
   55EOL    COH   55   1.820   3.276   1.066 -0.3313  0.0015  0.0449
   56EOL    COH   56   2.285   5.363   3.778  0.0091 -0.2768  0.2245
   57EOL    COH   57   2.379   4.176   5.731 -0.1885  0.2057 -0.1033
   58EOL    COH   58   3.408   5.317   6.111 -0.0511 -0.0046 -0.1607
   59EOL    COH   59   1.855   2.530   6.411  0.4240 -0.0938 -0.1199
   60EOL    COH   60   3.845   1.390   6.287  0.2709  0.0552  0.0318
   61EOL    COH   61   2.927   4.134   4.497 -0.3454 -0.1069 -0.0086
   62EOL    COH   62   5.608   3.720   3.707  0.1252 -0.0806 -0.4642
   63EOL    COH   63   4.678   4.716   0.647 -0.1678  0.0868  0.1719
   64EOL    COH   64   6.199   4.689   1.196  0.2554 -0.0317 -0.0350
   65EOL    COH   65   3.105   3.239   3.460  0.0224  0.2200 -0.1415
   66EOL    COH   66   5.722   4.923   1.294 -0.5679  0.0280 -0.0918
   67EOL    COH   67   5.108   6.187   1.986  0.0670  0.0571  0.1547
   68EOL    COH   68   1.679   1.876   4.353  0.1660 -0.0027 -0.0147
   69EOL    COH   69   2.275   2.665   3.382  0.0344 -0.3849 -0.0310
   70EOL    COH   70   4.684   0.626   3.000 -0.2498 -0.2588  0.1611
   71EOL    COH   71   2.246   3.777   0.157  0.1767  0.0696 -0.0663
   72EOL    COH   72   5.304   0.260   0.607 -0.0321 -0.2000  0.2670
   73EOL    COH   73   1.582   3.956   4.858 -0.2635  0.1037 -0.1172
   74EOL    COH   74   0.555   1.885   6.317 -0.1420  0.1101  0.3967
   75EOL    COH   75   5.293   1.251   1.689  0.0740  0.2981  0.2146
   76EOL    COH   76   1.644   5.786   2.962  0.2874 -0.0491 -0.0920
   77EOL    COH   77   2.355   4.702   5.207  0.0485 -0.0097 -0.1160
   78EOL    COH   78   4.388   3.464   5.470 -0.2122  0.0696 -0.4858
   79EOL    COH   79   5.637   5.659   2.789 -0.1327  0.1225  0.0364
   80EOL    COH   80   3.731   0.174   3.566 -0.0795  0.0506  0.1334
   81EOL    COH   81   4.457   6.015   4.942 -0.0007  0.1349  0.1510
   82EOL    COH   82   3.982   2.772   5.192 -0.3528  0.0733 -0.0298
   83EOL    COH   83   3.566   3.794   2.761 -0.0499  0.0017  0.0195
   84EOL    COH   84   1.032   1.294   4.981  0.0142 -0.1185  0.1369
   85EOL    COH   85   1.452   2.911   1.302 -0.0453 -0.0156 -0.0322
   86EOL    COH   86   6.301   3.253   0.105 -0.0592  0.0950 -0.0856
   87EOL    COH   87   0.197   1.086   0.952  0.1541  0.0855 -0.2369
   88EOL    COH   88   5.590   5.810   1.753  0.2918 -0.2523 -0.0793
   89EOL    COH   89   1.582   4.398   2.887 -0.1535  0.2970 -0.0808
   90EOL    COH   90   3.207   5.554   0.459 -0.2066 -0.0467  0.3617
   91EOL    COH   91   4.480   6.061   1.582 -0.0035 -0.1030 -0.1271
   92EOL    COH   92   4.380   0.138   2.357 -0.0718 -0.0755 -0.4462
   93EOL    COH   93   4.567   0.811   6.021 -0.2843  0.2801 -0.2315
   94EOL    COH   94   5.882   1.862   1.442 -0.0372  0.1047 -0.2582
   95EOL    COH   95   4.174   5.210   5.594 -0.0472 -0.1303 -0.1703
   96EOL    COH   96   2.155   2.416   5.056  0.0314  0.0800 -0.1172
   97EOL    COH   97   4.223   2.374   5.095  0.0433 -0.1422 -0.0354
   98EOL    COH   98   0.454   5.509   2.021  0.0724  0.0034 -0.4044
   99EOL    COH   99   1.878   3.015   3.586 -0.0281 -0.0789 -0.1386
  100EOL    COH  100   0.247   4.768   6.249  0.2012 -0.1968 -0.0168
  101EOL    COH  101   2.126   0.660   3.701  0.1866 -0.0489  0.0814
  102EOL    COH  102   0.284   2.743   4.465  0.0527 -0.0240  0.1287
  103EOL    COH  103   6.324   5.576   4.375  0.1285 -0.1225  0.0445
  104EOL    COH  104   5.338   5.967   3.539 -0.2726  0.0423  0.1786
  105EOL    COH  105   2.731   5.709   5.150 -0.2343  0.2679  0.0350
  106EOL    COH  106   1.485   3.236   4.236  0.1885 -0.1111  0.0017
  107EOL    COH  107   3.931   2.630   0.764  0.1218  0.0071  0.0284
  108EOL    COH  108   1.252   0.475   4.192  0.4576  0.1608  0.0501
  109EOL    COH  109   0.720   0.078   2.207  0.0307  0.0078  0.0627
  110EOL    COH  110   5.830   4.735   2.403 -0.2396  0.2937 -0.0657
  111EOL    COH  111   2.975   2.435   3.559  0.0684 -0.1414  0.2400
  112EOL    COH  112   1.302   0.471   1.214  0.0188 -0.1816  0.0097
  113EOL    COH  113   2.001   5.631   2.307 -0.2973 -0.1189 -0.0676
  114EOL    COH  114   4.626   4.105   5.915  0.1166  0.1033  0.2707
  115EOL    COH  115   1.663   3.613   4.482 -0.0008  0.1496  0.2756
  116EOL    COH  116   1.788   6.249   0.847 -0.1512 -0.0967 -0.1652
  117EOL    COH  117   6.340   5.382   2.033 -0.4054  0.0709  0.2115
  118EOL    COH  118   0.926   6.180   1.761  0.2348 -0.1701 -0.0907
  119EOL    COH  119   3.409   0.822   4.241 -0.0200 -0.2690 -0.0370
  120EOL    COH  120   2.418   5.275   5.280 -0.1059  0.0983  0.0775
  121EOL    COH  121   4.998   6.325   3.767  0.0704  0.0687  0.0285
  122EOL    COH  122   0.858   2.916   4.968  0.1433  0.0763  0.1166
  123EOL    COH  123   2.905   0.228   6.080 -0.3453 -0.0628 -0.0494
  124EOL    COH  124   2.249   6.210   3.397 -0.4290  0.2611  0.3579
  125EOL    COH  125   1.972   0.100   2.726 -0.1232 -0.1913 -0.5199
  126EOL    COH  126   5.630   3.610   3.259 -0.0724  0.1187  0.0058
  127EOL    COH  127   1.406   0.321   4.855  0.0002 -0.1324  0.2134
  128EOL    COH  128   5.589   3.206   6.328 -0.0671 -0.1519 -0.2617
  129EOL    COH  129   0.640   0.513   1.926  0.1410  0.1570 -0.0503
  130EOL    COH  130   2.564   1.061   0.567 -0.0801 -0.1091  0.0842
  131EOL    COH  131   5.647   2.206   5.620 -0.0410  0.0059  0.4828
  132EOL    COH  132   1.517   0.883   2.428  0.0273 -0.1495 -0.0633
  133EOL    COH  133   4.446   1.404   4.185  0.5139 -0.2873  0.1225
  134EOL    COH  134   5.260   3.513   5.969  0.0063  0.0999  0.0291
  135EOL    COH  135   3.085   3.243   4.143 -0.2137 -0.0214 -0.1640
  136EOL    COH  136   4.024   1.284   5.771 -0.3733 -0.2883  0.0153
  137EOL    COH  137   2.209   5.575   6.119  0.2339  0.0090 -0.1254
  138EOL    COH  138   0.061   4.067   4.054 -0.3921  0.3985  0.0527
  139EOL    COH  139   2.255   6.392   4.651  0.0989 -0.0942 -0.2539
  140EOL    COH  140   4.188   3.703   4.340  0.0186  0.0021  0.0318
  141EOL    COH  141   5.910   2.874   0.208 -0.0755  0.2038  0.2137
  142EOL    COH  142   1.093   1.783   6.210  0.2379  0.3425  0.0496
  143EOL    COH  143   5.593   3.679   5.072  0.0726  0.0457  0.0102
  144EOL    COH  144   5.501   2.925   4.029 -0.2913  0.1093 -0.0791
  145EOL    COH  145   0.362   0.350   4.583  0.4207  0.0782 -0.3289
  146EOL    COH  146   4.155   2.616   1.279 -0.0185  0.1331  0.3551
  147EOL    COH  147   4.724   0.552   1.876 -0.3738  0.2460  0.1457
  148EOL    COH  148   0.321   3.840   1.913 -0.0983 -0.1405  0.1920
  149EOL    COH  149   2.336   4.044   6.216  0.1765 -0.2064 -0.1769
  150EOL    COH  150   4.863   5.712   4.945  0.1752  0.3109 -0.0754
  151EOL    COH  151   0.674   1.812   4.486  0.2658  0.5093 -0.0338
  152EOL    COH  152   3.471   0.165   2.975 -0.0101  0.1431 -0.1859
  153EOL    COH  153   5.204   0.767   4.023 -0.2621  0.2483 -0.3789
  154EOL    COH  154   3.009   2.279   4.127 -0.2101 -0.0992 -0.0478
  155EOL    COH  155   3.869   3.431   4.664  0.1251  0.0121  0.0041
  156EOL    COH  156   0.194   6.227   2.327  0.0963 -0.1918  0.0793
  157EOL    COH  157   5.302   3.063   1.416  0.1420 -0.1446 -0.0970
  158EOL    COH  158   3.945   4.982   1.925  0.1124  0.0810  0.0949
  159EOL    COH  159   2.603   1.708   2.426  0.0289 -0.0048  0.0705
  160EOL    COH  160   5.375   6.036   3.037  0.0117  0.1403  0.1629
  161EOL    COH  161   1.675   4.479   1.631  0.0659  0.1735 -0.2244
  162EOL    COH  162   1.714   5.021   2.632 -0.0294 -0.0245 -0.1008
  163EOL    COH  163   0.435   1.956   0.955 -0.1282 -0.2819  0.0489
  164EOL    COH  164   0.061   4.968   0.837  0.0114 -0.0264  0.2644
  165EOL    COH  165   3.751   4.200   1.687  0.1783 -0.0276 -0.0968
  166EOL    COH  166   3.759   2.380   2.911  0.0635 -0.4400 -0.2511
  167EOL    COH  167   3.144   0.590   2.918 -0.2825  0.2492 -0.5744
  168EOL    COH  168   2.866   0.888   4.208 -0.1697 -0.1234  0.0062
  169EOL    COH  169   1.489   2.509   2.160 -0.1584 -0.0739  0.3266
  170EOL    COH  170   0.519   4.288   3.938 -0.1123  0.0974 -0.0170
  171EOL    COH  171   5.800   2.215   0.624 -0.1201  0.2350 -0.0413
  172EOL    COH  172   1.688   0.882   2.899  0.3648  0.1218  0.0375
  173EOL    COH  173   1.141   3.082   6.349  0.0206  0.2750 -0.0751
  174EOL    COH  174   0.720   2.334   4.445 -0.0723 -0.2537 -0.1445
  175EOL    COH  175   3.460   5.639   3.869 -0.2063 -0.2411 -0.1157
  176EOL    COH  176   2.239   1.917   5.077  0.1223 -0.1250 -0.1534
  177EOL    COH  177   2.033   1.944   6.001 -0.2242  0.0412  0.3209
  178EOL    COH  178   1.522   2.253   3.828  0.1190 -0.0368 -0.1309
  179EOL    COH  179   3.638   1.234   1.346 -0.1915 -0.2269  0.2356
  180EOL    COH  180   0.272   2.361   0.097  0.0584 -0.0171  0.0854
  181EOL    COH  181   3.468   3.944   0.290  0.0657  0.0372  0.1896
  182EOL    COH  182   3.987   4.218   3.210  0.2008 -0.1214  0.1440
  183EOL    COH  183   6.004   5.929   4.166  0.1435 -0.0504 -0.1075
  184EOL    COH  184   0.292   0.582   0.936 -0.2177 -0.1364 -0.1888
  185EOL    COH  185   1.080   5.702   2.914 -0.0648 -0.1351 -0.1473
  186EOL    COH  186   3.396   3.738   2.045 -0.1279  0.0598  0.0571
  187EOL    COH  187   4.300   3.486   6.070  0.0286 -0.3047 -0.0261
  188EOL    COH  188   1.151   3.776   2.344  0.1522 -0.2924  0.0690
  189EOL    COH  189   6.235   3.688   1.673  0.0959  0.0433 -0.0860
  190EOL    COH  190   5.083   0.358   2.919  0.1982  0.0356  0.0264
  191EOL    COH  191   3.646   5.018   4.597  0.0426 -0.0568 -0.0551
  192EOL    COH  192   6.319   1.924   3.749 -0.0240 -0.1597 -0.0746
  193EOL    COH  193   0.600   3.805   3.823 -0.2731 -0.1790  0.0165
  194EOL    COH  194   3.304   4.868   5.913 -0.0143 -0.0246  0.2089
  195EOL    COH  195   0.772   4.006   0.773 -0.1189 -0.2723 -0.0299
  196EOL    COH  196   3.567   5.932   0.664 -0.1291  0.3580 -0.0637
  197EOL    COH  197   5.388   5.977   5.889 -0.0293  0.3201  0.0758
  198EOL    COH  198   1.979   2.798   1.158  0.4244  0.1612  0.0296
  199EOL    COH  199   3.121   5.853   5.416 -0.1413  0.2478 -0.0788
  200EOL    COH  200   4.543   4.008   4.492  0.2099 -0.3035  0.0336
  201EOL    COH  201   2.410   0.593   4.438 -0.1275 -0.0684 -0.1243
  202EOL    COH  202   4.186   4.298   1.436  0.2691  0.0227 -0.2021
  203EOL    COH  203   0.499   3.195   2.537  0.0630  0.0444 -0.0230
  204EOL    COH  204   3.127   4.434   5.965  0.1019  0.1053  0.1286
  205EOL    COH  205   4.020   1.451   1.686  0.0323 -0.0627 -0.0816
  206EOL    COH  206   5.053   3.031   6.182 -0.1148  0.0450 -0.1529
  207EOL    COH  207   3.750   0.062   2.011 -0.0262 -0.2872 -0.1858
  208EOL    COH  208   6.120   3.863   2.580  0.1569 -0.1494  0.1171
  209EOL    COH  209   0.838   1.066   4.203 -0.3059  0.2147 -0.0289
  210EOL    COH  210   1.918   0.435   4.659 -0.1754  0.2325  0.0506
  211EOL    COH  211   1.931   6.421   1.891  0.1761  0.0618 -0.1247
  212EOL    COH  212   4.373   1.352   3.591  0.1462 -0.3663  0.2167
  213EOL    COH  213   6.098   4.766   6.134  0.1409 -0.1051 -0.0679
  214EOL    COH  214   4.144   0.140   3.272 -0.0550  0.1351  0.1633
  215EOL    COH  215   5.091   5.555   4.393 -0.1754  0.2058  0.2490
  216EOL    COH  216   5.933   1.759   0.916  0.3249  0.0541 -0.0437
  217EOL    COH  217   3.658   1.290   0.790  0.0969 -0.0403 -0.3230
  218EOL    COH  218   0.655   4.270   5.330  0.2125 -0.0829  0.0040
  219EOL    COH  219   4.787   1.812   2.080  0.3278 -0.4515 -0.0099
  220EOL    COH  220   5.761   1.384   4.374 -0.4998 -0.3557  0.2983
  221EOL    COH  221   0.166   4.078   5.405 -0.2951  0.0704 -0.0897
  222EOL    COH  222   1.601   5.357   2.276  0.0165  0.1265  0.0073
  223EOL    COH  223   2.478   0.461   3.380 -0.0737 -0.1761 -0.0046
  224EOL    COH  224   4.859   3.080   3.685 -0.1242 -0.4095 -0.3551
  225EOL    COH  225   1.872   1.553   5.097  0.1440 -0.0524  0.2832
  226EOL    COH  226   2.450   2.142   3.233 -0.0734  0.1517 -0.2770
  227EOL    COH  227   5.367   3.880   4.060  0.1365 -0.1959 -0.2503
  228EOL    COH  228   1.858   5.412   5.731 -0.1663 -0.1772  0.2973
  229EOL    COH  229   4.611   0.008   0.170 -0.2489 -0.3297  0.1929
  230EOL    COH  230   5.706   3.704   5.918 -0.0083  0.2144 -0.0205
  231EOL    COH  231   0.080   0.267   6.035  0.0411 -0.1366 -0.1622
  232EOL    COH  232   3.619   6.423   1.541 -0.0015  0.3590 -0.0079
  233EOL    COH  233   4.303   0.033   5.212 -0.0816  0.1380  0.0186
  234EOL    COH  234   0.265   3.675   5.763 -0.3321  0.2205 -0.1585
  235EOL    COH  235   4.902   1.912   5.343  0.0759 -0.1052 -0.3973
  236EOL    COH  236   3.014   1.101   3.727 -0.0882  0.0122 -0.0655
  237EOL    COH  237   1.730   5.508   5.193  0.0479 -0.1089 -0.0300
  238EOL    COH  238   2.492   2.157   0.796 -0.0800  0.2422 -0.1066
  239EOL    COH  239   2.521   5.746   2.926 -0.2143  0.1196  0.1172
  240EOL    COH  240   4.325   3.448   0.178  0.1408  0.0772 -0.0591
  241EOL    COH  241   0.468   0.667   4.018 -0.0776  0.2426 -0.0744
  242EOL    COH  242   4.783   0.371   0.851 -0.4040 -0.2615 -0.1630
  243EOL    COH  243   5.440   5.307   1.818  0.0438 -0.1815 -0.4523
  244EOL    COH  244   2.877   0.784   6.210  0.0094  0.2246 -0.0077
  245EOL    COH  245   0.766   4.749   3.113 -0.1438 -0.4035 -0.1712
  246EOL    COH  246   2.788   6.183   4.249  0.1723  0.0133 -0.0172
  247EOL    COH  247   0.204   3.269   6.062  0.0739  0.0844  0.2318
  248EOL    COH  248   2.265   2.679   4.623  0.1428  0.0737  0.1214
  249EOL    COH  249   5.873   1.819   0.111 -0.2707  0.2191  0.2501
  250EOL    COH  250   1.282   2.249   0.700 -0.2112 -0.0580  0.4341
  251EOL    COH  251   3.727   4.494   4.548  0.0805 -0.2821 -0.1401
  252EOL    COH  252   3.271   2.725   3.284 -0.3111  0.0113 -0.0237
  253EOL    COH  253   2.066   3.476   3.179 -0.1907 -0.1017  0.0450
  254EOL    COH  254   0.491   2.534   2.983 -0.0183 -0.3633 -0.0845
  255EOL    COH  255   6.124   5.359   5.213  0.1060  0.0214 -0.1936
  256EOL    COH  256   5.976   6.402   1.491  0.1629 -0.0592  0.1465
  257EOL    COH  257   1.469   6.241   0.201 -0.2958 -0.1113  0.1492
  258EOL    COH  258   5.960   0.961   1.403  0.0438  0.0245  0.0562
  259EOL    COH  259   3.749   2.084   4.246  0.1958  0.4103 -0.0601
  260EOL    COH  260   2.869   3.493   0.451 -0.1792 -0.3692 -0.0422
  261EOL    COH  261   5.215   0.576   4.495 -0.2190  0.1349 -0.0917
  262EOL    COH  262   2.866   1.017   1.706  0.1002 -0.0380 -0.1585
  263EOL    COH  263   2.407   3.273   5.340 -0.2107 -0.2620  0.1585
  264EOL    COH  264   3.621   4.507   3.481  0.0627 -0.1181 -0.0432
  265EOL    COH  265   3.361   4.775   3.831  0.0336  0.1184 -0.0425
  266EOL    COH  266   1.329   5.160   5.054 -0.0922 -0.0178  0.0809
  267EOL    COH  267   3.076   5.582   5.878 -0.0471 -0.2554 -0.0153
  268EOL    COH  268   3.966   0.587   3.279 -0.1875  0.2701 -0.1604
  269EOL    COH  269   0.270   2.323   1.277 -0.2330 -0.0506  0.3078
  270EOL    COH  270   6.219   5.938   5.679  0.0528 -0.0480  0.3846
  271EOL    COH  271   3.385   1.319   5.030  0.3302 -0.0346 -0.2306
  272EOL    COH  272   2.816   3.932   6.069  0.2190  0.2387  0.1187
  273EOL    COH  273   2.769   4.198   1.570 -0.1063 -0.1088 -0.0925
  274EOL    COH  274   3.121   0.726   1.966  0.0706  0.1508 -0.0959
  275EOL    COH  275   5.900   3.467   2.292  0.1006 -0.2670 -0.3098
  276EOL    COH  276   4.334   4.377   6.212 -0.0487  0.2782  0.0126
  277EOL    COH  277   5.129   5.168   3.574 -0.0464  0.1792 -0.0910
  278EOL    COH  278   2.562   4.060   2.535  0.3100  0.1997  0.0896
  279EOL    COH  279   5.397   4.765   1.734  0.2512 -0.0222  0.2438
  280EOL    COH  280   4.238   4.000   5.231  0.1380  0.1194  0.0995
  281EOL    COH  281   0.148   0.740   3.542 -0.2327  0.1162  0.1149
  282EOL    COH  282   6.149   1.022   4.362 -0.0675  0.0990 -0.1321
  283EOL    COH  283   1.980   4.406   5.040 -0.3431  0.0019 -0.1819
  284EOL    COH  284   6.300   6.066   2.659  0.2475  0.2584 -0.1786
  285EOL    COH  285   1.055   3.329   1.294  0.1415 -0.1829 -0.0572
  286EOL    COH  286   5.529   6.180   0.585 -0.1354 -0.2716 -0.2267
  287EOL    COH  287   2.259   3.385   0.854 -0.0883 -0.3150  0.1678
  288EOL    COH  288   2.264   2.162   4.613 -0.3648  0.1771  0.1129
  289EOL    COH  289   1.731   1.541   0.846  0.2169  0.3157  0.1733
  290EOL    COH  290   6.079   2.635   1.358  0.1461  0.0119  0.2166
  291EOL    COH  291   5.062   2.569   4.803 -0.0870 -0.2951  0.0287
  292EOL    COH  292   6.281   0.678   0.794  0.1424  0.0517  0.1152
  293EOL    COH  293   4.302   3.779   3.882  0.2934 -0.1087 -0.1014
  294EOL    COH  294   0.274   0.074   1.182  0.3051 -0.2010  0.1370
  295EOL    COH  295   4.709   5.648   1.342  0.0723 -0.0039 -0.1592
  296EOL    COH  296   3.926   1.008   3.075 -0.1177  0.0336  0.0726
  297EOL    COH  297   3.125   2.737   4.272 -0.1209 -0.0088  0.0187
  298EOL    COH  298   0.677   2.615   0.603 -0.1343 -0.0569 -0.1064
  299EOL    COH  299   6.170   6.270   3.801  0.4681 -0.5563  0.2339
  300EOL    COH  300   1.279   5.566   0.908  0.0911 -0.0757  0.0030
  301EOL    COH  301   2.281   4.913   4.120 -0.1510 -0.1184  0.2999
  302EOL    COH  302   3.157   6.259   2.332  0.0031 -0.2006  0.0125
  303EOL    COH  303   1.506   0.433   1.641  0.1750  0.3056  0.0728
  304EOL    COH  304   0.601   1.611   2.473  0.1571 -0.1107  0.3091
  305EOL    COH  305   4.371   3.043   1.337  0.1291  0.1605 -0.5592
  306EOL    COH  306   4.203   1.460   3.137 -0.3235  0.1883 -0.0154
  307EOL    COH  307   5.527   5.231   5.449  0.1252 -0.1056  0.0723
  308EOL    COH  308   5.181   2.197   6.304  0.0131  0.0439  0.1640
  309EOL    COH  309   2.850   2.075   1.776 -0.2723  0.0220 -0.0669
  310EOL    COH  310   1.585   2.767   3.913  0.3294  0.1000 -0.1215
  311EOL    COH  311   4.520   1.848   0.545  0.2307 -0.2846 -0.1175
  312EOL    COH  312   5.099   1.193   0.728  0.0599  0.1875 -0.2941
  313EOL    COH  313   2.789   0.102   2.111  0.1955 -0.2390 -0.2576
  314EOL    COH  314   5.424   0.893   1.327 -0.0136  0.1828 -0.0121
  315EOL    COH  315   4.465   3.940   3.439  0.3439 -0.1047 -0.0261
  316EOL    COH  316   1.363   5.297   3.808  0.0562 -0.1247 -0.0350
  317EOL    COH  317   1.529   2.733   0.861 -0.1429 -0.0790  0.1691
  318EOL    COH  318   2.799   0.635   0.662 -0.0667  0.2366 -0.3243
  319EOL    COH  319   1.750   2.427   1.515 -0.0614  0.2387 -0.1477
  320EOL    COH  320   4.018   0.949   3.539  0.0155  0.1502 -0.1002
  321EOL    COH  321   5.876   5.749   5.291  0.1318 -0.0654  0.3399
  322EOL    COH  322   4.645   5.106   2.542 -0.3132 -0.0288  0.2299
  323EOL    COH  323   2.519   4.233   5.267  0.2962  0.1811  0.1727
  324EOL    COH  324   2.888   2.039   5.530  0.3701 -0.3160  0.0150
  325EOL    COH  325   2.555   1.710   1.927  0.1496  0.0188 -0.0203
  326EOL    COH  326   0.609   2.312   3.426 -0.0545  0.2271  0.1454
  327EOL    COH  327   5.744   3.021   3.205  0.1767 -0.2758 -0.2698
  328EOL    COH  328   0.374   2.218   5.114 -0.0136  0.1271 -0.0917
  329EOL    COH  329   1.267   5.929   3.750  0.1313  0.0234 -0.2979
  330EOL    COH  330   1.085   0.017   6.221 -0.1768  0.3748 -0.2965
  331EOL    COH  331   2.047   0.622   2.579 -0.5623 -0.0790 -0.1009
  332EOL    COH  332   3.425   3.166   1.885 -0.0958  0.0421 -0.2203
  333EOL    COH  333   0.730   3.085   2.988 -0.2206 -0.0211 -0.0879
  334EOL    COH  334   0.667   4.618   2.627  0.2478  0.1433 -0.0807
  335EOL    COH  335   1.093   4.770   4.652  0.0327 -0.0448  0.1281
  336EOL    COH  336   5.294   0.807   6.217  0.0559  0.1818 -0.0670
  337EOL    COH  337   1.278   3.827   1.600  0.0103 -0.3681  0.1517
  338EOL    COH  338   1.061   3.746   5.892  0.0634  0.1886  0.0169
  339EOL    COH  339   6.058   4.035   6.274  0.1850  0.1172  0.1774
  340EOL    COH  340   2.451   4.006   1.147  0.1253 -0.1235 -0.4756
  341EOL    COH  341   2.382   2.163   2.694 -0.0347 -0.0104  0.0989
  342EOL    COH  342   1.362   3.722   5.523 -0.0978  0.1622 -0.1695
  343EOL    COH  343   3.873   2.843   3.071 -0.0544  0.0494  0.1705
  344EOL    COH  344   5.017   2.619   1.175 -0.0023  0.4123 -0.0257
  345EOL    COH  345   5.750   6.167   2.092 -0.1071  0.2045  0.0839
  346EOL    COH  346   4.966   1.755   0.686 -0.2254  0.1744 -0.0575
  347EOL    COH  347   2.101   0.456   3.047  0.2307 -0.3405 -0.0955
  348EOL    COH  348   3.939   0.852   0.961 -0.1754  0.1264 -0.0331
  349EOL    COH  349   3.250   6.032   4.172 -0.0677 -0.0622  0.1685
  350EOL    COH  350   0.556   4.405   6.223 -0.3395 -0.2311  0.0088
  351EOL    COH  351   0.543   5.494   4.660 -0.0218 -0.0614  0.1104
  352EOL    COH  352   0.200   3.546   3.752 -0.2923 -0.0561 -0.0166
  353EOL    COH  353   0.558   0.080   5.035 -0.0435 -0.1700  0.0386
  354EOL    COH  354   1.545   3.704   2.000 -0.0173  0.1257 -0.0903
  355EOL    COH  355   6.211   2.766   3.321  0.0809  0.2946  0.1031
  356EOL    COH  356   2.973   4.932   2.867  0.4081 -0.0430  0.2410
  357EOL    COH  357   6.381   3.921   0.842 -0.2237  0.0667  0.2022
  358EOL    COH  358   0.179   0.807   1.845 -0.0313  0.2094 -0.2026
  359EOL    COH  359   1.809   1.221   5.895  0.0238  0.0046  0.0532
  360EOL    COH  360   5.802   2.340   1.701  0.1374  0.0468  0.3790
  361EOL    COH  361   3.268   0.146   3.590 -0.2103  0.1069 -0.1104
  362EOL    COH  362   5.213   1.183   3.679 -0.2007  0.3598 -0.0474
  363EOL    COH  363   2.831   4.627   0.729  0.1778 -0.0149 -0.3018
  364EOL    COH  364   5.454   1.311   1.108 -0.0053 -0.2075  0.0685
  365EOL    COH  365   2.141   1.763   2.905  0.0152 -0.1812 -0.0569
  366EOL    COH  366   6.329   2.058   1.016 -0.0642 -0.0614  0.0285
  367EOL    COH  367   2.226   5.725   5.498  0.0923  0.0564 -0.0716
  368EOL    COH  368   2.642   1.738   2.985 -0.1645  0.1774  0.3012
  369EOL    COH  369   4.899   4.129   0.407 -0.0676  0.3278  0.0825
  370EOL    COH  370   6.204   2.704   4.394  0.0244 -0.0455  0.0063
  371EOL    COH  371   0.101   5.084   1.354 -0.1410  0.2345 -0.0469
  372EOL    COH  372   3.977   4.960   4.262  0.0026  0.3518  0.1115
  373EOL    COH  373   1.891   3.928   5.263 -0.1996  0.2035 -0.1191
  374EOL    COH  374   5.034   0.522   3.500 -0.0520 -0.0978  0.0795
  375EOL    COH  375   5.991   0.311   3.653  0.1724  0.1542  0.2086
  376EOL    COH  376   5.736   0.479   3.228  0.0953  0.0488  0.0134
  377EOL    COH  377   4.788   4.372   6.417 -0.2000 -0.0297 -0.6084
  378EOL    COH  378   0.389   6.291   4.557  0.0600  0.4156 -0.1273
  379EOL    COH  379   4.102   6.026   0.788  0.2539  0.0146 -0.1012
  380EOL    COH  380   3.959   5.540   0.972 -0.0039  0.0882 -0.0342
  381EOL    COH  381   1.528   6.251   1.725  0.0866 -0.2510 -0.1419
  382EOL    COH  382   3.594   1.500   3.067  0.0365  0.0248 -0.1926
  383EOL    COH  383   4.034   6.066   0.235 -0.1630  0.4217  0.2472
  384EOL    COH  384   0.697   1.421   6.288 -0.0298 -0.0523 -0.2400
  385EOL    COH  385   4.800   1.006   0.014 -0.0509  0.3394 -0.0483
  386EOL    COH  386   0.174   3.575   4.757 -0.2169 -0.0436  0.2378
  387EOL    COH  387   5.323   6.077   1.009 -0.1152  0.1792 -0.0759
  388EOL    COH  388   2.851   4.127   2.065  0.0649  0.0652 -0.2391
  389EOL    COH  389   0.750   6.150   1.243 -0.3709  0.0503 -0.5160
  390EOL    COH  390   1.986   3.571   1.790 -0.0940 -0.2036 -0.3511
  391EOL    COH  391   5.392   1.719   6.339  0.0760  0.0946 -0.0839
  392EOL    COH  392   2.363   1.805   4.138 -0.0683  0.1506 -0.1689
  393EOL    COH  393   0.249   5.902   1.167  0.0677 -0.0545  0.0799
  394EOL    COH  394   2.622   0.784   2.980 -0.1465  0.3600 -0.0374
  395EOL    COH  395   2.258   1.483   5.964 -0.2672  0.0454  0.0818
  396EOL    COH  396   0.136   1.765   5.967 -0.5465 -0.2052 -0.1369
  397EOL    COH  397   3.045   3.813   3.622  0.0949  0.3675 -0.0656
  398EOL    COH  398   1.179   1.280   3.781  0.0462 -0.0073 -0.1143
  399EOL    COH  399   0.678   2.119   2.735 -0.0068 -0.4432  0.1878
  400EOL    COH  400   3.441   4.119   4.284 -0.2352 -0.2589  0.3934
  401EOL    COH  401   0.584   4.530   0.750 -0.0267  0.2866  0.0309
  402EOL    COH  402   2.820   0.131   3.331 -0.2450 -0.0273 -0.1157
  403EOL    COH  403   2.528   5.273   6.386  0.0776  0.2102  0.0873
  404EOL    COH  404   1.340   3.990   3.159 -0.0293  0.1013  0.0477
  405EOL    COH  405   3.971   2.291   4.627 -0.1167 -0.2338 -0.1256
  406EOL    COH  406   0.613   0.957   4.946  0.2994  0.4087  0.0574
  407EOL    COH  407   4.389   0.975   0.295 -0.0108 -0.1859  0.1498
  408EOL    COH  408   1.075   2.470   1.582 -0.3571 -0.0649  0.3146
  409EOL    COH  409   0.291   1.467   1.658  0.1930 -0.0764  0.0242
  410EOL    COH  410   2.978   2.766   1.021  0.1089  0.4287  0.1818
  411EOL    COH  411   4.933   2.491   4.342 -0.0654  0.0375 -0.1705
  412EOL    COH  412   0.935   1.906   0.979 -0.0478 -0.4104  0.3045
  413EOL    COH  413   3.290   4.985   0.497  0.1048  0.1976 -0.1682
  414EOL    COH  414   3.618   6.034   4.507  0.2504 -0.2555 -0.0397
  415EOL    COH  415   5.561   5.860   4.336 -0.1280 -0.0233  0.2833
  416EOL    COH  416   0.452   5.152   2.400  0.4333  0.2857  0.0280
  417EOL    COH  417   4.734   3.611   5.911  0.1138 -0.1678 -0.0475
  418EOL    COH  418   3.955   0.126   1.097  0.0693  0.1783  0.0256
  419EOL    COH  419   5.865   4.250   2.907  0.0011  0.1496  0.0042
  420EOL    COH  420   2.385   3.685   5.830  0.2966  0.2444  0.3270
  421EOL    COH  421   4.449   1.699   5.863 -0.1021 -0.2977  0.0075
  422EOL    COH  422   5.119   5.639   5.595  0.3555  0.0345 -0.2072
  423EOL    COH  423   6.234   1.136   1.827 -0.3198  0.0012  0.1156
  424EOL    COH  424   5.173   4.476   6.021  0.1794  0.3389  0.0263
  425EOL    COH  425   1.606   4.742   5.209  0.2364 -0.0114  0.0074
  426EOL    COH  426   4.645   4.701   5.873 -0.1954 -0.0060 -0.0542
  427EOL    COH  427   5.279   0.911   3.010  0.1377 -0.2248  0.0187
  428EOL    COH  428   0.368   1.874   3.546  0.0526  0.1577  0.1081
  429EOL    COH  429   1.983   3.453   5.503 -0.0716  0.0781  0.0821
  430EOL    COH  430   3.449   4.135   0.833 -0.0424 -0.0151  0.1296
  431EOL    COH  431   3.042   1.030   0.729 -0.0282  0.0876  0.3136
  432EOL    COH  432   3.066   1.769   1.372  0.0504 -0.3480  0.0260
  433EOL    COH  433   1.002   4.108   4.096  0.1993 -0.0867  0.0367
  434EOL    COH  434   1.956   1.928   3.401  0.0673 -0.0081 -0.0768
  435EOL    COH  435   0.265   3.213   5.446  0.2226  0.1809  0.1598
  436EOL    COH  436   1.686   3.176   1.997 -0.1717  0.2700  0.1531
  437EOL    COH  437   3.493   2.882   5.301  0.0960  0.0067 -0.4323
  438EOL    COH  438   4.557   4.685   4.879 -0.1974  0.0874  0.1301
  439EOL    COH  439   2.448   3.793   3.891 -0.2881  0.1824 -0.0396
  440EOL    COH  440   6.178   0.469   0.324  0.0364  0.0380 -0.2052
  441EOL    COH  441   5.843   5.453   2.036 -0.2537 -0.1520 -0.1149
  442EOL    COH  442   4.469   0.467   0.432  0.0700  0.1288  0.0573
  443EOL    COH  443   1.015   1.841   2.322 -0.0123  0.0088  0.0979
  444EOL    COH  444   2.440   4.998   0.922  0.0715  0.1531  0.0630
  445EOL    COH  445   3.431   4.263   2.782 -0.0195 -0.4307  0.0033
  446EOL    COH  446   3.858   5.654   4.755 -0.1816 -0.1582  0.2164
  447EOL    COH  447   4.714   3.922   2.877 -0.1846  0.0640 -0.0002
  448EOL    COH  448   6.412   4.423   0.053  0.0663  0.3465 -0.1056
  449EOL    COH  449   6.396   1.541   0.863 -0.0384  0.0024 -0.0471
  450EOL    COH  450   5.720   0.545   5.729  0.1112  0.1703  0.0451
  451EOL    COH  451   4.620   2.966   0.168 -0.1995 -0.1615 -0.2447
  452EOL    COH  452   3.578   0.814   0.564  0.5190 -0.0962 -0.4309
  453EOL    COH  453   4.769   0.132   5.390 -0.0413 -0.1040  0.1631
  454EOL    COH  454   2.416   1.098   6.261  0.2304  0.1363 -0.1963
  455EOL    COH  455   4.502   4.802   0.119 -0.0192 -0.1587  0.2222
  456EOL    COH  456   5.814   0.493   0.654 -0.2642 -0.2687  0.0123
  457EOL    COH  457   5.726   6.043   4.840 -0.2708 -0.1331  0.0303
  458EOL    COH  458   3.382   5.081   1.255  0.1481  0.1104 -0.0083
  459EOL    COH  459   0.424   3.345   3.298 -0.0979  0.0002  0.0812
  460EOL    COH  460   0.152   0.517   2.643  0.1659  0.1282  0.1180
  461EOL    COH  461   4.947   4.331   0.924 -0.3294 -0.0791 -0.0768
  462EOL    COH  462   1.466   5.814   4.737  0.1684 -0.0399 -0.0168
  463EOL    COH  463   0.338   5.842   5.564 -0.0473 -0.0663 -0.4225
  464EOL    COH  464   2.977   4.198   1.080 -0.1659  0.0826 -0.0153
  465EOL    COH  465   1.550   6.379   3.921 -0.1885 -0.0387  0.0594
  466EOL    COH  466   1.526   4.786   6.426  0.1022 -0.2952 -0.0116
  467EOL    COH  467   3.866   5.042   2.708  0.2944  0.1650 -0.1996
  468EOL    COH  468   4.802   4.001   2.342 -0.2755  0.1717  0.1801
  469EOL    COH  469   1.702   3.155   4.761 -0.0007 -0.2157 -0.0427
  470EOL    COH  470   5.906   4.497   0.095  0.1061 -0.0707  0.0065
  471EOL    COH  471   5.012   3.953   6.273 -0.1017  0.0728  0.1402
  472EOL    COH  472   3.682   5.002   5.548  0.0540 -0.2119  0.3003
  473EOL    COH  473   4.895   3.914   4.068 -0.0708 -0.2283  0.0629
  474EOL    COH  474   0.062   2.900   5.812  0.0834 -0.0496  0.1050
  475EOL    COH  475   1.967   0.962   3.343  0.1539  0.0642  0.2613
  476EOL    COH  476   2.309   0.341   0.397 -0.1108 -0.0915  0.2948
  477EOL    COH  477   6.315   2.015   4.288 -0.0396  0.2230  0.2817
  478EOL    COH  478   5.471   4.546   1.044 -0.0469 -0.1483  0.1059
  479EOL    COH  479   1.356   2.071   2.013 -0.2751  0.1726 -0.3555
  480EOL    COH  480   5.549   4.836   6.013  0.0269  0.0296 -0.0860
  481EOL    COH  481   4.487   1.562   2.489  0.1741  0.3205  0.5168
  482EOL    COH  482   3.881   0.594   4.256 -0.0383 -0.2279 -0.0982
  483EOL    COH  483   2.985   0.746   3.395 -0.0280  0.1849  0.3508
  484EOL    COH  484   0.015   0.529   4.303  0.1736 -0.1279  0.0657
  485EOL    COH  485   0.109   2.772   1.603  0.3193  0.3373  0.1810
  486EOL    COH  486   2.008   4.933   5.464 -0.0428 -0.0326 -0.1623
  487EOL    COH  487   0.983   4.130   3.489 -0.2381  0.0008  0.0774
  488EOL    COH  488   0.767   1.602   5.842  0.0929 -0.1857 -0.0036
  489EOL    COH  489   3.788   4.802   6.088 -0.3249 -0.1508  0.1378
  490EOL    COH  490   1.974   0.338   1.472 -0.0740  0.2154 -0.1300
  491EOL    COH  491   6.375   1.447   5.468 -0.1396  0.1958 -0.0869
  492EOL    COH  492   4.792   2.336   3.065  0.0773 -0.1946 -0.3376
  493EOL    COH  493   5.912   1.076   4.823  0.2414 -0.1839  0.0315
  494EOL    COH  494   3.118   3.417   2.290 -0.1933 -0.1127  0.1851
  495EOL    COH  495   1.348   3.700   1.032  0.0805  0.1716  0.1064
  496EOL    COH  496   2.599   3.175   4.894  0.0655 -0.0759  0.2951
  497EOL    COH  497   2.958   3.267   6.177 -0.0245  0.0338  0.0343
  498EOL    COH  498   3.025   4.921   3.419  0.0379 -0.1327  0.0180
  499EOL    COH  499   5.159   3.621   2.643 -0.1258  0.2991 -0.0154
  500EOL    COH  500   5.079   6.376   6.181  0.1804 -0.0533  0.0622
  501EOL    COH  501   1.523   5.572   4.265 -0.3346  0.0689  0.1199
  502EOL    COH  502   6.369   5.006   3.166 -0.2460  0.3302  0.1098
  503EOL    COH  503   0.188   3.870   2.399 -0.4571 -0.0479  0.0598
  504EOL    COH  504   2.666   3.581   3.262 -0.2699  0.0923  0.1393
  505EOL    COH  505   6.087   4.287   1.865  0.0070  0.2140  0.0870
  506EOL    COH  506   1.299   4.417   0.303  0.0989  0.1772  0.1815
  507EOL    COH  507   1.578   5.998   1.253  0.4373 -0.1772 -0.0169
  508EOL    COH  508   3.206   4.623   4.494 -0.1527 -0.0128 -0.1053
  509EOL    COH  509   4.105   0.015   1.549 -0.2052 -0.1565 -0.0106
  510EOL    COH  510   1.493   0.958   5.613  0.1259 -0.0601 -0.0747
  511EOL    COH  511   5.242   4.182   1.853  0.0181  0.0996  0.0902
  512EOL    COH  512   0.514   2.145   2.221 -0.0790 -0.0100 -0.0597
  513EOL    COH  513   4.381   5.657   0.205  0.1858  0.1023 -0.2388
  514EOL    COH  514   3.549   2.287   0.750 -0.2204 -0.0983 -0.2811
  515EOL    COH  515   0.159   0.830   5.525  0.3630  0.0299  0.3373
  516EOL    COH  516   1.821   4.814   5.916 -0.1736 -0.3914 -0.0237
  517EOL    COH  517   3.242   2.180   4.525 -0.2314  0.0109  0.1085
  518EOL    COH  518   1.618   0.052   3.408 -0.0389  0.0794 -0.1352
  519EOL    COH  519   4.974   3.047   4.667  0.2462 -0.0278  0.0353
  520EOL    COH  520   3.135   1.283   6.096 -0.0073 -0.0253 -0.0486
  521EOL    COH  521   2.575   4.525   4.355 -0.2085  0.4536  0.1347
  522EOL    COH  522   1.717   2.876   2.368 -0.1055 -0.0897 -0.0670
  523EOL    COH  523   1.348   6.281   4.691  0.1741  0.1277 -0.1092
  524EOL    COH  524   6.068   3.024   6.152 -0.2158  0.2573 -0.0852
  525EOL    COH  525   1.408   4.595   2.351  0.2074 -0.2803 -0.0707
  526EOL    COH  526   5.912   3.961   4.101  0.0136 -0.2316 -0.3234
  527EOL    COH  527   4.143   3.690   2.464  0.0037 -0.1905 -0.0836
  528EOL    COH  528   3.618   1.937   6.218 -0.0808 -0.1864 -0.0559
  529EOL    COH  529   3.302   1.285   0.412  0.1244  0.0595  0.2741
  530EOL    COH  530   3.877   1.437   4.887  0.0830  0.0614  0.0284
  531EOL    COH  531   5.088   3.562   5.413  0.1149  0.1214  0.2911
  532EOL    COH  532   4.873   3.184   1.041 -0.0267  0.1258  0.0815
  533EOL    COH  533   2.073   0.548   6.333  0.0245  0.1481  0.2589
  534EOL    COH  534   5.174   5.277   2.399  0.0548 -0.0128 -0.0141
  535EOL    COH  535   1.501   1.592   0.151  0.1695  0.2851 -0.2049
  536EOL    COH  536   6.298   2.666   0.479  0.0815  0.0466  0.3005
  537EOL    COH  537   4.396   2.190   1.377  0.0173  0.0082 -0.0414
  538EOL    COH  538   0.379   4.095   1.127  0.1821 -0.0743  0.1874
  539EOL    COH  539   5.851   0.526   1.146  0.1536 -0.0890  0.0040
  540EOL    COH  540   4.757   4.704   2.862  0.1618  0.0268  0.2765
  541EOL    COH  541   4.103   4.467   1.984  0.0938  0.3888 -0.0328
  542EOL    COH  542   3.044   3.877   3.099  0.1134  0.0809 -0.2223
  543EOL    COH  543   6.158   3.686   5.450  0.2387  0.0522 -0.0942
  544EOL    COH  544   6.136   0.796   5.986 -0.1433  0.1278 -0.1159
  545EOL    COH  545   6.218   3.398   3.245  0.2453  0.0567 -0.3043
  546EOL    COH  546   2.273   4.017   4.365  0.1773 -0.2379 -0.3678
  547EOL    COH  547   3.834   6.128   2.936 -0.0501  0.0159  0.2224
  548EOL    COH  548   1.201   6.302   5.653  0.1902  0.0310  0.1570
  549EOL    COH  549   0.563   0.264   2.743 -0.0037  0.1195 -0.1549
  550EOL    COH  550   4.862   1.062   3.264  0.0546 -0.1625  0.0669
  551EOL    COH  551   4.624   2.714   6.145 -0.0068 -0.0064 -0.0140
  552EOL    COH  552   3.348   5.405   5.497  0.0393  0.0355  0.0928
  553EOL    COH  553   4.243   3.011   5.578 -0.1179 -0.1019 -0.2626
  554EOL    COH  554   3.464   1.115   2.608  0.2026  0.0340  0.1104
  555EOL    COH  555   4.429   0.670   3.506 -0.1155  0.5405 -0.1516
  556EOL    COH  556   6.258   0.594   2.241  0.0601  0.0277 -0.1316
  557EOL    COH  557   3.897   1.380   2.735  0.0516 -0.0810  0.0319
  558EOL    COH  558   0.871   3.244   3.558  0.3211 -0.0358 -0.2495
  559EOL    COH  559   0.082   2.191   2.584 -0.1428 -0.2679 -0.0132
  560EOL    COH  560   5.195   3.956   3.580 -0.1547 -0.1785  0.3290
  561EOL    COH  561   1.333   1.235   2.857  0.0478 -0.0203  0.2723
  562EOL    COH  562   6.069   0.524   2.693 -0.1057  0.0812  0.1008
  563EOL    COH  563   2.420   0.449   1.316  0.2035 -0.2424  0.0484
  564EOL    COH  564   3.994   4.686   0.083  0.2064  0.0619 -0.0211
  565EOL    COH  565   0.226   0.214   5.420 -0.0578 -0.3903 -0.1418
  566EOL    COH  566   4.440   3.349   2.849  0.0130 -0.0415 -0.0894
  567EOL    COH  567   1.754   2.780   3.177 -0.2219 -0.1029  0.1381
  568EOL    COH  568   2.162   2.302   1.235  0.1582 -0.3480 -0.5409
  569EOL    COH  569   3.583   1.698   2.537 -0.0793  0.1663  0.0979
  570EOL    COH  570   4.592   1.859   4.865  0.2233  0.1591  0.1577
  571EOL    COH  571   5.700   6.408   3.338 -0.1174  0.1477  0.1349
  572EOL    COH  572   2.351   1.236   1.836  0.0646 -0.0894  0.1485
  573EOL    COH  573   5.192   2.258   3.370  0.4091  0.1747 -0.2044
  574EOL    COH  574   3.436   2.900   1.397 -0.0220 -0.0254 -0.2334
  575EOL    COH  575   5.443   1.725   5.778  0.1233  0.0580  0.0022
  576EOL    COH  576   3.485   2.581   1.904 -0.1814 -0.1386  0.1395
  577EOL    COH  577   3.179   1.463   2.826 -0.1158  0.0884  0.2038
  578EOL    COH  578   3.221   0.628   3.811  0.0246 -0.1523 -0.0399
  579EOL    COH  579   2.185   2.709   5.451  0.0395 -0.1706 -0.0085
  580EOL    COH  580   1.561   4.644   0.999 -0.0818  0.1450 -0.0966
  581EOL    COH  581   5.422   2.717   5.619 -0.2856  0.1639 -0.0317
  582EOL    COH  582   0.848   2.139   1.885  0.2563  0.3591  0.3397
  583EOL    COH  583   3.661   2.373   5.045  0.3823 -0.1427  0.0059
  584EOL    COH  584   5.444   1.847   0.948  0.1452  0.0625 -0.0944
  585EOL    COH  585   5.186   2.267   5.754  0.0002 -0.0130  0.0587
  586EOL    COH  586   3.825   0.540   0.110  0.1389  0.2156  0.0273
  587EOL    COH  587   5.605   4.445   2.060  0.2755  0.0404  0.0898
  588EOL    COH  588   0.489   1.541   1.162 -0.0563  0.1531  0.0709
  589EOL    COH  589   0.836   5.646   1.765 -0.1687  0.3129  0.2226
  590EOL    COH  590   3.064   5.045   4.696  0.0874 -0.2720  0.1543
  591EOL    COH  591   3.875   4.230   5.962 -0.1627  0.2373  0.2978
  592EOL    COH  592   4.013   3.307   3.201  0.0947  0.0809 -0.0042
  593EOL    COH  593   5.180   0.232   4.140 -0.2234  0.1170 -0.2039
  594EOL    COH  594   3.730   4.557   4.069 -0.1838  0.3925 -0.1970
  595EOL    COH  595   0.108   1.816   1.386  0.0094 -0.1356 -0.2823
  596EOL    COH  596   2.942   0.193   1.092  0.0934  0.1136 -0.1837
  597EOL    COH  597   6.157   5.212   1.622  0.2993  0.2740  0.1378
  598EOL    COH  598   1.507   0.327   6.380 -0.0648  0.3699 -0.1121
  599EOL    COH  599   2.961   4.628   4.030  0.0141  0.1344 -0.1115
  600EOL    COH  600   1.863   1.325   4.128  0.2818  0.2785  0.0426
  601EOL    COH  601   5.239   3.992   5.228 -0.2215  0.1760 -0.1766
  602EOL    COH  602   1.662   1.969   0.561  0.2002 -0.1905 -0.0137
  603EOL    COH  603   4.570   2.228   0.222 -0.2736  0.1458 -0.0734
  604EOL    COH  604   0.990   4.342   3.005  0.1381  0.4856 -0.0966
  605EOL    COH  605   0.194   5.701   2.397  0.1702 -0.0385 -0.0338
  606EOL    COH  606   1.517   1.235   5.152 -0.0029  0.1733 -0.0382
  607EOL    COH  607   5.245   3.554   0.095 -0.2734 -0.1470 -0.0911
  608EOL    COH  608   0.998   0.319   0.154  0.0655 -0.0603  0.2692
  609EOL    COH  609   2.007   1.599   0.434 -0.2202 -0.1796  0.1683
  610EOL    COH  610   5.936   1.712   3.495  0.1933 -0.0878 -0.0240
  611EOL    COH  611   0.755   6.182   5.391  0.0950  0.1622 -0.1010
  612EOL    COH  612   3.876   4.031   2.138  0.0371 -0.1401  0.0826
  613EOL    COH  613   0.640   5.680   2.605  0.3482 -0.1693 -0.0996
  614EOL    COH  614   1.913   3.908   5.746  0.1550  0.1934 -0.3358
  615EOL    COH  615   2.415   1.734   3.500  0.1529 -0.1307 -0.2747
  616EOL    COH  616   5.963   4.460   4.196 -0.0801  0.1289 -0.2623
  617EOL    COH  617   0.263   5.960   2.993 -0.0708  0.1623  0.1380
  618EOL    COH  618   0.538   0.189   4.133  0.2011  0.0097  0.2259
  619EOL    COH  619   6.184   3.521   1.135  0.2194 -0.2673 -0.0104
  620EOL    COH  620   5.548   4.909   3.377 -0.1237  0.1413 -0.0870
  621EOL    COH  621   3.165   5.093   4.205  0.1519 -0.1679  0.2309
  622EOL    COH  622   2.159   1.909   2.245 -0.1237 -0.1255  0.0127
  623EOL    COH  623   3.270   1.243   5.509  0.2393  0.3088 -0.1287
  624EOL    COH  624   0.735   0.637   4.479 -0.1841 -0.2168  0.1722
  625EOL    COH  625   4.568   2.842   4.437  0.2058 -0.0586 -0.0050
  626EOL    COH  626   6.077   1.043   5.490 -0.0497 -0.4358  0.1337
  627EOL    COH  627   1.122   3.398   5.112  0.1282  0.1450 -0.1815
  628EOL    COH  628   0.664   3.585   4.300 -0.1028 -0.0738 -0.1573
  629EOL    COH  629   0.065   1.489   3.657  0.4440 -0.3439 -0.1330
  630EOL    COH  630   0.993   3.164   0.410 -0.1981 -0.1391  0.3069
  631EOL    COH  631   2.191   3.184   4.598  0.2541 -0.1889  0.0956
  632EOL    COH  632   6.229   3.879   2.101  0.0527 -0.0020 -0.2026
  633EOL    COH  633   2.186   3.071   2.156  0.0112  0.0023 -0.1222
  634EOL    COH  634   3.904   5.194   1.410 -0.2057  0.0416  0.0469
  635EOL    COH  635   3.714   2.822   2.505 -0.0061 -0.0560  0.1756
  636EOL    COH  636   3.372   0.779   1.549 -0.0866  0.1450  0.0745
  637EOL    COH  637   2.404   3.351   0.389  0.1119 -0.0085 -0.1339
  638EOL    COH  638   4.709   1.920   2.740 -0.1917 -0.1586  0.2307
  639EOL    COH  639   5.476   0.756   3.560 -0.1031 -0.2066  0.0159
  640EOL    COH  640   0.162   4.258   2.129  0.0550  0.2374  0.2568
  641EOL    COH  641   4.842   5.855   2.283 -0.3569 -0.1135 -0.4406
  642EOL    COH  642   4.900   2.340   2.069 -0.2343  0.0395  0.1294
  643EOL    COH  643   1.622   1.000   4.755 -0.2130  0.1065 -0.0297
  644EOL    COH  644   4.402   3.709   2.054 -0.1045 -0.1985  0.1929
  645EOL    COH  645   1.234   3.859   0.468 -0.1895 -0.0262 -0.2464
  646EOL    COH  646   0.191   3.715   1.314 -0.1428  0.0624  0.0242
  647EOL    COH  647   2.090   5.380   2.748  0.2131  0.1615 -0.2097
  648EOL    COH  648   4.880   2.870   0.632 -0.0034  0.0445  0.0346
  649EOL    COH  649   2.431   6.077   6.393 -0.0239  0.0818  0.2344
  650EOL    COH  650   1.043   6.323   0.452 -0.1341  0.1264 -0.0121
  651EOL    COH  651   0.234   3.663   5.212  0.0340 -0.2402  0.1036
  652EOL    COH  652   2.607   1.359   4.506  0.2023  0.1015  0.1791
  653EOL    COH  653   5.255   0.844   2.481  0.1082 -0.0344  0.2012
  654EOL    COH  654   1.480   4.049   5.898 -0.0410 -0.0325 -0.0281
  655EOL    COH  655   1.200   5.790   1.423  0.0836  0.3527  0.3240
  656EOL    COH  656   2.546   6.326   3.777  0.0336 -0.0272 -0.2104
  657EOL    COH  657   4.828   4.786   1.626  0.0118  0.0694 -0.1783
  658EOL    COH  658   4.056   0.441   4.781 -0.2457 -0.1467 -0.2000
  659EOL    COH  659   1.000   5.272   1.307 -0.1753  0.3223 -0.1318
  660EOL    COH  660   5.160   4.741   4.590 -0.2936  0.0706 -0.0325
  661EOL    COH  661   2.758   5.804   3.869  0.0630  0.3853 -0.2366
  662EOL    COH  662   5.590   6.226   3.934  0.2114 -0.1362  0.2341
  663EOL    COH  663   3.754   2.138   1.957 -0.2729  0.2748 -0.1956
  664EOL    COH  664   2.075   2.218   4.160 -0.0705 -0.0546 -0.0187
  665EOL    COH  665   5.165   2.857   5.208  0.4029  0.0720 -0.1209
  666EOL    COH  666   4.413   4.850   3.131  0.0111 -0.0697  0.0629
  667EOL    COH  667   4.244   2.449   2.695  0.0872  0.1245  0.0893
  668EOL    COH  668   2.126   0.257   4.123  0.1091  0.3815  0.0027
  669EOL    COH  669   0.623   5.000   5.973  0.0601  0.0472  0.1243
  670EOL    COH  670   6.352   1.487   4.220  0.0093 -0.1099  0.0561
  671EOL    COH  671   3.639   5.662   5.840 -0.2050  0.3346  0.2043
  672EOL    COH  672   0.104   0.059   2.827 -0.1331 -0.1463 -0.1391
  673EOL    COH  673   2.992   6.192   3.688  0.0093 -0.1533  0.1722
  674EOL    COH  674   6.317   0.631   3.122 -0.3730 -0.1254 -0.4066
  675EOL    COH  675   1.792   0.175   0.439 -0.3278  0.1363 -0.0873
  676EOL    COH  676   6.216   5.633   3.182  0.1882 -0.0616 -0.0018
  677EOL    COH  677   0.579   6.178   2.636  0.2517 -0.2943 -0.2410
  678EOL    COH  678   2.089   1.639   4.639 -0.2497 -0.0665  0.2400
  679EOL    COH  679   0.164   2.258   6.032  0.3389  0.0607 -0.0188
  680EOL    COH  680   3.138   0.872   5.805 -0.0869 -0.3762  0.4008
  681EOL    COH  681   3.779   0.534   1.847  0.0435  0.5563  0.0830
  682EOL    COH  682   2.080   0.280   0.935  0.0963  0.0267 -0.0955
  683EOL    COH  683   1.036   5.456   4.716 -0.5524  0.1377  0.0006
  684EOL    COH  684   5.780   4.490   1.570  0.3331  0.1354  0.4444
  685EOL    COH  685   3.775   3.983   4.622 -0.4282 -0.0817  0.2294
  686EOL    COH  686   1.039   2.311   2.341  0.0908 -0.1554  0.2832
  687EOL    COH  687   0.038   5.743   6.086  0.2556 -0.0609 -0.1675
  688EOL    COH  688   2.501   0.125   0.768 -0.2897  0.1761 -0.2732
  689EOL    COH  689   2.534   4.473   1.086  0.1596 -0.1543  0.0861
  690EOL    COH  690   1.803   6.218   4.443 -0.0220 -0.1643  0.2938
  691EOL    COH  691   5.311   1.743   3.508 -0.0050 -0.0445  0.1565
  692EOL    COH  692   2.443   2.781   0.980 -0.3089 -0.0810 -0.0730
  693EOL    COH  693   5.162   5.140   0.513 -0.0247 -0.1895  0.0533
  694EOL    COH  694   1.948   3.018   0.671 -0.0219 -0.2514  0.2933
  695EOL    COH  695   1.359   2.895   5.088 -0.1705 -0.0232 -0.1966
  696EOL    COH  696   1.166   0.791   4.691  0.0365 -0.1184 -0.0260
  697EOL    COH  697   1.365   1.738   5.177  0.1652  0.0939  0.0673
  698EOL    COH  698   0.219   0.274   2.190  0.1680 -0.0644 -0.3588
  699EOL    COH  699   0.598   1.795   3.097 -0.1925 -0.1253  0.3452
  700EOL    COH  700   2.661   5.959   1.152  0.1037  0.1234  0.2652
  701EOL    COH  701   2.163   4.172   1.523  0.0908 -0.0147  0.2039
  702EOL    COH  702   2.747   2.707   4.943 -0.1154 -0.0844 -0.1115
  703EOL    COH  703   4.780   0.375   4.405  0.0918  0.0554 -0.2866
  704EOL    COH  704   4.803   1.517   4.560 -0.1644  0.2873 -0.1052
  705EOL    COH  705   5.804   4.595   5.626  0.1195  0.0742 -0.1662
  706EOL    COH  706   4.959   0.367   0.216  0.3072  0.1900  0.0717
  707EOL    COH  707   0.021   4.157   2.799  0.2055 -0.2649 -0.0571
  708EOL    COH  708   3.925   1.434   2.213  0.4533  0.1217  0.3988
  709EOL    COH  709   4.158   1.944   0.044  0.1154  0.1997  0.3354
  710EOL    COH  710   1.198   0.813   0.148  0.0711  0.0998 -0.1787
  711EOL    COH  711   0.235   2.349   0.698 -0.0862 -0.1923  0.1830
  712EOL    COH  712   1.624   6.001   5.620 -0.0261 -0.2643 -0.1013
  713EOL    COH  713   3.798   4.622   2.435 -0.0912  0.2069  0.0195
  714EOL    COH  714   5.322   2.253   1.374 -0.2168  0.0553  0.1611
  715EOL    COH  715   0.427   0.824   5.986 -0.0005 -0.0375 -0.1873
  716EOL    COH  716   0.693   1.054   5.598 -0.1575  0.0163 -0.3647
  717EOL    COH  717   5.393   1.277   6.136  0.0623  0.0927 -0.0793
  718EOL    COH  718   6.115   1.499   0.472 -0.1128 -0.1136  0.2582
  719EOL    COH  719   0.622   3.753   6.263  0.0157 -0.3271 -0.0101
  720EOL    COH  720   1.197   3.006   2.954  0.0367  0.3533  0.0727
  721EOL    COH  721   2.201   5.723   0.315 -0.2723  0.1337  0.2062
  722EOL    COH  722   1.607   3.501   5.175 -0.0980  0.3392 -0.0900
  723EOL    COH  723   0.383   2.728   6.207 -0.0034 -0.2723 -0.1191
  724EOL    COH  724   0.018   4.520   4.114 -0.0681  0.0823 -0.0550
  725EOL    COH  725   1.924   3.984   3.968 -0.1223  0.4258 -0.0874
  726EOL    COH  726   1.082   1.243   6.006 -0.0413 -0.0222  0.1530
  727EOL    COH  727   0.360   4.950   2.878 -0.3182 -0.1118  0.1745
  728EOL    COH  728   3.188   5.434   3.160 -0.1437  0.2713 -0.1052
  729EOL    COH  729   6.031   5.912   0.595  0.0141 -0.0944  0.0089
  730EOL    COH  730   3.339   2.029   1.721 -0.0225 -0.0400  0.2719
  731EOL    COH  731   3.024   1.563   1.854 -0.4710 -0.2795  0.1306
  732EOL    COH  732   1.609   1.088   1.888  0.0961 -0.1935 -0.3104
  733EOL    COH  733   5.408   5.689   2.289 -0.2956 -0.0211 -0.0292
  734EOL    COH  734   6.271   3.972   0.297  0.1237 -0.0722  0.0931
  735EOL    COH  735   5.465   2.733   6.120  0.2319 -0.1377  0.1909
  736EOL    COH  736   4.685   4.509   2.330  0.1027 -0.1225 -0.0995
  737EOL    COH  737   5.890   1.691   5.551  0.2293  0.2267  0.0572
  738EOL    COH  738   5.167   4.373   4.934  0.1643 -0.2421  0.3276
  739EOL    COH  739   1.838   5.184   4.002 -0.0818 -0.1749 -0.2178
  740EOL    COH  740   5.621   2.105   6.088  0.1626  0.2014  0.2652
  741EOL    COH  741   4.969   0.787   0.465  0.1723  0.0286  0.5320
  742EOL    COH  742   5.727   4.618   4.729 -0.1555 -0.0739 -0.1831
  743EOL    COH  743   6.112   4.179   5.529  0.1640  0.0279 -0.2785
  744EOL    COH  744   3.516   1.827   3.762 -0.5033  0.0624 -0.0467
  745EOL    COH  745   4.461   2.376   4.614  0.0276 -0.2543 -0.1179
  746EOL    COH  746   1.637   2.019   5.725  0.1411  0.0029 -0.0585
  747EOL    COH  747   0.901   2.765   3.338 -0.0415  0.5105 -0.1490
  748EOL    COH  748   1.438   5.801   2.464 -0.1119 -0.1886 -0.2559
  749EOL    COH  749   4.700   2.297   5.096  0.2668  0.0328 -0.2246
  750EOL    COH  750   2.767   4.737   1.979  0.2912  0.1667 -0.0068
  751EOL    COH  751   6.152   1.289   3.180  0.3014 -0.2346  0.0418
  752EOL    COH  752   5.140   2.053   4.824  0.1129 -0.0754  0.4313
  753EOL    COH  753   0.675   4.847   1.621  0.0098  0.1542 -0.0047
  754EOL    COH  754   0.809   3.246   5.438 -0.2649  0.4993  0.0346
  755EOL    COH  755   3.191   2.661   0.202 -0.0984 -0.0412 -0.2010
  756EOL    COH  756   2.429   6.370   1.218 -0.0382  0.2664 -0.0963
  757EOL    COH  757   0.362   1.338   5.769  0.3136  0.0118 -0.1152
  758EOL    COH  758   3.629   1.614   5.400  0.0639 -0.2086  0.2117
  759EOL    COH  759   4.981   4.357   5.471 -0.3807 -0.2382 -0.1951
  760EOL    COH  760   1.645   5.521   1.369 -0.1381  0.0926 -0.1703
  761EOL    COH  761   3.929   0.808   6.163 -0.0286 -0.0732  0.0327
  762EOL    COH  762   2.084   1.921   0.933  0.0056 -0.2856  0.1336
  763EOL    COH  763   0.850   5.065   4.972  0.0414 -0.0488  0.2778
  764EOL    COH  764   5.262   0.239   1.887  0.1794 -0.1025  0.0052
  765EOL    COH  765   2.529   0.192   6.372  0.2384 -0.3087  0.1042
  766EOL    COH  766   1.266   6.010   4.282 -0.0483  0.1130 -0.1070
  767EOL    COH  767   0.077   5.523   0.480  0.1077  0.0004 -0.1172
  768EOL    COH  768   3.199   4.427   0.425  0.0529  0.2209 -0.0837
  769EOL    COH  769   3.905   5.304   6.040  0.0537  0.0603  0.3002
  770EOL    COH  770   2.072   4.293   2.640 -0.0736  0.3158  0.1815
  771EOL    COH  771   4.180   4.645   5.733  0.1347 -0.1412  0.0948
  772EOL    COH  772   4.238   3.721   4.831 -0.0843  0.0031 -0.0076
  773EOL    COH  773   3.961   1.140   4.276  0.0300  0.1637  0.1043
  774EOL    COH  774   5.191   0.746   1.969  0.1354 -0.0964 -0.1783
  775EOL    COH  775   3.344   6.198   3.290  0.2846 -0.3206 -0.1296
  776EOL    COH  776   1.130   6.127   2.682 -0.0457 -0.0206 -0.1841
  777EOL    COH  777   0.267   0.537   5.035  0.1262  0.0180 -0.3069
  778EOL    COH  778   1.694   4.178   4.400 -0.1253  0.3292 -0.1787
  779EOL    COH  779   5.841   3.063   4.378  0.1335 -0.1134 -0.0888
  780EOL    COH  780   3.492   1.326   4.524 -0.3783 -0.1178 -0.0044
  781EOL    COH  781   4.715   3.131   3.218  0.1081  0.2838 -0.1553
  782EOL    COH  782   5.592   3.845   2.735  0.1540  0.0445 -0.0161
  783EOL    COH  783   0.997   1.583   2.772  0.1641  0.0094 -0.1309
  784EOL    COH  784   3.909   3.341   2.750 -0.0042 -0.3974 -0.3110
  785EOL    COH  785   0.726   5.985   3.177  0.0469  0.3067  0.3178
  786EOL    COH  786   3.125   4.909   1.713 -0.3204  0.1690 -0.0769
  787EOL    COH  787   5.962   0.160   4.706  0.2880 -0.0157 -0.0710
  788EOL    COH  788   5.316   1.093   0.205  0.0776  0.0401  0.1209
  789EOL    COH  789   5.002   4.843   1.023  0.2114  0.2678 -0.0206
  790EOL    COH  790   2.704   4.540   3.599 -0.3534  0.2774 -0.1605
  791EOL    COH  791   1.403   0.722   6.105 -0.0983 -0.0635  0.3315
  792EOL    COH  792   1.826   2.966   5.761 -0.1779 -0.0101  0.0199
  793EOL    COH  793   1.343   4.433   6.180  0.1182 -0.2632 -0.0228
  794EOL    COH  794   4.919   2.121   1.047  0.5422  0.0767 -0.4431
  795EOL    COH  795   3.136   4.425   1.761  0.0376 -0.1024  0.0309
  796EOL    COH  796   1.667   2.512   5.477 -0.1451  0.3874  0.1878
  797EOL    COH  797   6.010   5.065   5.660 -0.1197 -0.2262 -0.2577
  798EOL    COH  798   1.502   2.251   6.113  0.0740 -0.0841 -0.0723
  799EOL    COH  799   4.871   3.611   3.657  0.2391 -0.1320  0.1313
  800EOL    COH  800   5.993   1.401   2.712 -0.2908 -0.0356  0.0164
  801EOL    COH  801   2.407   0.302   1.790  0.1920 -0.0742  0.3788
  802EOL    COH  802   0.983   0.364   0.653 -0.2390 -0.1131  0.0215
  803EOL    COH  803   1.128   4.755   1.340 -0.1422 -0.3313 -0.1377
  804EOL    COH  804   3.399   2.213   3.358 -0.1151  0.2035 -0.3516
  805EOL    COH  805   0.450   0.813   2.347  0.0285 -0.0207 -0.2264
  806EOL    COH  806   6.323   3.145   4.622 -0.0111  0.0527 -0.0991
  807EOL    COH  807   0.551   6.159   0.302 -0.0140  0.0305 -0.1325
  808EOL    COH  808   0.597   4.062   5.752 -0.0982 -0.0947 -0.3691
  809EOL    COH  809   1.933   1.127   5.456 -0.3680 -0.1050  0.3996
  810EOL    COH  810   2.478   4.869   4.724  0.0008  0.0137  0.2373
  811EOL    COH  811   1.619   0.078   1.316  0.0263 -0.1207  0.0953
  812EOL    COH  812   5.209   3.267   3.438  0.1024 -0.0942 -0.2796
  813EOL    COH  813   6.338   0.941   5.063 -0.0813 -0.0713 -0.1319
  814EOL    COH  814   4.541   2.639   2.311 -0.1537  0.0350  0.3126
  815EOL    COH  815   5.633   4.405   0.557 -0.0246 -0.1049 -0.0762
  816EOL    COH  816   3.284   2.889   6.194  0.0298 -0.0681  0.1300
  817EOL    COH  817   4.820   4.725   4.112 -0.0298 -0.1541 -0.3274
  818EOL    COH  818   3.780   2.724   6.270 -0.0491  0.1847  0.2222
  819EOL    COH  819   2.786   5.744   0.121  0.1520 -0.1944  0.1923
  820EOL    COH  820   1.184   2.012   2.730 -0.1308 -0.0729 -0.2868
  821EOL    COH  821   5.880   3.554   0.133  0.1739 -0.0747  0.1057
  822EOL    COH  822   1.083   4.246   5.540  0.0072  0.0550 -0.1506
  823EOL    COH  823   6.013   0.848   3.529 -0.1503 -0.0435  0.0163
  824EOL    COH  824   3.823   0.084   4.553 -0.0140 -0.1769 -0.0628
  825EOL    COH  825   6.288   2.221   1.548  0.1147  0.0277 -0.0720
  826EOL    COH  826   2.966   5.576   4.270 -0.1765  0.0833  0.0193
  827EOL    COH  827   3.824   4.962   3.808 -0.0218 -0.0326  0.1168
  828EOL    COH  828   4.225   0.322   1.966  0.2485  0.0128 -0.1249
  829EOL    COH  829   1.881   5.396   1.818  0.0382  0.1590  0.0167
  830EOL    COH  830   0.234   4.043   3.572 -0.0828  0.1284 -0.1175
  831EOL    COH  831   1.182   5.165   0.082  0.1353 -0.1052  0.0768
  832EOL    COH  832   4.452   4.338   0.346  0.0091 -0.1111 -0.0472
  833EOL    COH  833   3.620   2.404   1.388  0.0676  0.0593 -0.3584
  834EOL    COH  834   4.996   4.256   4.476 -0.1040  0.0576 -0.1176
  835EOL    COH  835   2.404   0.991   4.045 -0.1867  0.0860 -0.0928
  836EOL    COH  836   4.372   0.927   5.134  0.4168 -0.0547 -0.0746
  837EOL    COH  837   3.781   3.922   1.213  0.3953  0.0517  0.0725
  838EOL    COH  838   1.647   0.418   3.868  0.0079  0.1013  0.1693
  839EOL    COH  839   0.399   4.642   4.522 -0.3687  0.1080  0.1204
  840EOL    COH  840   4.523   1.229   5.667 -0.1532  0.0379 -0.2967
  841EOL    COH  841   2.705   3.689   0.872  0.1263  0.3595  0.1605
  842EOL    COH  842   4.090   1.897   4.905 -0.2190 -0.1766  0.4058
  843EOL    COH  843   5.101   6.373   3.278  0.0515 -0.1449  0.2208
  844EOL    COH  844   0.295   1.009   3.171 -0.1114  0.0155 -0.0695
  845EOL    COH  845   4.001   2.989   2.184  0.0512  0.3224 -0.1154
  846EOL    COH  846   1.617   0.937   3.754  0.1030  0.1201  0.0566
  847EOL    COH  847   2.379   3.168   3.476 -0.0173 -0.2139  0.1149
  848EOL    COH  848   2.428   0.713   5.364 -0.1008 -0.2994 -0.2509
  849EOL    COH  849   1.082   4.258   2.495 -0.0646 -0.1377 -0.0607
  850EOL    COH  850   2.934   3.540   4.734  0.1558 -0.2418 -0.0589
  851EOL    COH  851   2.621   0.821   4.809 -0.0589  0.1455  0.1690
  852EOL    COH  852   6.261   4.248   5.021  0.0107  0.0697 -0.1593
  853EOL    COH  853   5.189   0.343   5.669 -0.0097  0.2348 -0.2241
  854EOL    COH  854   2.148   3.880   3.473  0.3350 -0.2751 -0.2430
  855EOL    COH  855   4.830   2.412   0.632 -0.0165  0.2109 -0.1214
  856EOL    COH  856   4.165   5.160   2.345 -0.0054 -0.1159 -0.1088
  857EOL    COH  857   4.196   4.709   0.601  0.0090  0.2988  0.0085
  858EOL    COH  858   3.127   2.525   5.313  0.0886  0.1302  0.3408
  859EOL    COH  859   3.724   3.761   6.143  0.0689  0.0740  0.2628
  860EOL    COH  860   0.818   2.226   5.327  0.1429  0.0101 -0.2526
  861EOL    COH  861   4.087   3.013   0.310  0.0479  0.2133 -0.0064
  862EOL    COH  862   6.377   5.439   5.685  0.2442 -0.0433 -0.0523
  863EOL    COH  863   3.704   1.587   0.332 -0.0466 -0.2501  0.1888
  864EOL    COH  864   5.245   5.582   0.763  0.0908 -0.0414  0.2384
  865EOL    COH  865   4.818   1.587   3.545  0.0825  0.1542 -0.3530
  866EOL    COH  866   1.127   1.044   0.675 -0.2150 -0.1348 -0.0030
  867EOL    COH  867   4.906   0.444   6.143 -0.0915 -0.0640  0.2984
  868EOL    COH  868   2.742   5.821   0.664  0.2404 -0.2618 -0.0656
  869EOL    COH  869   4.441   0.455   6.375 -0.0946  0.0065  0.0276
  870EOL    COH  870   4.699   2.117   3.523 -0.2568 -0.0859 -0.1577
  871EOL    COH  871   3.097   2.088   0.041 -0.0235 -0.0331  0.0297
  872EOL    COH  872   3.063   6.378   5.650 -0.1006  0.0833 -0.2245
  873EOL    COH  873   1.218   4.231   4.583  0.3747 -0.1196 -0.0927
  874EOL    COH  874   1.960   4.351   6.005  0.0643  0.0222 -0.3304
  875EOL    COH  875   5.335   2.780   3.535 -0.3627 -0.1218  0.0563
  876EOL    COH  876   2.411   4.323   3.933  0.1107 -0.0992  0.3915
  877EOL    COH  877   2.863   1.159   0.136  0.2432 -0.1923 -0.3493
  878EOL    COH  878   4.380   2.318   1.886  0.0793 -0.0477  0.1045
  879EOL    COH  879   2.936   5.047   5.635 -0.0592  0.0068 -0.1117
  880EOL    COH  880   4.932   2.733   5.742 -0.3032  0.2176 -0.2124
  881EOL    COH  881   2.653   4.477   6.061  0.0587  0.0237 -0.0202
  882EOL    COH  882   1.361   1.094   4.248 -0.1935 -0.2765 -0.0283
  883EOL    COH  883   3.349   5.457   4.597 -0.1519  0.3699 -0.3900
  884EOL    COH  884   2.570   3.517   4.392  0.2464  0.2010  0.3619
  885EOL    COH  885   1.032   5.921   4.951 -0.3292 -0.0631  0.1809
  886EOL    COH  886   4.610   2.284   4.065 -0.0255  0.0437 -0.1061
  887EOL    COH  887   2.555   2.697   0.530  0.2253 -0.2426  0.1419
  888EOL    COH  888   1.439   3.299   3.758  0.0616  0.1338 -0.0074
  889EOL    COH  889   0.226   2.544   2.140 -0.0573  0.0892  0.0743
  890EOL    COH  890   5.374   5.360   5.919  0.0248 -0.1081 -0.0305
  891EOL    COH  891   6.339   3.404   2.563  0.0879 -0.2374  0.1191
  892EOL    COH  892   2.752   4.620   5.487 -0.0139  0.2036 -0.2053
  893EOL    COH  893   1.832   5.324   0.174  0.1364 -0.1523 -0.1036
  894EOL    COH  894   5.064   0.972   5.804 -0.0449 -0.0836  0.2908
  895EOL    COH  895   3.174   1.531   0.931  0.0649  0.3327  0.0294
  896EOL    COH  896   0.917   4.102   6.157 -0.0822 -0.1134 -0.0401
  897EOL    COH  897   4.236   5.551   5.060 -0.1371 -0.0643 -0.3010
  898EOL    COH  898   5.624   1.229   5.207  0.1504  0.0497  0.0925
  899EOL    COH  899   5.312   4.737   3.795 -0.0094 -0.1041 -0.0294
  900EOL    COH  900   2.395   2.182   3.791 -0.0104 -0.0383  0.0887
  901EOL    COH  901   3.449   6.415   4.984 -0.2598 -0.3165  0.2067
  902EOL    COH  902   3.922   1.683   4.477 -0.0615  0.0620  0.0572
  903EOL    COH  903   4.163   0.289   3.797 -0.1332 -0.1562 -0.1282
  904EOL    COH  904   4.284   3.854   0.461 -0.1400 -0.0861  0.0202
  905EOL    COH  905   0.483   5.924   1.607  0.1563 -0.0682  0.6192
  906EOL    COH  906   2.697   1.422   3.879 -0.3223  0.1033  0.1587
  907EOL    COH  907   0.415   3.244   4.546  0.1824  0.3800 -0.1592
  908EOL    COH  908   0.935   6.387   3.058  0.0692 -0.2398 -0.0302
  909EOL    COH  909   4.507   5.671   1.821 -0.3267  0.0906 -0.0399
  910EOL    COH  910   5.557   0.886   0.778 -0.1001 -0.1311 -0.3727
  911EOL    COH  911   3.937   6.148   4.964 -0.0779  0.2537  0.0026
  912EOL    COH  912   1.400   4.237   3.850  0.1454 -0.0144  0.1428
  913EOL    COH  913   0.642   4.599   4.940 -0.2725  0.5216 -0.0639
  914EOL    COH  914   5.455   4.320   4.339 -0.0275  0.0078 -0.0567
  915EOL    COH  915   0.548   0.584   6.423 -0.1468  0.1049 -0.1430
  916EOL    COH  916   5.801   4.073   3.378  0.0830 -0.1071 -0.1298
  917EOL    COH  917   0.053   3.504   0.532  0.2648  0.3120  0.1138
  918EOL    COH  918   6.259   1.287   5.978  0.3130  0.0258  0.0959
  919EOL    COH  919   2.137   4.798   2.866 -0.0539  0.1820  0.1048
  920EOL    COH  920   1.531   3.718   4.003 -0.2743  0.1930  0.0090
  921EOL    COH  921   3.612   0.206   4.146  0.0110 -0.0729  0.3862
  922EOL    COH  922   5.857   4.867   0.752  0.2640  0.0643 -0.1487
  923EOL    COH  923   1.032   2.468   2.927 -0.0281 -0.0816 -0.0212
  924EOL    COH  924   2.230   4.280   0.274 -0.4747 -0.0311  0.0958
  925EOL    COH  925   3.215   2.130   5.030  0.1738 -0.2409  0.0892
  926EOL    COH  926   1.886   4.040   3.067 -0.0518  0.3078 -0.0542
  927EOL    COH  927   1.360   5.319   2.725  0.2105 -0.0901  0.0132
  928EOL    COH  928   6.153   6.319   6.189 -0.1024 -0.1495  0.0323
  929EOL    COH  929   5.433   5.133   0.932  0.2201  0.1658 -0.2533
  930EOL    COH  930   6.168   6.411   0.261  0.2635  0.4414 -0.0976
  931EOL    COH  931   4.459   2.118   2.330  0.0213  0.0777  0.2524
  932EOL    COH  932   6.345   2.082   4.968  0.2685  0.1304 -0.1160
  933EOL    COH  933   1.445   1.460   1.368  0.0876  0.0694  0.0439
  934EOL    COH  934   5.080   0.510   1.509  0.1428 -0.1266 -0.2015
  935EOL    COH  935   3.804   4.224   4.999 -0.1391  0.1746 -0.1973
  936EOL    COH  936   5.899   0.350   6.207  0.0309 -0.0441  0.1839
  937EOL    COH  937   5.038   4.778   3.261 -0.0886  0.0496 -0.3243
  938EOL    COH  938   5.721   3.655   1.308  0.0890  0.0730  0.2805
  939EOL    COH  939   0.325   5.333   4.257 -0.2011  0.0325 -0.1248
  940EOL    COH  940   3.336   0.144   6.365 -0.0099 -0.0913  0.2546
  941EOL    COH  941   0.649   0.179   5.749 -0.1538  0.0578  0.0474
  942EOL    COH  942   0.960   5.516   4.177 -0.2551 -0.0712 -0.0605
  943EOL    COH  943   3.298   6.022   5.999 -0.1927  0.4168  0.1389
  944EOL    COH  944   0.902   0.679   2.383 -0.2120  0.2610 -0.0172
  945EOL    COH  945   5.359   3.246   4.450  0.0939 -0.2242 -0.1213
  946EOL    COH  946   1.704   2.573   4.932  0.0347 -0.0521 -0.1386
  947EOL    COH  947   3.091   1.675   2.352 -0.0907 -0.7715  0.0770
  948EOL    COH  948   3.644   5.555   2.981 -0.2096 -0.0321  0.0776
  949EOL    COH  949   2.923   2.010   2.655 -0.0487  0.0873  0.1216
  950EOL    COH  950   5.487   2.801   2.681 -0.0853  0.4339  0.0110
  951EOL    COH  951   0.610   2.715   5.341  0.0219 -0.0773  0.2395
  952EOL    COH  952   3.927   5.669   6.380  0.0665  0.0448  0.1651
  953EOL    COH  953   3.606   3.028   4.300  0.1655  0.0891  0.1874
  954EOL    COH  954   6.015   3.564   0.631 -0.0862 -0.2050 -0.1309
  955EOL    COH  955   1.025   2.009   3.247 -0.0876 -0.0640  0.2781
  956EOL    COH  956   2.637   1.797   4.789 -0.2592  0.1295 -0.1318
  957EOL    COH  957   2.605   0.693   0.169  0.1013 -0.1666 -0.2797
  958EOL    COH  958   3.552   1.641   1.990 -0.0636  0.2140  0.0947
  959EOL    COH  959   1.843   2.026   1.887  0.3535 -0.0849 -0.0477
  960EOL    COH  960   4.740   3.407   6.325  0.0485 -0.0038 -0.2700
  961EOL    COH  961   0.462   1.334   4.298  0.5380  0.2982 -0.1087
  962EOL    COH  962   1.996   3.752   2.706  0.1281  0.1889  0.1427
  963EOL    COH  963   1.387   3.344   0.631 -0.0939  0.1992  0.2619
  964EOL    COH  964   4.788   2.636   3.461 -0.0381  0.1159 -0.2396
  965EOL    COH  965   1.060   2.837   2.527  0.0889  0.2414 -0.3449
  966EOL    COH  966   2.591   6.264   2.993  0.2175 -0.0823  0.3089
  967EOL    COH  967   0.128   0.248   1.698 -0.2737  0.2023  0.2808
  968EOL    COH  968   2.480   0.760   1.830 -0.1209 -0.1981 -0.0554
  969EOL    COH  969   6.046   1.481   5.111 -0.0153  0.1134  0.0840
  970EOL    COH  970   0.054   2.716   0.962 -0.1921  0.0880  0.4088
  971EOL    COH  971   1.244   1.690   0.603  0.2208  0.2138 -0.0287
  972EOL    COH  972   6.082   5.256   0.617 -0.0255 -0.0744 -0.0036
  973EOL    COH  973   6.261   4.158   3.290 -0.0662 -0.1478  0.0223
  974EOL    COH  974   2.257   5.149   2.180  0.0865 -0.0011  0.0527
  975EOL    COH  975   3.596   5.791   3.425 -0.1981  0.0130  0.0701
  976EOL    COH  976   0.834   3.860   4.690 -0.3033 -0.2159  0.1395
  977EOL    COH  977   6.106   3.598   4.492 -0.2032 -0.3456 -0.5032
  978EOL    COH  978   0.574   3.718   0.387 -0.0275  0.0488  0.1612
  979EOL    COH  979   0.531   5.692   0.594 -0.0747  0.0815 -0.0240
  980EOL    COH  980   1.014   2.412   1.084  0.0566  0.0489 -0.0334
  981EOL    COH  981   6.234   3.113   0.641 -0.1179  0.0273  0.2210
  982EOL    COH  982   4.609   5.689   3.147  0.3340  0.1754  0.1508
  983EOL    COH  983   2.005   4.231   1.010  0.0019 -0.2156  0.0742
  984EOL    COH  984   1.706   5.410   4.702 -0.0895  0.1892 -0.0845
  985EOL    COH  985   6.001   1.268   3.901  0.2513 -0.1270  0.1606
  986EOL    COH  986   0.807   5.939   3.903  0.1337 -0.0008 -0.0614
  987EOL    COH  987   6.131   3.769   3.610 -0.1287  0.1262  0.1353
  988EOL    COH  988   0.210   6.181   6.305  0.1297  0.0248  0.2131
  989EOL    COH  989   2.771   5.333   1.979  0.0962  0.1158 -0.4073
  990EOL    COH  990   6.277   1.258   2.299 -0.2484 -0.2659 -0.5289
  991EOL    COH  991   6.179   0.516   5.493 -0.0349  0.1687  0.2163
  992EOL    COH  992   4.776   5.969   3.512  0.1913  0.1876  0.1570
  993EOL    COH  993   4.036   2.495   2.230  0.5338  0.0022  0.3886
  994EOL    COH  994   2.797   1.261   2.243 -0.1505  0.1108 -0.1019
  995EOL    COH  995   5.893   6.009   3.056  0.1148 -0.4967  0.0329
  996EOL    COH  996   1.594   4.489   4.750  0.1052 -0.1030  0.1768
  997EOL    COH  997   5.643   1.650   3.086  0.0571  0.0334 -0.1316
  998EOL    COH  998   5.915   4.581   3.263 -0.0355  0.1128 -0.1756
  999EOL    COH  999   1.509   6.172   5.169 -0.0025  0.1251 -0.1914
 1000EOL    COH 1000   4.407   6.238   3.739 -0.1756 -0.1681  0.1416
 1001EOL    COH 1001   2.009   6.180   1.472  0.0412 -0.0899  0.2099
 1002EOL    COH 1002   6.049   5.104   3.526 -0.4014  0.0907 -0.2505
 1003EOL    COH 1003   2.196   2.124   0.385  0.0298  0.1993 -0.0381
 1004EOL    COH 1004   3.578   1.916   4.901 -0.1996  0.0399  0.0851
 1005EOL    COH 1005   4.278   5.294   2.863  0.1706 -0.4160 -0.0087
 1006EOL    COH 1006   3.834   3.229   5.211  0.3992  0.1743 -0.1577
 1007EOL    COH 1007   5.858   4.884   5.234  0.1069 -0.1287  0.1347
 1008EOL    COH 1008   2.583   2.471   5.766 -0.4708 -0.2642 -0.0594
 1009EOL    COH 1009   2.855   3.506   5.748 -0.3304 -0.1009 -0.1893
 1010EOL    COH 1010   0.254   0.615   0.427  0.1954 -0.1129 -0.1426
 1011EOL    COH 1011   0.516   1.169   3.757 -0.0730 -0.1468 -0.1375
 1012EOL    COH 1012   2.125   2.494   0.744 -0.2230 -0.0106 -0.2864
 1013EOL    COH 1013   2.229   5.880   3.771  0.0925 -0.1075  0.1791
 1014EOL    COH 1014   3.535   0.008   5.870 -0.0019 -0.0427  0.0373
 1015EOL    COH 1015   1.112   0.206   1.867  0.0485  0.0112  0.1359
 1016EOL    COH 1016   2.488   5.458   1.197  0.0430  0.1734 -0.1191
 1017EOL    COH 1017   2.504   2.513   4.236 -0.0424  0.4044 -0.1056
 1018EOL    COH 1018   5.921   5.160   2.968 -0.0689 -0.0482  0.0735
 1019EOL    COH 1019   4.766   1.943   4.382 -0.0196 -0.3024  0.1108
 1020EOL    COH 1020   0.459   4.925   3.510  0.0824 -0.1525  0.1528
 1021EOL    COH 1021   2.121   1.050   2.833 -0.1591  0.1132 -0.0038
 1022EOL    COH 1022   1.077   0.816   5.209  0.1846  0.0718  0.0421
 1023EOL    COH 1023   5.556   2.673   1.227 -0.0741  0.5095 -0.0483
 1024EOL    COH 1024   0.702   3.373   1.733 -0.2182 -0.2060  0.2495
 1025EOL    COH 1025   5.947   0.937   0.466  0.1268 -0.1536 -0.0268
 1026EOL    COH 1026   2.257   5.048   0.398 -0.2006  0.2528  0.2648
 1027EOL    COH 1027   5.504   0.282   4.833  0.1228 -0.0694  0.0391
 1028EOL    COH 1028   2.690   5.313   0.513 -0.0886 -0.0008  0.3826
 1029EOL    COH 1029   4.109   0.532   5.298 -0.1235 -0.2479 -0.2285
 1030EOL    COH 1030   4.415   0.004   0.653 -0.3094  0.0298  0.0360
 1031EOL    COH 1031   0.928   0.465   6.138  0.0377  0.1354  0.2568
 1032EOL    COH 1032   3.420   3.367   4.965  0.1986 -0.1627 -0.0540
 1033EOL    COH 1033   3.065   1.892   3.258 -0.0191  0.2431 -0.0781
 1034EOL    COH 1034   3.175   0.034   0.724  0.1685 -0.0114  0.1083
 1035EOL    COH 1035   0.673   3.447   4.964 -0.0902  0.2848  0.0742
 1036EOL    COH 1036   6.163   3.472   3.977  0.2103 -0.0311  0.0803
 1037EOL    COH 1037   1.699   4.850   4.370  0.1118 -0.2206 -0.3993
 1038EOL    COH 1038   0.666   5.975   2.169 -0.3486 -0.0416  0.0254
 1039EOL    COH 1039   0.459   1.975   0.412  0.2201 -0.2579  0.0265
 1040EOL    COH 1040   3.549   1.839   0.919 -0.1017  0.1548 -0.1118
 1041EOL    COH 1041   3.412   6.090   1.953  0.2915  0.1075  0.2999
 1042EOL    COH 1042   4.640   4.107   1.283  0.0185  0.1735 -0.3781
 1043EOL    COH 1043   1.167   4.464   5.038 -0.0858  0.1279 -0.2029
 1044EOL    COH 1044   4.015   1.840   0.693  0.2477  0.0778  0.1364
 1045EOL    COH 1045   2.477   3.184   1.247 -0.2651  0.2716 -0.5259
 1046EOL    COH 1046   3.671   0.600   2.799 -0.1526 -0.0577  0.1475
 1047EOL    COH 1047   1.755   6.003   3.464 -0.4702  0.0705  0.3071
 1048EOL    COH 1048   5.103   4.964   6.171  0.1202  0.2414 -0.1410
 1049EOL    COH 1049   2.980   1.836   3.806  0.3019  0.0048 -0.1333
 1050EOL    COH 1050   5.542   0.051   2.894  0.2371 -0.1619 -0.0167
 1051EOL    COH 1051   3.349   5.238   2.634  0.0617 -0.1546  0.0399
 1052EOL    COH 1052   2.705   0.328   2.778 -0.1309 -0.2021  0.0193
 1053EOL    COH 1053   5.189   1.366   5.508  0.1231 -0.2385  0.0299
 1054EOL    COH 1054   0.446   4.346   1.706  0.0835 -0.0980 -0.0641
 1055EOL    COH 1055   5.487   1.478   3.982  0.0518 -0.0495 -0.0012
 1056EOL    COH 1056   2.806   5.947   2.074 -0.0524  0.2306 -0.1259
 1057EOL    COH 1057   2.813   2.252   6.130  0.2934 -0.3100  0.0746
 1058EOL    COH 1058   4.468   1.726   1.541  0.2926  0.2838  0.3385
 1059EOL    COH 1059   2.165   3.855   2.227  0.2064 -0.0141  0.1509
 1060EOL    COH 1060   5.120   0.103   1.151 -0.0480  0.2720 -0.0986
 1061EOL    COH 1061   1.067   2.496   4.806  0.0426 -0.1144 -0.2283
 1062EOL    COH 1062   4.763   5.948   4.555 -0.0846  0.2016  0.2680
 1063EOL    COH 1063   6.195   3.117   1.564 -0.3570  0.0379  0.4200
 1064EOL    COH 1064   3.439   0.871   1.035  0.3712 -0.1488  0.1280
 1065EOL    COH 1065   4.128   2.815   4.740 -0.0215  0.1693  0.2630
 1066EOL    COH 1066   0.932   4.507   2.083  0.0300  0.1538  0.0222
 1067EOL    COH 1067   0.085   5.057   0.280  0.1165  0.0426 -0.3755
 1068EOL    COH 1068   2.232   5.558   3.250  0.3163  0.0004 -0.2852
 1069EOL    COH 1069   1.288   4.586   4.197 -0.0106 -0.2671  0.1285
 1070EOL    COH 1070   4.359   6.080   6.182  0.0804  0.0188  0.3712
 1071EOL    COH 1071   4.401   3.226   2.254 -0.0295 -0.0300 -0.2022
 1072EOL    COH 1072   1.101   1.434   2.033  0.0802 -0.0755  0.1790
 1073EOL    COH 1073   1.871   1.819   3.899  0.1131  0.0356 -0.4107
 1074EOL    COH 1074   5.649   5.169   0.401 -0.3562  0.1073 -0.0594
 1075EOL    COH 1075   2.018   5.002   6.338 -0.3279  0.1328  0.2496
 1076EOL    COH 1076   3.120   3.304   1.051 -0.0067  0.0439  0.1651
 1077EOL    COH 1077   6.173   5.569   2.668  0.1544 -0.0222 -0.0186
 1078EOL    COH 1078   5.232   5.126   4.181 -0.1779 -0.3867 -0.0591
 1079EOL    COH 1079   1.773   4.210   3.549  0.0983  0.1606  0.0060
 1080EOL    COH 1080   0.163   5.847   4.719 -0.0125 -0.2041 -0.1134
 1081EOL    COH 1081   2.135   1.629   1.617  0.1940 -0.0248 -0.0008
 1082EOL    COH 1082   5.567   5.188   3.797  0.0418 -0.0638  0.2764
 1083EOL    COH 1083   5.752   0.870   6.379 -0.0220  0.0204 -0.2066
 1084EOL    COH 1084   4.170   4.771   1.552 -0.1589  0.3452  0.1141
 1085EOL    COH 1085   4.740   0.610   5.569  0.1281  0.1067 -0.0066
 1086EOL    COH 1086   4.489   3.330   4.610 -0.3643  0.0456  0.1163
 1087EOL    COH 1087   0.082   3.012   2.957  0.0571  0.3194 -0.0019
 1088EOL    COH 1088   0.339   2.867   0.255 -0.2899 -0.3198 -0.2332
 1089EOL    COH 1089   5.981   4.050   1.316 -0.1484  0.1354 -0.0603
 1090EOL    COH 1090   4.715   0.309   3.870 -0.3400 -0.3757 -0.4339
 1091EOL    COH 1091   3.280   3.937   1.601 -0.0066  0.1103  0.1809
 1092EOL    COH 1092   5.746   3.062   0.584 -0.1050  0.0222 -0.3408
 1093EOL    COH 1093   4.478   4.855   2.046  0.0055 -0.0822  0.5583
 1094EOL    COH 1094   1.973   4.910   0.756 -0.1141 -0.1617  0.0495
 1095EOL    COH 1095   2.529   0.473   2.301 -0.2413 -0.1091  0.1332
 1096EOL    COH 1096   2.075   3.557   4.225  0.1219 -0.2191  0.0826
 1097EOL    COH 1097   3.280   1.917   0.495  0.0890  0.1872  0.0886
 1098EOL    COH 1098   4.173   2.686   5.936  0.0652 -0.1426  0.0262
 1099EOL    COH 1099   3.332   2.524   2.785 -0.2604 -0.2802 -0.0054
 1100EOL    COH 1100   5.247   1.385   3.160  0.0040  0.0576 -0.0675
 1101EOL    COH 1101   1.578   1.046   0.940 -0.2447  0.0325  0.0310
 1102EOL    COH 1102   1.977   4.487   4.034 -0.1555  0.2418 -0.1871
 1103EOL    COH 1103   0.645   3.821   3.233  0.2031 -0.2050  0.0692
 1104EOL    COH 1104   3.708   4.524   0.518 -0.2511  0.2456  0.1569
 1105EOL    COH 1105   2.821   1.802   4.328 -0.0447 -0.1295  0.0603
 1106EOL    COH 1106   2.146   2.662   3.964  0.1790 -0.2225  0.2496
 1107EOL    COH 1107   1.443   1.894   1.065  0.0566  0.4438 -0.0869
 1108EOL    COH 1108   6.338   2.659   6.351  0.1186  0.0533 -0.0204
 1109EOL    COH 1109   2.742   2.847   3.350 -0.0093 -0.1766  0.1274
 1110EOL    COH 1110   1.070   2.472   4.132 -0.0380  0.0306 -0.2498
 1111EOL    COH 1111   4.527   2.635   5.427 -0.1748 -0.3538  0.3184
 1112EOL    COH 1112   1.972   1.448   6.368 -0.1028  0.0092  0.1814
 1113EOL    COH 1113   0.940   1.605   1.565  0.1294 -0.0940 -0.0270
 1114EOL    COH 1114   2.166   3.033   3.000  0.0479 -0.1385  0.2271
 1115EOL    COH 1115   0.754   6.186   5.958  0.3226  0.1013 -0.2120
 1116EOL    COH 1116   5.951   2.726   0.840  0.1196  0.3742 -0.3785
 1117EOL    COH 1117   1.942   0.667   0.647 -0.1653  0.0191  0.2560
 1118EOL    COH 1118   1.290   6.085   3.258  0.2477 -0.0872  0.1784
 1119EOL    COH 1119   6.113   2.027   6.012 -0.2240  0.0688  0.0139
 1120EOL    COH 1120   4.634   5.254   0.073  0.0548  0.0077  0.4955
 1121EOL    COH 1121   0.365   4.114   4.921 -0.0907  0.1695 -0.0219
 1122EOL    COH 1122   4.470   4.475   3.480  0.2496  0.0565  0.1524
 1123EOL    COH 1123   0.775   5.544   5.138  0.0554 -0.0369  0.2085
 1124EOL    COH 1124   2.472   1.642   0.666 -0.1172  0.2554  0.2564
 1125EOL    COH 1125   4.301   5.644   2.285  0.1954  0.3338 -0.3522
 1126EOL    COH 1126   2.389   2.701   2.444 -0.1620 -0.1049 -0.2432
 1127EOL    COH 1127   2.335   4.666   6.369  0.0029 -0.2762  0.2160
 1128EOL    COH 1128   4.680   0.075   5.903  0.0003  0.0536 -0.0948
 1129EOL    COH 1129   3.062   5.889   4.664  0.0145 -0.1017 -0.0439
 1130EOL    COH 1130   1.888   2.403   5.904  0.0924  0.1396 -0.0527
 1131EOL    COH 1131   0.330   4.663   1.233  0.2743  0.1683  0.0080
 1132EOL    COH 1132   2.134   5.752   1.511  0.1323 -0.2658 -0.0216
 1133EOL    COH 1133   5.665   0.042   1.052 -0.0813 -0.1853 -0.0283
 1134EOL    COH 1134   5.344   1.634   1.934 -0.1065  0.0158  0.0354
 1135EOL    COH 1135   2.241   3.617   1.348 -0.2706  0.0091  0.1873
 1136EOL    COH 1136   1.797   3.868   6.281 -0.1767 -0.0918  0.0504
 1137EOL    COH 1137   5.022   3.558   0.730  0.2986 -0.0457 -0.1040
 1138EOL    COH 1138   3.371   5.973   2.733 -0.0147  0.3848 -0.1457
 1139EOL    COH 1139   1.278   5.702   5.310 -0.0661  0.0258  0.0236
 1140EOL    COH 1140   3.438   3.364   5.972 -0.1211  0.1069 -0.0119
 1141EOL    COH 1141   0.408   0.525   1.377  0.3986 -0.1908 -0.0721
 1142EOL    COH 1142   5.109   5.704   2.721 -0.1444  0.0159 -0.1505
 1143EOL    COH 1143   3.119   5.750   3.545  0.3005  0.1459 -0.1018
 1144EOL    COH 1144   1.146   6.067   0.919  0.1720 -0.0463 -0.0243
 1145EOL    COH 1145   1.221   4.173   1.142  0.0410  0.2882 -0.0017
 1146EOL    COH 1146   6.263   6.218   1.102 -0.3615 -0.3990  0.0094
 1147EOL    COH 1147   0.363   1.830   4.082 -0.3983 -0.0094  0.0722
 1148EOL    COH 1148   2.361   3.886   3.005  0.0801  0.2256  0.1578
 1149EOL    COH 1149   5.122   0.027   4.622  0.1361  0.1492  0.1125
 1150EOL    COH 1150   1.698   1.366   3.162 -0.2101  0.0710 -0.1246
 1151EOL    COH 1151   2.123   6.013   5.855 -0.2181 -0.1606 -0.2535
 1152EOL    COH 1152   5.321   3.613   1.576 -0.2013 -0.2246  0.1330
 1153EOL    COH 1153   4.294   5.785   3.642 -0.3039  0.3869 -0.2486
 1154EOL    COH 1154   3.043   4.691   6.386  0.0666  0.1082  0.0189
 1155EOL    COH 1155   2.892   1.342   3.267 -0.1071 -0.0510  0.2750
 1156EOL    COH 1156   2.189   5.227   4.447 -0.0416 -0.1021 -0.4297
 1157EOL    COH 1157   3.742   2.491   5.621  0.3920 -0.1639  0.4340
 1158EOL    COH 1158   0.306   2.034   1.774  0.2408 -0.2013  0.1565
 1159EOL    COH 1159   3.934   4.057   0.126 -0.0745 -0.3346  0.0272
 1160EOL    COH 1160   1.978   3.356   5.983 -0.0885 -0.1853 -0.3673
 1161EOL    COH 1161   1.371   2.779   5.923 -0.1036 -0.1540 -0.0324
 1162EOL    COH 1162   4.886   5.438   6.066 -0.1135  0.3869  0.0517
 1163EOL    COH 1163   5.749   6.144   5.608 -0.0444 -0.3140  0.1063
 1164EOL    COH 1164   5.444   1.155   2.164 -0.0727  0.0270  0.0265
 1165EOL    COH 1165   2.584   6.033   5.533  0.2685 -0.1224 -0.0509
 1166EOL    COH 1166   2.021   3.467   3.730  0.0652  0.0141 -0.0037
 1167EOL    COH 1167   3.964   2.634   1.758 -0.1230 -0.0560 -0.3154
 1168EOL    COH 1168   0.753   3.783   5.352 -0.3311 -0.2066 -0.0365
 1169EOL    COH 1169   5.303   2.180   4.278 -0.3235 -0.2437  0.0008
 1170EOL    COH 1170   0.501   2.824   1.235 -0.0542  0.1660  0.0311
 1171EOL    COH 1171   1.043   2.981   0.947 -0.0824 -0.0821  0.0238
 1172EOL    COH 1172   3.401   4.354   1.301  0.1201  0.1358 -0.2026
 1173EOL    COH 1173   1.357   0.254   3.053  0.0109 -0.1127 -0.0013
 1174EOL    COH 1174   1.210   1.520   3.262  0.1382 -0.0212  0.2324
 1175EOL    COH 1175   5.206   2.614   1.731  0.0596 -0.0003  0.0259
 1176EOL    COH 1176   5.800   2.309   2.240 -0.0976 -0.1460  0.1666
 1177EOL    COH 1177   3.159   2.954   0.628 -0.1761 -0.2223 -0.1709
 1178EOL    COH 1178   2.526   4.334   4.804  0.0344 -0.2413 -0.1792
 1179EOL    COH 1179   3.705   1.072   1.909 -0.0328 -0.1049 -0.1513
 1180EOL    COH 1180   0.621   5.053   0.115 -0.0321 -0.3886 -0.1231
 1181EOL    COH 1181   2.869   1.902   0.928 -0.2231  0.1668  0.2127
 1182EOL    COH 1182   6.130   0.530   1.661 -0.0605  0.0844  0.2671
 1183EOL    COH 1183   0.007   4.160   1.514  0.1677  0.1830  0.1676
 1184EOL    COH 1184   2.517   6.287   1.795 -0.1135 -0.0096  0.2543
 1185EOL    COH 1185   0.110   5.863   1.952 -0.0279  0.1399 -0.1181
 1186EOL    COH 1186   4.862   3.250   2.572 -0.0613 -0.1127  0.0986
 1187EOL    COH 1187   0.912   0.106   4.567 -0.2187 -0.2488 -0.0765
 1188EOL    COH 1188   4.749   0.603   2.428 -0.1120 -0.0862  0.1895
 1189EOL    COH 1189   2.456   0.362   4.950 -0.0520 -0.0760 -0.0495
 1190EOL    COH 1190   0.813   2.782   0.158  0.3166 -0.0321 -0.0230
 1191EOL    COH 1191   3.918   5.191   3.228 -0.0712  0.4096  0.2971
 1192EOL    COH 1192   2.233   3.838   0.617 -0.3325  0.1265 -0.2616
 1193EOL    COH 1193   1.992   0.809   1.667 -0.0978  0.0277  0.0543
 1194EOL    COH 1194   4.574   0.519   4.908 -0.2203  0.1229  0.0462
 1195EOL    COH 1195   3.880   6.094   1.239  0.0059  0.0940 -0.1830
 1196EOL    COH 1196   4.535   5.088   1.054 -0.2756 -0.0785  0.0942
 1197EOL    COH 1197   3.888   1.019   5.382 -0.1038  0.1327 -0.0000
 1198EOL    COH 1198   2.686   5.372   3.326 -0.2578 -0.1195  0.1035
 1199EOL    COH 1199   5.715   4.145   5.080  0.0754 -0.1198 -0.1480
 1200EOL    COH 1200   3.869   2.854   3.899 -0.0452 -0.0153 -0.0279
 1201EOL    COH 1201   4.335   1.304   4.705  0.0815 -0.4254 -0.2768
 1202EOL    COH 1202   6.204   3.539   6.003 -0.0201 -0.0645  0.2321
 1203EOL    COH 1203   1.850   5.519   3.663  0.1846 -0.1746 -0.2196
 1204EOL    COH 1204   2.229   4.415   3.231 -0.1656  0.0654 -0.1310
 1205EOL    COH 1205   4.881   3.479   2.093 -0.1950 -0.1024 -0.0472
 1206EOL    COH 1206   4.214   5.330   4.058 -0.1827  0.3186 -0.0928
 1207EOL    COH 1207   4.695   1.406   0.504  0.1736  0.2530  0.1215
 1208EOL    COH 1208   4.275   4.778   3.909  0.2103  0.1072 -0.1220
 1209EOL    COH 1209   0.236   4.068   6.183  0.0114 -0.0645  0.0371
 1210EOL    COH 1210   4.292   1.983   4.363  0.2254 -0.1394  0.0024
 1211EOL    COH 1211   0.820   0.940   6.302 -0.6015  0.2864 -0.1015
 1212EOL    COH 1212   3.383   2.033   2.819 -0.1525 -0.0564  0.0639
 1213EOL    COH 1213   5.427   4.614   5.289 -0.1077 -0.1302  0.3024
 1214EOL    COH 1214   1.226   0.396   5.397 -0.3640 -0.1724  0.0052
 1215EOL    COH 1215   0.945   3.306   4.107  0.0592 -0.0412  0.4303
 1216EOL    COH 1216   3.009   5.616   1.192 -0.0690  0.0439  0.1672
 1217EOL    COH 1217   4.715   5.459   3.634 -0.1955  0.1513  0.2400
 1218EOL    COH 1218   4.857   4.296   3.208 -0.2152 -0.2421  0.1460
 1219EOL    COH 1219   0.293   5.525   5.189  0.1449 -0.3214  0.1171
 1220EOL    COH 1220   2.523   1.942   5.817  0.4382 -0.3086  0.1881
 1221EOL    COH 1221   1.111   1.118   1.610 -0.0884 -0.2578  0.0961
 1222EOL    COH 1222   3.152   1.609   0.018  0.2838  0.4167  0.2956
 1223EOL    COH 1223   6.266   1.358   1.337  0.3472 -0.1454  0.1014
 1224EOL    COH 1224   5.949   5.087   4.640 -0.0653  0.1753  0.2272
 1225EOL    COH 1225   4.811   1.337   6.076  0.2492  0.0349 -0.0179
 1226EOL    COH 1226   3.789   1.901   3.201 -0.0644 -0.0578 -0.0082
 1227EOL    COH 1227   2.644   5.828   6.057 -0.0602 -0.0644  0.2425
 1228EOL    COH 1228   5.757   5.258   2.486 -0.2240  0.2210  0.0282
 1229EOL    COH 1229   5.629   5.458   3.237 -0.0294 -0.0420  0.1012
 1230EOL    COH 1230   3.620   2.949   4.817  0.1311  0.4230  0.0733
 1231EOL    COH 1231   6.233   3.185   2.135  0.1673  0.1920  0.1862
 1232EOL    COH 1232   5.091   5.903   0.450 -0.0950  0.1774 -0.1742
 1233EOL    COH 1233   6.392   4.056   4.555 -0.2217 -0.1584 -0.1705
 1234EOL    COH 1234   0.840   1.697   3.594 -0.0022 -0.2750  0.1331
 1235EOL    COH 1235   4.620   5.638   5.421  0.0369 -0.1400  0.1378
 1236EOL    COH 1236   3.145   4.309   3.645  0.2010  0.0177 -0.0445
 1237EOL    COH 1237   3.729   3.670   4.162  0.2804 -0.2821  0.0973
 1238EOL    COH 1238   2.034   2.415   2.306  0.0409  0.0868 -0.4236
 1239EOL    COH 1239   3.934   5.563   0.499 -0.1546 -0.1762 -0.1342
 1240EOL    COH 1240   2.708   5.174   4.277 -0.1004  0.0938  0.0196
 1241EOL    COH 1241   3.880   1.081   0.310  0.3716 -0.2187  0.0370
 1242EOL    COH 1242   4.220   2.873   3.548 -0.0632  0.2159 -0.2235
 1243EOL    COH 1243   2.722   3.625   2.724 -0.1111 -0.0638 -0.2002
 1244EOL    COH 1244   0.501   1.096   0.243  0.2516  0.0759  0.1108
 1245EOL    COH 1245   5.989   1.161   0.913 -0.0729 -0.2677  0.1644
 1246EOL    COH 1246   3.990   5.708   2.690  0.0140 -0.0776  0.3328
 1247EOL    COH 1247   4.661   1.794   6.363 -0.1701 -0.3501  0.2189
 1248EOL    COH 1248   1.823   0.148   5.029  0.0540 -0.2662 -0.2025
 1249EOL    COH 1249   0.583   4.793   3.998  0.3305  0.1768  0.0185
 1250EOL    COH 1250   2.786   2.837   3.844  0.0528 -0.0039  0.0289
 1251EOL    COH 1251   5.131   3.149   5.625  0.1435  0.0455  0.1094
 1252EOL    COH 1252   4.686   0.642   1.236 -0.1703 -0.1938 -0.1882
 1253EOL    COH 1253   4.727   5.741   4.083  0.1026  0.0381 -0.5404
 1254EOL    COH 1254   1.073   3.284   4.550  0.1068  0.2673  0.3231
 1255EOL    COH 1255   6.339   1.926   0.493 -0.1923 -0.1492 -0.2027
 1256EOL    COH 1256   3.972   1.559   3.916  0.2480 -0.0149 -0.1116
 1257EOL    COH 1257   1.995   5.757   1.041 -0.1119  0.1456  0.2391
 1258EOL    COH 1258   3.602   0.614   5.180 -0.0336 -0.1147 -0.1114
 1259EOL    COH 1259   4.298   1.220   6.164 -0.1215 -0.2736 -0.2035
 1260EOL    COH 1260   5.795   2.514   3.723  0.0746 -0.0610 -0.1753
 1261EOL    COH 1261   1.706   4.721   3.235  0.1541 -0.4001 -0.1157
 1262EOL    COH 1262   3.316   2.924   3.868  0.2207 -0.0281 -0.0459
 1263EOL    COH 1263   0.139   4.413   0.822 -0.0642 -0.0397  0.0068
 1264EOL    COH 1264   2.884   5.520   2.756 -0.2552 -0.1190  0.3064
 1265EOL    COH 1265   4.443   5.163   1.645  0.2507 -0.1203 -0.0169
 1266EOL    COH 1266   1.841   4.126   1.908 -0.0348  0.1815 -0.2635
 1267EOL    COH 1267   0.506   1.463   0.663  0.1671 -0.2106 -0.1559
 1268EOL    COH 1268   3.548   0.993   3.626  0.1680 -0.1056 -0.3012
 1269EOL    COH 1269   4.692   4.149   5.039 -0.0104 -0.0877 -0.4022
 1270EOL    COH 1270   3.729   2.987   5.751  0.0638 -0.0309 -0.0050
 1271EOL    COH 1271   4.873   2.016   1.541  0.2799  0.2355 -0.0943
 1272EOL    COH 1272   4.320   3.336   1.731 -0.0310  0.3705 -0.0932
 1273EOL    COH 1273   5.877   5.754   6.195 -0.1774  0.0199 -0.1647
 1274EOL    COH 1274   1.123   5.017   0.868  0.1830 -0.2235 -0.3129
 1275EOL    COH 1275   0.323   5.751   0.107 -0.1188 -0.0344 -0.0422
 1276EOL    COH 1276   2.139   0.888   0.242 -0.2105  0.0480  0.0408
 1277EOL    COH 1277   1.656   0.103   5.532 -0.0457 -0.0693 -0.2153
 1278EOL    COH 1278   5.275   6.185   2.449 -0.3115 -0.1343  0.0762
 1279EOL    COH 1279   1.644   3.071   6.248  0.1862 -0.0274 -0.1252
 1280EOL    COH 1280   1.810   0.607   5.807 -0.1006 -0.1598  0.4859
 1281EOL    COH 1281   6.353   4.871   2.184  0.0207  0.2187  0.0734
 1282EOL    COH 1282   2.749   0.643   3.841  0.0061  0.1282  0.1767
 1283EOL    COH 1283   4.848   1.010   1.697 -0.2520  0.1912 -0.2233
 1284EOL    COH 1284   5.680   3.235   3.656 -0.2193  0.1099  0.2068
 1285EOL    COH 1285   3.374   2.408   6.247  0.2570 -0.1908 -0.3548
 1286EOL    COH 1286   1.509   2.276   3.291  0.0820 -0.0572 -0.1584
 1287EOL    COH 1287   6.205   0.120   2.439 -0.0202  0.0978  0.0026
 1288EOL    COH 1288   5.603   5.671   3.913  0.1781  0.0299  0.0648
 1289EOL    COH 1289   3.225   6.399   4.520  0.2094 -0.1700 -0.1043
 1290EOL    COH 1290   1.531   4.238   5.297 -0.1091 -0.0578  0.1278
 1291EOL    COH 1291   3.002   4.351   2.481  0.1399  0.1884 -0.0162
 1292EOL    COH 1292   3.400   3.649   4.564 -0.0513  0.0711  0.1265
 1293EOL    COH 1293   3.085   2.528   5.835  0.0479  0.3472  0.0329
 1294EOL    COH 1294   5.515   1.292   2.662 -0.1658 -0.5320 -0.0098
 1295EOL    COH 1295   3.122   0.770   0.292  0.0883 -0.2540 -0.0581
 1296EOL    COH 1296   1.214   5.985   6.043 -0.1586 -0.0999 -0.0143
 1297EOL    COH 1297   4.011   0.235   6.151 -0.0920  0.0930 -0.1756
 1298EOL    COH 1298   1.264   4.570   3.361  0.0854  0.2408  0.4010
 1299EOL    COH 1299   0.075   1.016   3.996 -0.1337  0.0645 -0.0581
 1300EOL    COH 1300   3.931   2.068   3.742  0.0072 -0.3173 -0.2945
 1301EOL    COH 1301   3.980   3.382   3.768 -0.1279  0.0079  0.1025
 1302EOL    COH 1302   4.811   6.349   2.394 -0.4794 -0.1966 -0.2696
 1303EOL    COH 1303   0.244   1.241   6.237  0.1678  0.0494 -0.1331
 1304EOL    COH 1304   1.923   5.969   4.911  0.1177 -0.3131  0.1494
 1305EOL    COH 1305   2.422   4.350   1.980 -0.2626 -0.0044  0.1075
 1306EOL    COH 1306   4.901   6.031   5.327 -0.2455  0.0482  0.1257
 1307EOL    COH 1307   3.557   6.177   0.230  0.4070 -0.1920  0.1157
 1308EOL    COH 1308   4.430   2.747   3.069 -0.1221 -0.0881  0.1729
 1309EOL    COH 1309   4.464   6.163   5.538 -0.3430 -0.0605  0.1399
 1310EOL    COH 1310   6.134   4.337   2.420  0.1199  0.0862 -0.1659
 1311EOL    COH 1311   0.254   2.231   4.623 -0.0345 -0.0279  0.1347
 1312EOL    COH 1312   1.820   2.087   4.764  0.0557 -0.0526 -0.1697
 1313EOL    COH 1313   0.063   5.020   5.855  0.0459  0.0495  0.3412
 1314EOL    COH 1314   5.716   1.382   0.134 -0.1144 -0.0282  0.0843
 1315EOL    COH 1315   3.583   2.561   4.414 -0.0657  0.1997 -0.1357
 1316EOL    COH 1316   0.546   2.595   4.858 -0.0538  0.0535  0.2595
 1317EOL    COH 1317   3.263   3.735   1.101 -0.2464 -0.0777  0.1570
 1318EOL    COH 1318   0.842   2.302   0.303 -0.2352 -0.1561 -0.0130
 1319EOL    COH 1319   0.857   0.465   4.945 -0.0332  0.2119  0.0761
 1320EOL    COH 1320   3.240   2.174   1.089  0.2274 -0.1825 -0.0557
 1321EOL    COH 1321   2.740   1.553   6.188  0.2453  0.3080  0.1250
 1322EOL    COH 1322   2.428   6.405   2.543 -0.0525 -0.1531 -0.1641
 1323EOL    COH 1323   2.825   2.361   4.633 -0.0300  0.0527 -0.0197
 1324EOL    COH 1324   2.382   0.955   1.348 -0.1223  0.0226 -0.1425
 1325EOL    COH 1325   0.942   5.365   0.538  0.0895  0.0631 -0.1420
 1326EOL    COH 1326   0.558   5.121   0.684  0.1401  0.2940  0.0375
 1327EOL    COH 1327   2.444   5.587   4.248  0.0839  0.0302 -0.2399
 1328EOL    COH 1328   0.096   1.705   2.725  0.1023 -0.0882  0.1400
 1329EOL    COH 1329   5.785   5.455   1.426 -0.2043  0.2720 -0.3342
 1330EOL    COH 1330   2.056   3.558   4.932 -0.0100  0.2389  0.0377
 1331EOL    COH 1331   6.171   6.136   4.634  0.0016 -0.0938  0.0838
 1332EOL    COH 1332   0.763   6.021   4.556 -0.4356  0.3569 -0.0628
 1333EOL    COH 1333   2.861   2.315   3.069 -0.4818 -0.0401 -0.0307
 1334EOL    COH 1334   3.173   1.710   4.752 -0.1932 -0.0729  0.0696
 1335EOL    COH 1335   5.892   0.957   2.423 -0.2025  0.1704  0.1255
 1336EOL    COH 1336   1.152   2.673   0.490  0.0150  0.2181 -0.1731
 1337EOL    COH 1337   1.503   2.547   2.751  0.0236 -0.1959  0.0773
 1338EOL    COH 1338   1.483   5.139   5.561  0.1107  0.0361 -0.1664
 1339EOL    COH 1339   2.573   5.011   3.678 -0.0788 -0.2264 -0.0862
 1340EOL    COH 1340   2.980   6.248   5.140 -0.3841 -0.0765  0.0752
 1341EOL    COH 1341   3.079   5.264   0.062  0.0756 -0.1336 -0.3438
 1342EOL    COH 1342   2.927   6.181   6.297 -0.1714  0.0753 -0.0489
 1343EOL    COH 1343   0.597   2.434   5.750  0.2651 -0.0647 -0.1616
 1344EOL    COH 1344   1.421   4.878   0.489  0.2287 -0.0900  0.1788
 1345EOL    COH 1345   3.772   5.444   4.285 -0.0769  0.1846  0.2735
 1346EOL    COH 1346   3.065   3.988   0.591  0.1192  0.4079 -0.1149
 1347EOL    COH 1347   1.550   1.639   1.785  0.0917  0.0729  0.0314
 1348EOL    COH 1348   0.772   5.538   0.113  0.1986 -0.0758  0.0397
 1349EOL    COH 1349   1.141   1.870   5.610  0.0854 -0.0166  0.0475
 1350EOL    COH 1350   3.164   2.200   2.181  0.1401  0.1128 -0.3362
 1351EOL    COH 1351   5.688   3.945   1.714  0.1222  0.0692  0.1165
 1352EOL    COH 1352   2.613   3.187   2.914  0.3235  0.0400  0.1206
 1353EOL    COH 1353   1.119   1.301   5.502  0.0128  0.1737 -0.0514
 1354EOL    COH 1354   1.316   2.250   5.191  0.2438 -0.0217 -0.4361
 1355EOL    COH 1355   5.468   4.994   4.893  0.0080 -0.2587 -0.1723
 1356EOL    COH 1356   3.341   4.160   4.869 -0.0038  0.1260  0.2411
 1357EOL    COH 1357   6.108   0.022   5.653 -0.1206  0.1233  0.0140
 1358EOL    COH 1358   0.174   2.444   5.517 -0.0601  0.3860 -0.0606
 1359EOL    COH 1359   4.840   1.029   4.747  0.3907 -0.4020 -0.3560
 1360EOL    COH 1360   0.556   3.329   1.233  0.0152 -0.1218 -0.2380
 1361EOL    COH 1361   2.643   5.905   3.351 -0.0015 -0.0050 -0.0915
 1362EOL    COH 1362   0.696   0.880   2.881  0.3255  0.0875 -0.1042
 1363EOL    COH 1363   4.255   1.455   0.203  0.1350  0.1929 -0.1270
 1364EOL    COH 1364   4.012   5.497   1.916  0.3833 -0.0060  0.1863
 1365EOL    COH 1365   6.123   5.770   1.702  0.1624  0.1119 -0.0751
 1366EOL    COH 1366   4.910   3.839   1.704 -0.2120  0.0149  0.0989
 1367EOL    COH 1367   5.749   3.884   0.878  0.1078 -0.1568 -0.2871
 1368EOL    COH 1368   1.520   0.887   1.435 -0.0631  0.3628 -0.3610
 1369EOL    COH 1369   4.143   1.833   1.945 -0.3609  0.4119  0.1583
 1370EOL    COH 1370   0.898   1.741   0.232 -0.0307  0.2217 -0.0767
 1371EOL    COH 1371   5.625   4.094   5.575 -0.2335 -0.2901 -0.0084
 1372EOL    COH 1372   2.377   1.815   6.342  0.1407 -0.1461  0.0425
 1373EOL    COH 1373   4.967   4.992   2.026  0.2046  0.0930 -0.3190
 1374EOL    COH 1374   3.712   5.364   2.327  0.0447  0.0103  0.1924
 1375EOL    COH 1375   4.051   1.611   1.164  0.1898  0.0629 -0.3031
 1376EOL    COH 1376   5.457   4.927   2.211  0.2638  0.1240  0.0511
 1377EOL    COH 1377   3.500   1.570   5.873  0.0263 -0.3734  0.3149
 1378EOL    COH 1378   5.734   5.577   0.912  0.1723 -0.3846 -0.0428
 1379EOL    COH 1379   0.852   2.258   6.229 -0.1973 -0.0226 -0.0169
 1380EOL    COH 1380   5.341   2.163   2.887  0.1414  0.2659 -0.1427
 1381EOL    COH 1381   0.252   2.318   4.086 -0.0542 -0.1196  0.2205
 1382EOL    COH 1382   5.464   6.383   1.564  0.2914 -0.1042 -0.1074
 1383EOL    COH 1383   4.327   6.383   4.567 -0.0976  0.0292 -0.1790
 1384EOL    COH 1384   1.775   4.344   0.023 -0.1454 -0.0705  0.0764
 1385EOL    COH 1385   4.297   3.047   0.784 -0.0742 -0.0896 -0.2509
 1386EOL    COH 1386   5.159   5.562   3.854 -0.2942  0.1144 -0.3023
 1387EOL    COH 1387   3.549   5.272   1.866  0.3141 -0.1415 -0.2819
 1388EOL    COH 1388   5.734   5.217   6.218  0.1253 -0.2215 -0.0487
 1389EOL    COH 1389   0.507   1.403   4.789 -0.0038 -0.1938  0.3990
 1390EOL    COH 1390   6.106   4.971   4.090 -0.0955  0.1624  0.2354
 1391EOL    COH 1391   6.239   2.439   2.927  0.1104 -0.0648  0.5414
 1392EOL    COH 1392   0.605   4.149   2.355  0.1917  0.1874  0.0195
 1393EOL    COH 1393   2.996   2.679   1.961  0.3541 -0.2771 -0.2134
 1394EOL    COH 1394   3.232   3.707   6.297 -0.0344 -0.1276  0.0225
 1395EOL    COH 1395   3.314   4.621   0.921  0.0966 -0.2017  0.0195
 1396EOL    COH 1396   5.703   3.142   5.242 -0.0328  0.0633  0.0907
 1397EOL    COH 1397   2.278   6.117   4.222  0.0210  0.0648 -0.2723
 1398EOL    COH 1398   2.919   3.683   1.864 -0.1693 -0.3429 -0.1068
 1399EOL    COH 1399   2.724   2.447   0.190 -0.1302 -0.1170 -0.2264
 1400EOL    COH 1400   5.227   6.289   5.599  0.1476 -0.0867  0.5158
 1401EOL    COH 1401   0.191   3.659   0.085 -0.0487 -0.1597  0.2229
 1402EOL    COH 1402   0.499   3.140   3.972 -0.0849 -0.0662 -0.2171
 1403EOL    COH 1403   6.168   2.507   2.438 -0.0441 -0.1946  0.4069
 1404EOL    COH 1404   5.753   2.265   1.128 -0.0180 -0.1086 -0.2777
 1405EOL    COH 1405   1.341   0.327   5.875  0.0460  0.0169  0.4108
 1406EOL    COH 1406   1.929   3.116   4.111 -0.2015 -0.1366 -0.0130
 1407EOL    COH 1407   4.428   6.126   2.123  0.4555  0.0465 -0.0903
 1408EOL    COH 1408   3.284   4.926   5.250  0.2237  0.1391  0.0897
 1409EOL    COH 1409   1.854   5.423   0.731 -0.0327  0.0348  0.1458
 1410EOL    COH 1410   4.293   5.202   3.501 -0.4076 -0.2691 -0.1610
 1411EOL    COH 1411   0.728   0.846   3.405 -0.0311 -0.1159 -0.0257
 1412EOL    COH 1412   0.752   4.383   1.287  0.1148 -0.0644 -0.1418
 1413EOL    COH 1413   0.435   2.823   3.369  0.3785 -0.1288  0.1160
 1414EOL    COH 1414   2.690   4.358   0.146  0.1796 -0.1868  0.0079
 1415EOL    COH 1415   1.674   2.062   2.484  0.0637 -0.1323  0.0083
 1416EOL    COH 1416   2.969   4.545   4.978  0.0132 -0.1528 -0.1006
 1417EOL    COH 1417   3.219   2.647   4.785  0.2266 -0.0508 -0.1370
 1418EOL    COH 1418   1.746   4.945   2.116 -0.1451  0.0920 -0.0008
 1419EOL    COH 1419   3.976   6.335   4.088 -0.3318 -0.1968 -0.0455
 1420EOL    COH 1420   0.805   4.488   4.369  0.0582 -0.2235  0.1762
 1421EOL    COH 1421   6.303   0.347   1.233 -0.2545  0.1357 -0.3097
 1422EOL    COH 1422   2.956   4.686   1.285 -0.0393 -0.1848 -0.1891
 1423EOL    COH 1423   3.461   0.560   3.325 -0.0427 -0.0570 -0.3590
 1424EOL    COH 1424   2.074   1.736   5.536  0.1448 -0.1286  0.2374
 1425EOL    COH 1425   3.918   6.244   2.408 -0.3842 -0.5127  0.1331
 1426EOL    COH 1426   0.487   6.418   3.214 -0.0007  0.0336  0.3966
 1427EOL    COH 1427   6.298   0.978   2.762  0.0993  0.1862  0.2143
 1428EOL    COH 1428   0.087   0.708   6.341  0.1117 -0.0390  0.0274
 1429EOL    COH 1429   6.347   6.144   3.363  0.0322 -0.0717  0.5708
 1430EOL    COH 1430   0.556   2.481   1.639 -0.2170  0.1600  0.1015
 1431EOL    COH 1431   2.062   0.428   5.375  0.4682  0.3247 -0.0181
 1432EOL    COH 1432   4.307   4.709   2.587  0.1415 -0.1032  0.3125
 1433EOL    COH 1433   3.454   0.646   2.330  0.1307 -0.0392  0.1204
 1434EOL    COH 1434   0.540   5.379   1.459 -0.3139  0.2709 -0.1293
 1435EOL    COH 1435   4.424   2.671   0.503  0.0721  0.2664 -0.0764
 1436EOL    COH 1436   0.859   1.191   2.488 -0.0289  0.1892  0.3572
 1437EOL    COH 1437   1.942   4.416   5.521  0.2391 -0.0643 -0.1494
 1438EOL    COH 1438   1.375   0.114   0.785  0.0007 -0.1834  0.1909
 1439EOL    COH 1439   5.932   1.757   4.043 -0.1535 -0.2550 -0.5035
 1440EOL    COH 1440   5.223   0.594   0.995 -0.0141  0.3100  0.0998
 1441EOL    COH 1441   2.015   6.187   0.336 -0.2124  0.1410  0.0310
 1442EOL    COH 1442   6.280   4.676   5.529 -0.1181 -0.1170  0.1867
 1443EOL    COH 1443   3.134   1.198   1.304  0.0956  0.1578 -0.1272
 1444EOL    COH 1444   3.161   3.844   2.538  0.1453 -0.3719  0.0387
 1445EOL    COH 1445   2.145   2.856   6.161 -0.0978  0.1570 -0.0990
 1446EOL    COH 1446   1.496   2.322   4.357  0.0958  0.0467  0.1341
 1447EOL    COH 1447   2.436   3.101   5.830  0.1388  0.1080 -0.2373
 1448EOL    COH 1448   0.266   3.417   2.146 -0.3190 -0.0071  0.0704
 1449EOL    COH 1449   3.024   3.049   5.096 -0.0054  0.0662  0.1004
 1450EOL    COH 1450   0.385   6.313   1.896 -0.0964 -0.0542 -0.0099
 1451EOL    COH 1451   4.869   6.109   2.932  0.4944  0.0322  0.2546
 1452EOL    COH 1452   2.512   5.165   2.828 -0.1054 -0.1915  0.3427
 1453EOL    COH 1453   5.271   6.358   0.194 -0.1444  0.1511 -0.1078
 1454EOL    COH 1454   0.003   0.832   1.329 -0.1900 -0.1148  0.0913
 1455EOL    COH 1455   2.881   4.110   4.030 -0.0382  0.4169 -0.1361
 1456EOL    COH 1456   3.468   4.915   6.425 -0.3109  0.0758 -0.2960
 1457EOL    COH 1457   2.301   1.324   3.163 -0.1706 -0.0885  0.2578
 1458EOL    COH 1458   1.029   1.265   0.245  0.1023  0.1057 -0.1552
 1459EOL    COH 1459   0.009   4.621   1.686 -0.0682 -0.1628  0.0515
 1460EOL    COH 1460   4.648   2.620   1.564 -0.0161 -0.1476  0.1197
 1461EOL    COH 1461   4.456   6.081   1.086  0.0924  0.2012  0.2971
 1462EOL    COH 1462   5.679   2.806   1.772  0.2040 -0.1728  0.2733
 1463EOL    COH 1463   3.130   6.025   0.889  0.3674  0.0637  0.2056
 1464EOL    COH 1464   5.482   4.108   1.276  0.4115 -0.1296 -0.0389
 1465EOL    COH 1465   4.376   4.314   2.905 -0.0125  0.2708  0.1483
 1466EOL    COH 1466   3.752   0.559   1.291 -0.1558 -0.2903 -0.2445
 1467EOL    COH 1467   4.161   3.789   2.964  0.3146  0.0807 -0.1293
 1468EOL    COH 1468   2.679   4.032   3.397 -0.0329  0.1200  0.1840
 1469EOL    COH 1469   3.023   6.410   2.880  0.2241  0.0429 -0.2488
 1470EOL    COH 1470   3.588   4.424   6.356 -0.1009  0.4307 -0.2843
 1471EOL    COH 1471   3.926   0.498   0.625 -0.1747 -0.0042  0.1370
 1472EOL    COH 1472   0.162   6.240   5.797  0.0416 -0.0643 -0.1136
 1473EOL    COH 1473   5.269   5.900   6.342 -0.1617  0.0579  0.1733
 1474EOL    COH 1474   3.550   6.098   5.515 -0.1085  0.0354 -0.0019
 1475EOL    COH 1475   5.468   0.634   0.256  0.3115  0.1239 -0.0064
 1476EOL    COH 1476   4.927   6.301   0.778 -0.1594  0.0058  0.3005
 1477EOL    COH 1477   5.254   5.955   4.710 -0.0145 -0.0878 -0.0368
 1478EOL    COH 1478   0.140   6.183   5.289 -0.0863 -0.0940 -0.0533
 1479EOL    COH 1479   6.282   4.308   5.965  0.1200 -0.1427 -0.1497
 1480EOL    COH 1480   6.086   0.130   3.044 -0.0160  0.0865 -0.1611
 1481EOL    COH 1481   1.609   1.869   3.002 -0.3131 -0.1465  0.1236
 1482EOL    COH 1482   1.334   5.840   1.913 -0.0802  0.0109  0.0877
 1483EOL    COH 1483   5.286   4.359   0.126  0.4000  0.2616  0.1413
 1484EOL    COH 1484   4.189   1.994   2.828  0.0642  0.1132  0.2139
 1485EOL    COH 1485   1.585   1.667   6.105 -0.1587 -0.3977  0.1615
 1486EOL    COH 1486   0.309   3.009   4.958 -0.2815  0.1083  0.0465
 1487EOL    COH 1487   6.420   0.114   4.880  0.0613  0.2209 -0.1694
 1488EOL    COH 1488   5.108   1.586   2.659 -0.2214  0.2427 -0.1141
 1489EOL    COH 1489   6.267   5.627   1.258  0.2301  0.2474  0.0374
 1490EOL    COH 1490   3.922   0.450   2.362 -0.2298 -0.1730 -0.0927
 1491EOL    COH 1491   0.204   1.753   4.598 -0.0633  0.0357 -0.0208
 1492EOL    COH 1492   3.835   3.539   0.325  0.1052 -0.1722  0.0986
 1493EOL    COH 1493   2.987   0.679   1.153  0.3309 -0.3240  0.0921
 1494EOL    COH 1494   0.963   3.506   0.819  0.2174 -0.1273  0.1401
 1495EOL    COH 1495   4.420   6.102   2.633 -0.2532  0.1212  0.2201
 1496EOL    COH 1496   5.167   5.141   1.437 -0.0957  0.1503 -0.1565
 1497EOL    COH 1497   0.210   0.247   0.081  0.2916 -0.0150 -0.0833
 1498EOL    COH 1498   1.809   2.756   4.479 -0.1731 -0.4146  0.3814
 1499EOL    COH 1499   5.688   5.730   0.239 -0.2179 -0.1094  0.1544
 1500EOL    COH 1500   3.237   4.365   5.374  0.3875 -0.1152  0.1000
 1501EOL    COH 1501   1.745   3.238   2.755 -0.3968 -0.1263 -0.0040
 1502EOL    COH 1502   0.232   3.306   1.593  0.3846  0.0718 -0.1339
 1503EOL    COH 1503   1.133   2.324   5.833 -0.0843 -0.0112 -0.1071
 1504EOL    COH 1504   5.136   2.683   3.078 -0.0362 -0.0770  0.3963
 1505EOL    COH 1505   1.318   5.670   0.001 -0.1754  0.1220  0.1350
 1506EOL    COH 1506   1.546   1.219   0.442  0.1340  0.1723 -0.0294
 1507EOL    COH 1507   3.601   4.647   1.904  0.2428 -0.0509 -0.2016
 1508EOL    COH 1508   2.719   5.106   1.496 -0.4933  0.4307 -0.0353
 1509EOL    COH 1509   1.224   3.360   1.894  0.0613 -0.0119  0.1297
 1510EOL    COH 1510   3.504   6.157   3.783  0.2756 -0.0034 -0.0433
 1511EOL    COH 1511   5.168   3.392   3.949 -0.3158 -0.0818  0.1047
 1512EOL    COH 1512   3.579   3.263   2.393  0.0375 -0.0590 -0.4968
 1513EOL    COH 1513   1.554   6.369   6.007  0.1516 -0.0808 -0.1742
 1514EOL    COH 1514   5.308   2.330   0.831 -0.0969 -0.0206  0.1019
 1515EOL    COH 1515   0.920   4.878   0.438 -0.1241 -0.2232 -0.1525
 1516EOL    COH 1516   1.548   1.553   5.608 -0.0575  0.1119 -0.0737
 1517EOL    COH 1517   0.779   2.857   4.426 -0.1957  0.0214  0.1568
 1518EOL    COH 1518   2.892   1.502   5.663  0.1183 -0.1238 -0.4396
 1519EOL    COH 1519   1.835   0.647   1.150 -0.0286 -0.2270  0.1016
 1520EOL    COH 1520   5.745   3.268   4.814 -0.0426  0.0751 -0.0423
 1521EOL    COH 1521   5.474   2.845   4.800 -0.0743 -0.0246 -0.0776
 1522EOL    COH 1522   2.639   6.278   0.352  0.0174 -0.1425 -0.2268
 1523EOL    COH 1523   1.828   4.581   0.444  0.2307 -0.1303 -0.2623
 1524EOL    COH 1524   6.118   2.239   0.180 -0.1124  0.2106  0.1444
 1525EOL    COH 1525   6.050   6.295   5.185  0.0903  0.4768  0.1695
 1526EOL    COH 1526   0.416   0.519   3.162  0.0092  0.2210  0.2360
 1527EOL    COH 1527   4.358   0.816   4.008 -0.0877  0.0593 -0.1025
 1528EOL    COH 1528   4.297   3.050   6.280 -0.4381  0.0685  0.0414
 1529EOL    COH 1529   3.153   3.353   1.564  0.1814 -0.2179  0.1116
 1530EOL    COH 1530   6.054   0.702   4.007 -0.2583 -0.2099  0.0768
 1531EOL    COH 1531   2.499   3.381   1.705  0.1838  0.0723 -0.1475
 1532EOL    COH 1532   5.813   3.348   2.848  0.1628  0.1355 -0.1686
 1533EOL    COH 1533   0.730   1.288   3.139  0.1733  0.1729 -0.0422
 1534EOL    COH 1534   5.740   3.316   1.791 -0.0918 -0.1892 -0.0174
 1535EOL    COH 1535   4.385   1.928   5.321 -0.2953  0.2263  0.0338
 1536EOL    COH 1536   4.502   1.799   3.874  0.0906 -0.1129 -0.1580
 1537EOL    COH 1537   3.556   1.080   5.848 -0.0832 -0.1017 -0.3905
 1538EOL    COH 1538   3.101   0.138   4.046 -0.0075 -0.0105 -0.0735
 1539EOL    COH 1539   3.940   2.098   1.513  0.0843 -0.0361 -0.2094
 1540EOL    COH 1540   2.531   4.619   1.542 -0.0646 -0.0878 -0.2481
 1541EOL    COH 1541   3.295   1.223   2.148  0.0472  0.0609  0.0699
 1542EOL    COH 1542   5.418   1.791   1.473  0.3163  0.2366 -0.2735
 1543EOL    COH 1543   4.026   3.439   1.304 -0.2223 -0.0920  0.0958
 1544EOL    COH 1544   0.966   3.560   0.079 -0.5287 -0.0728  0.1786
 1545EOL    COH 1545   1.005   1.406   1.061  0.1169  0.0911  0.0272
 1546EOL    COH 1546   2.193   2.212   5.491 -0.1078 -0.1581 -0.0034
 1547EOL    COH 1547   4.022   6.104   1.873  0.1401  0.2861 -0.3318
 1548EOL    COH 1548   3.539   0.157   2.498 -0.0214 -0.1174  0.1443
 1549EOL    COH 1549   4.770   5.986   5.865  0.0055  0.0416 -0.1872
 1550EOL    COH 1550   5.782   4.011   2.229  0.1786 -0.0727  0.0270
 1551EOL    COH 1551   4.143   3.124   4.317  0.3439  0.0824 -0.2466
 1552EOL    COH 1552   4.098   5.217   0.099  0.0208 -0.0662  0.2170
 1553EOL    COH 1553   4.060   4.732   3.437  0.1720  0.2026  0.0414
 1554EOL    COH 1554   5.134   4.511   2.218  0.0610  0.1979  0.1251
 1555EOL    COH 1555   4.486   1.301   1.237 -0.0426 -0.0451 -0.1767
 1556EOL    COH 1556   0.837   2.907   1.589 -0.0642 -0.1888 -0.2997
 1557EOL    COH 1557   3.694   2.642   0.332 -0.1527 -0.0357 -0.0421
 1558EOL    COH 1558   2.417   1.440   0.198  0.0702  0.1031  0.1787
 1559EOL    COH 1559   1.786   0.507   2.008  0.2497 -0.2433  0.2518
 1560EOL    COH 1560   3.462   0.410   4.679 -0.3007 -0.0888 -0.1219
 1561EOL    COH 1561   1.917   5.990   6.298  0.2701  0.0633  0.0049
 1562EOL    COH 1562   0.539   1.111   1.441 -0.0168  0.0335 -0.1065
 1563EOL    COH 1563   4.491   4.295   5.531  0.1536 -0.2369  0.0238
 1564EOL    COH 1564   5.625   0.980   3.986  0.0719 -0.2674  0.2505
 1565EOL    COH 1565   3.027   1.341   4.257 -0.2397 -0.1146  0.0077
 1566EOL    COH 1566   1.764   2.016   5.229 -0.0253 -0.0337 -0.2932
 1567EOL    COH 1567   1.010   6.377   3.532  0.4212  0.2067  0.0926
 1568EOL    COH 1568   5.761   3.957   0.402 -0.1607 -0.1071  0.1016
 1569EOL    COH 1569   0.905   4.537   3.780 -0.2396  0.0053  0.5367
 1570EOL    COH 1570   4.140   2.292   0.455  0.0754  0.4494  0.1983
 1571EOL    COH 1571   0.718   5.067   4.415  0.1401  0.0883 -0.3172
 1572EOL    COH 1572   5.088   5.724   1.725 -0.0607 -0.1703 -0.0554
 1573EOL    COH 1573   2.108   2.924   5.038 -0.2261  0.1066 -0.3408
 1574EOL    COH 1574   4.119   1.516   5.338 -0.1270  0.1732  0.1476
 1575EOL    COH 1575   3.641   4.681   5.007  0.0800 -0.1783  0.0945
 1576EOL    COH 1576   5.043   3.847   1.150  0.1138 -0.2096  0.1179
 1577EOL    COH 1577   1.626   3.481   1.485  0.2191  0.0888 -0.1100
 1578EOL    COH 1578   1.072   5.013   4.016 -0.0769  0.2369  0.2085
 1579EOL    COH 1579   6.131   4.307   3.749  0.3513  0.3887 -0.1936
 1580EOL    COH 1580   5.012   1.592   1.175  0.1058 -0.3504  0.1378
 1581EOL    COH 1581   2.854   0.502   1.604  0.0288 -0.0281 -0.1204
 1582EOL    COH 1582   3.102   6.098   0.342 -0.0280 -0.1963 -0.0421
 1583EOL    COH 1583   4.230   5.854   4.463 -0.1563 -0.0959  0.1179
 1584EOL    COH 1584   3.212   3.137   4.584 -0.0746  0.0288 -0.0071
 1585EOL    COH 1585   2.324   5.637   1.933  0.2703  0.0018 -0.2453
 1586EOL    COH 1586   1.831   1.905   1.389  0.0311 -0.2076  0.0284
 1587EOL    COH 1587   2.760   3.072   0.181  0.4118  0.2350  0.1359
 1588EOL    COH 1588   5.818   1.865   1.933  0.4346  0.2576 -0.4244
 1589EOL    COH 1589   2.771   6.030   2.590  0.0292  0.0116  0.3185
 1590EOL    COH 1590   5.395   5.246   2.861  0.1212  0.0370  0.0293
 1591EOL    COH 1591   2.740   3.843   0.116  0.0692  0.0089  0.0424
 1592EOL    COH 1592   1.517   4.178   0.763  0.1173 -0.1739  0.1489
 1593EOL    COH 1593   6.259   2.188   2.025 -0.0197  0.0535  0.0327
 1594EOL    COH 1594   0.691   2.022   1.394  0.0520 -0.1812  0.1277
 1595EOL    COH 1595   0.123   5.546   1.608 -0.0850  0.0377 -0.0191
 1596EOL    COH 1596   2.764   3.671   1.392 -0.0323  0.1116 -0.1447
 1597EOL    COH 1597   0.020   1.937   0.001 -0.0474  0.0227  0.1154
 1598EOL    COH 1598   0.244   5.470   2.827 -0.2013  0.0140 -0.0583
 1599EOL    COH 1599   6.154   1.889   3.043 -0.1314 -0.1220 -0.0536
 1600EOL    COH 1600   5.291   2.918   0.879 -0.0539  0.1872  0.1551
 1601EOL    COH 1601   2.434   2.578   1.488 -0.0160  0.1586  0.0143
 1602EOL    COH 1602   0.895   6.011   0.004  0.1178  0.2710 -0.0485
 1603EOL    COH 1603   0.704   2.189   3.930 -0.0769  0.3273  0.2828
 1604EOL    COH 1604   2.015   2.250   3.013  0.1455 -0.0592  0.1094
 1605EOL    COH 1605   4.005   0.172   2.754 -0.3409  0.0418 -0.2734
 1606EOL    COH 1606   4.208   3.867   5.720  0.1521 -0.0472 -0.1480
 1607EOL    COH 1607   3.130   4.187   6.414 -0.2129  0.3505 -0.1699
 1608EOL    COH 1608   0.218   4.567   5.155 -0.0165  0.0924 -0.0883
 1609EOL    COH 1609   3.486   5.372   0.803 -0.4059 -0.3221 -0.0079
 1610EOL    COH 1610   3.800   5.010   0.526  0.4654  0.0239 -0.0413
 1611EOL    COH 1611   5.618   4.776   2.888 -0.0771 -0.1778  0.2683
 1612EOL    COH 1612   4.279   1.848   3.421 -0.2183  0.1208  0.0207
 1613EOL    COH 1613   0.017   3.117   4.172 -0.1846  0.2394  0.1545
 1614EOL    COH 1614   4.309   0.283   5.668 -0.0384  0.0863  0.0146
 1615EOL    COH 1615   0.465   1.964   5.588 -0.1832 -0.2991  0.1147
 1616EOL    COH 1616   5.221   4.849   5.670  0.1893  0.2779  0.0884
 1617EOL    COH 1617   5.524   5.526   4.820  0.1758 -0.3146 -0.3696
 1618EOL    COH 1618   2.190   2.882   0.241 -0.1661 -0.3147 -0.1547
 1619EOL    COH 1619   5.257   3.979   3.053 -0.0484 -0.0616  0.2055
 1620EOL    COH 1620   6.176   1.153   0.046  0.1766  0.1741  0.4517
 1621EOL    COH 1621   3.753   5.828   2.200  0.0545 -0.3999  0.0270
 1622EOL    COH 1622   5.204   3.058   0.280 -0.2887 -0.0080  0.0895
 1623EOL    COH 1623   0.793   1.599   4.059 -0.2047 -0.2109  0.1110
 1624EOL    COH 1624   2.645   4.356   2.923 -0.0310  0.0502  0.1001
 1625EOL    COH 1625   5.413   0.283   3.699 -0.4193 -0.2349 -0.0984
 1626EOL    COH 1626   2.752   2.347   1.176  0.1221 -0.0746 -0.3938
 1627EOL    COH 1627   3.475   6.342   1.111 -0.1037  0.2579 -0.2200
 1628EOL    COH 1628   5.359   3.363   1.012 -0.1681  0.1819  0.2390
 1629EOL    COH 1629   3.417   2.154   5.581  0.1697 -0.0077 -0.0585
 1630EOL    COH 1630   0.166   2.075   3.117 -0.2332 -0.0644  0.0597
 1631EOL    COH 1631   2.248   0.890   5.851  0.0636 -0.1403 -0.0455
 1632EOL    COH 1632   2.721   2.803   5.443  0.1470 -0.1819  0.3710
 1633EOL    COH 1633   5.518   2.642   0.405 -0.1696  0.0992 -0.1225
 1634EOL    COH 1634   0.838   4.549   5.820 -0.1880  0.2909 -0.1314
 1635EOL    COH 1635   0.021   2.588   4.931  0.2082  0.2009 -0.4062
 1636EOL    COH 1636   0.337   1.254   2.148 -0.2407  0.1950  0.2012
 1637EOL    COH 1637   0.197   1.536   0.282 -0.0286 -0.1570 -0.0108
 1638EOL    COH 1638   0.763   1.037   1.983 -0.1050 -0.0679 -0.2996
 1639EOL    COH 1639   1.798   5.927   4.050  0.1693  0.0377 -0.0263
 1640EOL    COH 1640   0.915   5.750   5.670  0.1421 -0.1726  0.2563
 1641EOL    COH 1641   5.470   4.377   2.606  0.1365 -0.3288 -0.2831
 1642EOL    COH 1642   5.721   2.507   4.317 -0.0563 -0.3614  0.0978
 1643EOL    COH 1643   0.838   2.073   4.838  0.1407  0.0518  0.1697
 1644EOL    COH 1644   0.027   6.357   4.253 -0.2997 -0.0752 -0.2535
 1645EOL    COH 1645   4.528   2.710   0.974 -0.1969 -0.1277 -0.4367
 1646EOL    COH 1646   4.240   0.507   1.496 -0.0132  0.0186 -0.0037
 1647EOL    COH 1647   1.307   4.753   1.851 -0.0318  0.0021  0.0735
 1648EOL    COH 1648   5.622   3.134   5.846 -0.2697 -0.0865 -0.0180
 1649EOL    COH 1649   2.335   5.497   0.741  0.2451  0.0225 -0.1136
 1650EOL    COH 1650   1.066   4.456   0.738  0.0312  0.0085  0.3911
 1651EOL    COH 1651   4.165   5.834   5.747 -0.1639 -0.1064  0.0129
 1652EOL    COH 1652   5.570   0.567   2.181 -0.0281  0.0027 -0.0899
 1653EOL    COH 1653   4.955   3.577   3.138  0.1010 -0.0181  0.0865
 1654EOL    COH 1654   1.566   2.884   0.299  0.0110 -0.2262 -0.0370
 1655EOL    COH 1655   4.555   4.209   1.780  0.0141  0.0204  0.0877
 1656EOL    COH 1656   3.012   0.897   5.247 -0.0791 -0.0922 -0.2908
 1657EOL    COH 1657   4.702   5.398   2.171 -0.0904  0.0397  0.3219
 1658EOL    COH 1658   2.486   5.578   2.435 -0.0768 -0.2874  0.1489
 1659EOL    COH 1659   4.150   0.160   0.233  0.0514  0.2994 -0.1778
 1660EOL    COH 1660   3.860   5.536   5.388 -0.3842  0.0410 -0.1866
 1661EOL    COH 1661   3.310   0.214   1.997  0.1531  0.2113 -0.2445
 1662EOL    COH 1662   1.188   1.991   1.492 -0.0435  0.0355  0.4350
 1663EOL    COH 1663   4.257   3.869   1.058 -0.0186  0.0057 -0.0283
 1664EOL    COH 1664   0.964   5.244   5.468  0.0695  0.0406  0.3451
 1665EOL    COH 1665   3.967   2.187   1.052  0.1289 -0.0284 -0.1144
 1666EOL    COH 1666   3.893   3.505   5.718  0.1550 -0.2699  0.2713
 1667EOL    COH 1667   5.815   1.503   6.115  0.1693  0.1109 -0.1798
 1668EOL    COH 1668   2.246   1.369   2.448 -0.3873 -0.2180  0.0901
 1669EOL    COH 1669   4.568   4.761   5.357  0.0117  0.1270 -0.1090
 1670EOL    COH 1670   2.780   3.384   3.756 -0.1085 -0.1915 -0.3031
 1671EOL    COH 1671   3.551   5.787   5.132  0.1161  0.0362 -0.1462
 1672EOL    COH 1672   2.076   6.329   5.365 -0.0099  0.1278  0.0749
 1673EOL    COH 1673   0.419   5.812   3.544 -0.1252 -0.0775  0.4051
 1674EOL    COH 1674   0.834   3.192   2.165  0.5870  0.0129 -0.0335
 1675EOL    COH 1675   5.903   4.138   4.587 -0.0369  0.4117  0.1032
 1676EOL    COH 1676   1.761   1.324   2.531 -0.0760  0.3004  0.0289
 1677EOL    COH 1677   6.183   5.410   3.907  0.0619 -0.2151  0.1417
 1678EOL    COH 1678   2.749   6.422   4.680 -0.3404 -0.0087 -0.2447
 1679EOL    COH 1679   0.126   4.534   3.124  0.0482  0.1947 -0.0889
 1680EOL    COH 1680   3.636   3.559   1.633  0.1112 -0.0857 -0.1087
 1681EOL    COH 1681   5.484   4.771   0.093  0.0544 -0.0961  0.4228
 1682EOL    COH 1682   3.353   5.779   6.424  0.0995  0.1411  0.5860
 1683EOL    COH 1683   5.106   2.008   2.458  0.2149 -0.0745  0.0229
 1684EOL    COH 1684   2.427   0.440   5.904  0.0608 -0.1699 -0.0158
 1685EOL    COH 1685   5.503   3.790   4.607  0.3370 -0.0413 -0.0008
 1686EOL    COH 1686   4.771   3.141   5.337 -0.2615 -0.1705  0.0427
 1687EOL    COH 1687   0.885   5.083   2.666 -0.0472 -0.1202 -0.0782
 1688EOL    COH 1688   3.458   3.385   5.477  0.4218  0.1422 -0.0136
 1689EOL    COH 1689   5.024   1.960   3.910  0.2190 -0.2908 -0.1305
 1690EOL    COH 1690   4.714   0.030   1.828 -0.1473  0.1227 -0.0468
 1691EOL    COH 1691   5.664   0.110   2.399  0.0180 -0.0094  0.2905
 1692EOL    COH 1692   3.478   0.427   0.920 -0.0627  0.1981  0.3245
 1693EOL    COH 1693   4.457   2.211   0.905 -0.1977  0.0325  0.1271
 1694EOL    COH 1694   1.347   1.952   4.692 -0.3216 -0.0443  0.1722
 1695EOL    COH 1695   4.750   1.107   3.819  0.2717  0.0511  0.0223
 1696EOL    COH 1696   1.554   3.249   3.252  0.0507  0.3118  0.2157
 1697EOL    COH 1697   5.095   1.500   5.031  0.0660  0.1700 -0.2627
 1698EOL    COH 1698   4.104   5.225   4.664 -0.2277 -0.0258 -0.0798
 1699EOL    COH 1699   2.066   3.139   1.512  0.0145  0.1487 -0.1200
 1700EOL    COH 1700   4.080   3.857   1.606  0.0709  0.0155 -0.0947
 1701EOL    COH 1701   3.976   1.982   2.369 -0.0343 -0.3012 -0.0499
 1702EOL    COH 1702   3.464   2.779   0.945  0.1928 -0.0509 -0.0508
 1703EOL    COH 1703   0.741   5.702   1.051  0.1857  0.2159  0.0861
 1704EOL    COH 1704   2.707   5.677   1.621  0.1013  0.3834  0.2126
 1705EOL    COH 1705   1.609   4.100   2.420  0.2467 -0.0317 -0.2288
 1706EOL    COH 1706   0.500   4.138   2.891  0.1216  0.2258  0.0067
 1707EOL    COH 1707   4.656   3.569   1.278 -0.0376  0.0903  0.0629
 1708EOL    COH 1708   4.706   5.178   5.645  0.2128  0.0070 -0.0266
 1709EOL    COH 1709   3.244   5.641   1.864 -0.1301 -0.0587  0.2343
 1710EOL    COH 1710   3.452   5.209   3.587 -0.3149  0.0431 -0.2702
 1711EOL    COH 1711   4.283   5.189   0.559  0.0902 -0.0728  0.6191
 1712EOL    COH 1712   1.254   4.769   2.832  0.0757 -0.0416 -0.2499
 1713EOL    COH 1713   0.397   4.744   2.099  0.2271  0.1179  0.0922
 1714EOL    COH 1714   5.108   6.056   4.218 -0.0666 -0.2138 -0.0748
 1715EOL    COH 1715   3.350   4.744   2.623  0.1422 -0.3770  0.2159
 1716EOL    COH 1716   5.538   0.106   5.920 -0.0633  0.2409  0.4918
 1717EOL    COH 1717   1.110   5.806   0.422 -0.0143 -0.2094  0.4235
 1718EOL    COH 1718   5.653   0.191   5.310  0.0263  0.0674 -0.0057
 1719EOL    COH 1719   2.423   3.862   1.797 -0.0555 -0.0283  0.0630
 1720EOL    COH 1720   0.933   0.443   3.158 -0.4804  0.1210  0.0145
 1721EOL    COH 1721   6.226   1.606   1.913  0.0559 -0.0741  0.4068
 1722EOL    COH 1722   0.037   3.062   3.599 -0.3413 -0.1354  0.1977
 1723EOL    COH 1723   2.135   5.990   2.885 -0.0553  0.1536 -0.0616
 1724EOL    COH 1724   1.026   1.473   4.557  0.1220  0.0393  0.0550
 1725EOL    COH 1725   4.981   4.809   0.213  0.0203  0.1486  0.0247
 1726EOL    COH 1726   1.525   1.486   4.737 -0.0213  0.1641  0.1424
 1727EOL    COH 1727   0.004   4.627   3.572 -0.1121  0.0561  0.2455
 1728EOL    COH 1728   4.412   3.423   3.529 -0.1384  0.0932 -0.1662
 1729EOL    COH 1729   6.326   2.895   5.286 -0.1089  0.0376  0.0216
 1730EOL    COH 1730   2.743   3.130   2.414 -0.2505  0.2829  0.2200
 1731EOL    COH 1731   1.086   4.770   5.456  0.1694 -0.0712  0.1588
 1732EOL    COH 1732   4.073   4.751   4.761  0.2900  0.0663 -0.1751
 1733EOL    COH 1733   0.993   5.488   6.077  0.0791  0.1980  0.2264
 1734EOL    COH 1734   3.949   3.719   3.414  0.0015 -0.0720  0.0360
 1735EOL    COH 1735   0.857   4.215   0.226  0.1136 -0.1729  0.1111
 1736EOL    COH 1736   1.562   6.261   2.870 -0.2514  0.2782  0.0509
 1737EOL    COH 1737   4.975   2.975   4.164 -0.1987  0.2010 -0.0794
 1738EOL    COH 1738   3.611   3.088   3.421 -0.0035 -0.1121 -0.0997
 1739EOL    COH 1739   5.053   4.362   1.444 -0.1838 -0.0691 -0.0419
 1740EOL    COH 1740   6.123   5.195   1.098  0.1352  0.2679 -0.0313
 1741EOL    COH 1741   2.528   0.143   5.433  0.0610  0.2894  0.1148
 1742EOL    COH 1742   0.421   6.281   3.676  0.0219 -0.1624  0.3252
 1743EOL    COH 1743   0.665   1.675   1.955  0.1636 -0.0726 -0.0920
 1744EOL    COH 1744   5.373   2.149   1.975  0.0654  0.1347 -0.1495
 1745EOL    COH 1745   1.439   1.589   2.338 -0.0908  0.0079 -0.1734
 1746EOL    COH 1746   1.802   6.128   2.418 -0.0213  0.1462  0.0900
 1747EOL    COH 1747   5.836   2.002   5.070 -0.0084 -0.0945  0.1323
 1748EOL    COH 1748   0.353   5.002   4.890  0.2790  0.0552 -0.3727
 1749EOL    COH 1749   5.338   1.642   4.476  0.1500 -0.0762  0.3120
 1750EOL    COH 1750   5.029   1.830   3.094 -0.1174  0.1284 -0.3634
 1751EOL    COH 1751   5.832   0.260   1.949  0.0324  0.2094 -0.1228
 1752EOL    COH 1752   3.938   6.157   3.507  0.0532 -0.0038 -0.0532
 1753EOL    COH 1753   0.219   2.727   3.909  0.0660  0.0105  0.1829
 1754EOL    COH 1754   1.452   0.595   0.546 -0.0157  0.1986 -0.0613
 1755EOL    COH 1755   0.572   5.407   3.856  0.0876 -0.1450  0.0748
 1756EOL    COH 1756   5.246   6.378   5.109  0.0027 -0.0393  0.0068
 1757EOL    COH 1757   2.727   1.080   5.866  0.4142  0.1046 -0.0580
 1758EOL    COH 1758   4.101   1.052   1.407  0.1526 -0.0632 -0.1341
 1759EOL    COH 1759   1.124   2.884   3.956 -0.0361 -0.0407  0.1481
 1760EOL    COH 1760   5.236   3.195   2.925  0.0044 -0.0386  0.1408
 1761EOL    COH 1761   1.525   1.171   6.353  0.0713  0.0325  0.0416
 1762EOL    COH 1762   0.161   6.000   0.631  0.3585 -0.0167  0.2132
 1763EOL    COH 1763   5.327   4.041   0.682  0.1824  0.1934 -0.1146
 1764EOL    COH 1764   0.638   0.914   0.730  0.2781 -0.2199 -0.0525
 1765EOL    COH 1765   6.025   2.873   2.756  0.2750  0.2223 -0.1920
 1766EOL    COH 1766   3.281   0.394   5.517 -0.1089  0.0424 -0.1674
 1767EOL    COH 1767   3.965   2.264   6.087 -0.1728 -0.0284 -0.2427
 1768EOL    COH 1768   2.854   2.490   2.520 -0.4913 -0.0664  0.0265
 1769EOL    COH 1769   1.781   5.254   3.189  0.2651 -0.2119 -0.2893
 1770EOL    COH 1770   5.750   6.241   6.427  0.0046  0.1410  0.1346
 1771EOL    COH 1771   5.579   0.450   1.544  0.1463  0.1469  0.0749
 1772EOL    COH 1772   1.603   0.101   2.194  0.1732  0.0195  0.0107
 1773EOL    COH 1773   3.178   0.907   4.773  0.2534 -0.2327 -0.2544
 1774EOL    COH 1774   1.978   2.702   1.859 -0.1140 -0.0253  0.1791
 1775EOL    COH 1775   6.269   4.563   4.591 -0.0147 -0.2300  0.2657
 1776EOL    COH 1776   0.631   0.125   1.523  0.5875  0.0798  0.1160
 1777EOL    COH 1777   1.156   3.911   5.115 -0.2939 -0.1412  0.0232
 1778EOL    COH 1778   3.748   2.563   3.426 -0.3283  0.1972  0.1100
 1779EOL    COH 1779   1.371   4.160   2.010  0.0553 -0.0112 -0.0982
 1780EOL    COH 1780   5.649   0.445   4.118 -0.1562 -0.1909  0.0665
 1781EOL    COH 1781   4.687   3.862   5.475  0.2454  0.2339  0.0217
 1782EOL    COH 1782   5.807   0.951   2.973  0.2269 -0.2233  0.0321
 1783EOL    COH 1783   2.562   5.919   4.663  0.1452 -0.1626  0.1104
 1784EOL    COH 1784   3.395   4.205   2.143 -0.1607 -0.1801  0.1668
 1785EOL    COH 1785   2.600   1.712   5.307  0.0461 -0.3119 -0.1616
 1786EOL    COH 1786   6.021   2.860   4.911  0.1014 -0.1637 -0.0814
 1787EOL    COH 1787   3.984   4.996   0.993  0.0468 -0.0703 -0.1095
 1788EOL    COH 1788   4.360   4.570   4.409  0.2584  0.1269  0.0967
 1789EOL    COH 1789   3.786   0.605   3.804 -0.1685  0.1692 -0.3960
 1790EOL    COH 1790   2.539   2.275   2.195  0.3351  0.1866  0.1429
 1791EOL    COH 1791   5.573   2.289   4.769  0.0582  0.2937 -0.0122
 1792EOL    COH 1792   2.750   4.958   6.068 -0.6074 -0.2512 -0.0491
 1793EOL    COH 1793   2.294   3.363   2.545  0.0079  0.2881 -0.0887
 1794EOL    COH 1794   6.086   2.343   4.665  0.1371 -0.0237  0.0195
 1795EOL    COH 1795   5.827   2.906   2.267 -0.1959 -0.0710 -0.1706
 1796EOL    COH 1796   4.963   4.873   5.090 -0.0917 -0.2790 -0.3510
 1797EOL    COH 1797   5.574   4.293   3.832 -0.1955  0.0228 -0.2271
 1798EOL    COH 1798   1.489   3.529   6.011 -0.1068 -0.2296  0.0006
 1799EOL    COH 1799   3.396   3.545   0.583  0.2220  0.3093 -0.0303
 1800EOL    COH 1800   2.616   4.175   0.611  0.0755 -0.1269 -0.1768
 1801EOL    COH 1801   2.323   4.600   0.602 -0.2903  0.0237 -0.3398
 1802EOL    COH 1802   4.477   2.216   6.155 -0.0091 -0.1357  0.0769
 1803EOL    COH 1803   0.139   3.197   1.072 -0.0919 -0.1959  0.0256
 1804EOL    COH 1804   2.723   2.780   6.225  0.0517 -0.5306  0.0144
 1805EOL    COH 1805   5.865   5.530   5.756  0.2444  0.0495  0.2285
 1806EOL    COH 1806   4.030   0.939   2.348 -0.3098  0.5581 -0.0571
 1807EOL    COH 1807   2.371   0.678   0.864  0.3316 -0.1092 -0.1500
 1808EOL    COH 1808   5.007   2.588   0.236  0.1267  0.1286 -0.1624
 1809EOL    COH 1809   5.824   1.413   1.640  0.0778  0.1117  0.1131
 1810EOL    COH 1810   1.940   1.191   1.320 -0.0046  0.1027  0.0374
 1811EOL    COH 1811   4.933   5.243   4.727  0.2385  0.1771  0.2117
 1812EOL    COH 1812   4.284   0.315   4.256  0.0795  0.0038 -0.2284
 1813EOL    COH 1813   4.375   2.884   1.882 -0.5681  0.0880 -0.0608
 1814EOL    COH 1814   4.018   4.341   3.726 -0.0241 -0.2952  0.0225
 1815EOL    COH 1815   0.030   4.999   4.456 -0.1488  0.1914 -0.1335
 1816EOL    COH 1816   3.073   0.360   2.477  0.0581  0.0637  0.2667
 1817EOL    COH 1817   1.942   4.488   2.187  0.1093 -0.0238 -0.3912
 1818EOL    COH 1818   1.048   5.584   2.283 -0.0882 -0.2773 -0.2952
 1819EOL    COH 1819   6.083   2.255   3.409  0.6317 -0.1388  0.1327
 1820EOL    COH 1820   2.089   4.001   4.784  0.3398  0.1171 -0.2389
 1821EOL    COH 1821   6.055   2.886   3.962 -0.0516 -0.0777  0.3820
 1822EOL    COH 1822   1.139   3.542   3.186 -0.0969  0.3696  0.1516
 1823EOL    COH 1823   1.902   5.941   1.904 -0.3062  0.2865 -0.0173
 1824EOL    COH 1824   6.224   5.294   6.131  0.0149  0.0883  0.1612
 1825EOL    COH 1825   1.332   3.949   6.421  0.1109  0.0706  0.1336
 1826EOL    COH 1826   5.047   2.463   3.879 -0.0571 -0.0492 -0.3494
 1827EOL    COH 1827   5.830   5.958   1.286 -0.0804  0.3154  0.0974
 1828EOL    COH 1828   3.307   3.874   5.294  0.1355  0.0810 -0.2984
 1829EOL    COH 1829   6.270   6.296   1.971 -0.2337  0.1806 -0.0082
 1830EOL    COH 1830   1.622   0.648   5.194  0.0324 -0.1392  0.1452
 1831EOL    COH 1831   2.680   5.414   4.743 -0.0555 -0.0164 -0.0127
 1832EOL    COH 1832   3.341   1.807   4.188 -0.0626  0.2296  0.0423
 1833EOL    COH 1833   4.009   6.324   5.670  0.2764  0.0977  0.2343
 1834EOL    COH 1834   3.857   4.376   1.038 -0.2836 -0.2445  0.0545
 1835EOL    COH 1835   3.829   0.018   0.576  0.3575  0.0844 -0.0501
 1836EOL    COH 1836   0.052   1.053   0.475  0.4308 -0.0204 -0.1902
 1837EOL    COH 1837   1.122   1.976   4.247 -0.1702  0.1109 -0.0086
 1838EOL    COH 1838   3.894   3.549   2.039 -0.0399 -0.0924 -0.2348
 1839EOL    COH 1839   6.036   3.790   3.051 -0.0774  0.2375 -0.2902
 1840EOL    COH 1840   2.979   3.518   5.220  0.1241 -0.0043  0.0239
 1841EOL    COH 1841   5.572   2.228   0.150  0.2192  0.2414 -0.0692
 1842EOL    COH 1842   6.144   4.695   2.844 -0.1811 -0.2449  0.1477
 1843EOL    COH 1843   4.303   2.370   3.686 -0.3776 -0.0333  0.4719
 1844EOL    COH 1844   0.157   4.622   2.571 -0.0322  0.0714  0.3244
 1845EOL    COH 1845   4.463   4.297   3.993  0.1830  0.0386  0.2909
 1846EOL    COH 1846   1.572   3.766   3.508 -0.2740 -0.2645  0.0669
 1847EOL    COH 1847   4.516   2.803   3.969 -0.1647 -0.1715 -0.0178
 1848EOL    COH 1848   5.579   0.532   2.716  0.0172  0.2811 -0.2361
 1849EOL    COH 1849   4.726   3.719   0.260 -0.1432  0.0595  0.0061
 1850EOL    COH 1850   0.584   3.164   0.696 -0.2676  0.1399  0.3997
 1851EOL    COH 1851   2.457   3.318   6.308 -0.1709  0.0914 -0.0387
 1852EOL    COH 1852   3.495   1.359   4.034 -0.1344  0.0185  0.1697
 1853EOL    COH 1853   0.522   5.772   6.063 -0.0020 -0.0383 -0.2046
 1854EOL    COH 1854   3.481   5.042   3.123 -0.1770  0.3045  0.0493
 1855EOL    COH 1855   2.031   6.300   3.849 -0.2852 -0.1797 -0.0515
 1856EOL    COH 1856   3.885   2.034   5.321 -0.3140 -0.0371  0.0644
 1857EOL    COH 1857   5.625   1.349   0.632 -0.0300 -0.0547  0.2878
 1858EOL    COH 1858   5.400   0.741   5.362 -0.1723 -0.2114 -0.0063
 1859EOL    COH 1859   2.170   1.295   3.703  0.0739 -0.2088  0.0624
 1860EOL    COH 1860   2.325   6.074   0.789  0.2278 -0.0798 -0.3318
 1861EOL    COH 1861   5.984   0.038   4.221  0.0995 -0.1995  0.0902
 1862EOL    COH 1862   3.683   2.169   0.216 -0.3191  0.2507 -0.1239
 1863EOL    COH 1863   5.443   3.629   2.050  0.3059 -0.0927  0.0943
 1864EOL    COH 1864   2.090   0.224   2.262 -0.1782 -0.3589 -0.1154
 1865EOL    COH 1865   3.121   2.474   1.514  0.1844 -0.2323 -0.0694
 1866EOL    COH 1866   2.130   0.861   4.977 -0.1629 -0.1774  0.1234
 1867EOL    COH 1867   1.688   4.987   1.542  0.0555 -0.0600 -0.0887
 1868EOL    COH 1868   2.713   3.158   0.784 -0.3593  0.1069 -0.1023
 1869EOL    COH 1869   1.660   0.766   0.120  0.1764 -0.0178 -0.3910
 1870EOL    COH 1870   3.460   3.460   3.797  0.2075  0.0107 -0.0524
 1871EOL    COH 1871   0.628   6.261   0.794 -0.3549 -0.1462  0.2505
 1872EOL    COH 1872   1.143   4.974   5.938 -0.0068  0.0547  0.0523
 1873EOL    COH 1873   2.665   1.265   2.730  0.2714 -0.1410 -0.1456
 1874EOL    COH 1874   2.072   0.246   3.510 -0.1821 -0.3687  0.0919
 1875EOL    COH 1875   4.661   0.181   3.340 -0.0854 -0.2289 -0.1830
 1876EOL    COH 1876   2.844   2.917   1.458 -0.2388  0.0511 -0.1981
 1877EOL    COH 1877   6.102   5.446   0.179  0.4063 -0.1153  0.0114
 1878EOL    COH 1878   3.590   3.943   3.729 -0.4036 -0.0374 -0.0836
 1879EOL    COH 1879   3.423   0.999   3.140 -0.2043 -0.1889  0.0831
 1880EOL    COH 1880   4.559   3.364   4.081  0.1028  0.0091 -0.0780
 1881EOL    COH 1881   3.683   4.515   5.612  0.0805  0.1685 -0.3688
 1882EOL    COH 1882   3.863   3.092   1.681 -0.2242  0.0744  0.0219
 1883EOL    COH 1883   0.828   3.925   1.858  0.0390 -0.2666 -0.0086
 1884EOL    COH 1884   2.651   1.438   1.501 -0.2401 -0.0584  0.1226
 1885EOL    COH 1885   3.860   2.975   1.154  0.2404  0.0041 -0.0557
 1886EOL    COH 1886   5.770   2.014   4.413 -0.3491  0.3601  0.0675
 1887EOL    COH 1887   6.245   4.600   0.492 -0.1160  0.3827  0.1409
 1888EOL    COH 1888   4.620   0.948   0.802  0.0087  0.0019 -0.1651
 1889EOL    COH 1889   2.352   5.144   5.828 -0.2802  0.0393  0.0645
 1890EOL    COH 1890   2.660   2.220   5.135 -0.2237  0.3027 -0.0297
 1891EOL    COH 1891   3.262   1.479   3.547  0.0879 -0.1043  0.3465
 1892EOL    COH 1892   0.828   0.346   1.094 -0.1533  0.0827 -0.0642
 1893EOL    COH 1893   5.585   6.378   4.462  0.5390  0.0666 -0.0205
 1894EOL    COH 1894   2.365   4.675   5.759 -0.2465  0.3606  0.0721
 1895EOL    COH 1895   2.986   0.507   4.511 -0.0968 -0.2245 -0.2871
 1896EOL    COH 1896   4.955   1.124   1.252  0.0287  0.2259 -0.1583
 1897EOL    COH 1897   5.376   1.000   4.871  0.1549 -0.3386 -0.0129
 1898EOL    COH 1898   2.681   5.495   5.629 -0.3407  0.2738  0.2339
 1899EOL    COH 1899   0.147   5.058   3.868  0.2055 -0.2767 -0.2871
 1900EOL    COH 1900   4.302   0.603   2.685  0.0804  0.2710  0.1100
 1901EOL    COH 1901   6.123   2.400   5.309  0.0541  0.0107 -0.0700
 1902EOL    COH 1902   2.094   4.730   1.781 -0.1438  0.0266  0.0358
 1903EOL    COH 1903   1.769   3.998   0.395 -0.1467 -0.2417  0.1195
 1904EOL    COH 1904   4.860   1.500   1.726  0.1260  0.3228  0.1586
 1905EOL    COH 1905   0.493   4.590   0.284 -0.2024 -0.3283 -0.0202
 1906EOL    COH 1906   5.169   0.310   2.396  0.4315  0.1813 -0.1678
 1907EOL    COH 1907   2.843   0.524   5.617 -0.0882 -0.1852  0.0798
 1908EOL    COH 1908   2.904   4.007   5.011  0.0136  0.0656 -0.0939
 1909EOL    COH 1909   4.657   0.123   1.297 -0.1376  0.1048  0.2274
 1910EOL    COH 1910   3.765   0.507   5.734 -0.3007 -0.2124 -0.1207
 1911EOL    COH 1911   1.054   0.252   2.592 -0.1795  0.0196  0.0059
 1912EOL    COH 1912   5.016   3.841   4.805 -0.2813 -0.1141  0.0544
 1913EOL    COH 1913   0.573   0.280   0.454 -0.0762 -0.2198  0.1106
 1914EOL    COH 1914   1.431   5.380   0.502  0.0924  0.2750 -0.1650
 1915EOL    COH 1915   4.385   3.878   6.373  0.2097 -0.1231 -0.3675
 1916EOL    COH 1916   5.042   1.552   0.202  0.0278 -0.0393  0.1003
 1917EOL    COH 1917   0.902   3.305   5.959  0.1476  0.0511  0.1383
 1918EOL    COH 1918   0.276   5.464   0.947  0.0994  0.0681 -0.4069
 1919EOL    COH 1919   4.695   2.193   5.696 -0.1149  0.2098 -0.0085
 1920EOL    COH 1920   4.325   0.831   4.485  0.1128 -0.0497 -0.1724
 1921EOL    COH 1921   3.134   1.690   5.252  0.0430 -0.0456 -0.0470
 1922EOL    COH 1922   3.883   3.270   6.320  0.3143 -0.1923 -0.1710
 1923EOL    COH 1923   3.375   0.632   6.170 -0.0850 -0.3452  0.2017
 1924EOL    COH 1924   1.269   5.338   1.749 -0.0328  0.0292  0.1914
 1925EOL    COH 1925   2.034   3.340   0.059 -0.0108 -0.1170 -0.1357
 1926EOL    COH 1926   0.342   1.212   5.287 -0.0553 -0.1706 -0.2859
 1927EOL    COH 1927   4.096   2.409   4.160  0.1416  0.1896  0.2802
 1928EOL    COH 1928   4.771   5.841   0.005  0.0522 -0.1206 -0.0114
 1929EOL    COH 1929   1.170   4.313   1.589  0.0540  0.0234 -0.2554
 1930EOL    COH 1930   6.233   3.319   5.096 -0.0752  0.0763  0.2443
 1931EOL    COH 1931   4.330   5.533   6.143  0.1782 -0.1076  0.0022
 1932EOL    COH 1932   1.413   3.605   2.740  0.1416  0.1806  0.1816
 1933EOL    COH 1933   4.342   3.220   5.038  0.0823 -0.0424  0.0233
 1934EOL    COH 1934   2.919   5.104   1.002 -0.2474 -0.2432  0.2792
 1935EOL    COH 1935   0.552   4.839   5.376 -0.3351  0.0591  0.1185
 1936EOL    COH 1936   5.340   5.673   1.291  0.0965 -0.0522  0.0018
 1937EOL    COH 1937   4.195   0.787   5.694 -0.3653  0.0372  0.0666
 1938EOL    COH 1938   2.063   4.739   1.246  0.1699  0.0843 -0.1763
 1939EOL    COH 1939   2.978   0.890   2.482  0.0403  0.0593 -0.0878
 1940EOL    COH 1940   4.866   5.839   0.902  0.0073  0.2176 -0.1323
 1941EOL    COH 1941   5.909   5.805   3.506 -0.0667  0.1256 -0.1643
 1942EOL    COH 1942   3.760   4.011   5.459 -0.0750 -0.1010  0.2810
 1943EOL    COH 1943   2.867   4.145   5.650 -0.1740 -0.2770  0.1357
 1944EOL    COH 1944   5.368   1.857   5.218 -0.1123 -0.1691 -0.2760
 1945EOL    COH 1945   1.698   2.470   0.450  0.2691  0.1009 -0.1608
 1946EOL    COH 1946   3.694   4.726   1.424 -0.0497 -0.0175  0.1101
 1947EOL    COH 1947   0.996   4.740   6.386  0.2963  0.2394 -0.0405
 1948EOL    COH 1948   0.294   5.099   1.820 -0.2395 -0.1572  0.0430
 1949EOL    COH 1949   4.671   1.444   3.055  0.4914 -0.1138  0.2321
 1950EOL    COH 1950   0.062   6.197   1.523 -0.2229  0.3074 -0.1008
 1951EOL    COH 1951   5.118   3.944   5.775  0.0757  0.0609  0.1623
 1952EOL    COH 1952   1.529   5.251   6.089 -0.1158  0.0591 -0.2773
 1953EOL    COH 1953   5.619   1.621   4.881 -0.1164  0.0840 -0.1507
 1954EOL    COH 1954   3.883   5.856   4.071  0.0780  0.1881 -0.0342
 1955EOL    COH 1955   2.281   5.222   1.662  0.2070 -0.0747 -0.2746
 1956EOL    COH 1956   0.892   2.721   6.069  0.0159 -0.1201  0.2966
 1957EOL    COH 1957   4.327   4.284   0.848  0.3111 -0.0503 -0.1506
 1958EOL    COH 1958   3.474   3.068   2.921 -0.1715 -0.1116  0.0308
 1959EOL    COH 1959   0.404   5.939   4.176 -0.0719  0.1021 -0.2502
 1960EOL    COH 1960   3.218   5.064   2.204 -0.3712 -0.1896 -0.0467
 1961EOL    COH 1961   1.164   0.780   2.809 -0.0321 -0.1199 -0.0503
 1962EOL    COH 1962   4.657   5.588   2.665  0.0330  0.0498  0.2227
 1963EOL    COH 1963   5.569   3.926   6.391 -0.0572  0.0102  0.0156
 1964EOL    COH 1964   5.615   4.830   4.244  0.1084 -0.1476 -0.0391
 1965EOL    COH 1965   1.920   1.466   2.062 -0.2445  0.1189 -0.1002
 1966EOL    COH 1966   4.782   5.505   0.512  0.0582  0.2035 -0.0965
 1967EOL    COH 1967   5.197   2.347   5.252  0.1744 -0.1072 -0.0598
 1968EOL    COH 1968   2.959   2.864   2.850  0.2450  0.0815 -0.0769
 1969EOL    COH 1969   1.027   0.759   3.836  0.2204  0.0732  0.1615
 1970EOL    COH 1970   1.944   0.967   2.273  0.0544 -0.0186  0.0878
 1971EOL    COH 1971   5.184   4.614   0.598  0.1682 -0.0559 -0.0654
 1972EOL    COH 1972   0.077   0.237   3.881  0.1606 -0.0318  0.0150
 1973EOL    COH 1973   0.681   5.310   3.108  0.2087 -0.0679  0.1983
 1974EOL    COH 1974   6.370   5.072   2.619  0.3707 -0.1448 -0.1370
 1975EOL    COH 1975   4.931   1.494   4.084  0.1216  0.0171 -0.0742
 1976EOL    COH 1976   0.981   3.860   2.813  0.3878 -0.0539 -0.4893
 1977EOL    COH 1977   2.220   5.073   3.310  0.1057 -0.3436 -0.1887
 1978EOL    COH 1978   0.929   5.613   3.559 -0.0760 -0.3052  0.0566
 1979EOL    COH 1979   5.682   3.484   4.168 -0.0160  0.2462 -0.2637
 1980EOL    COH 1980   0.477   4.084   4.416 -0.1269 -0.1725 -0.0030
 1981EOL    COH 1981   3.065   2.354   0.611 -0.3521  0.2103 -0.1425
 1982EOL    COH 1982   1.040   0.725   5.735  0.1888 -0.0756  0.2041
 1983EOL    COH 1983   3.956   1.867   5.753 -0.1461 -0.0218 -0.3194
 1984EOL    COH 1984   5.064   2.133   0.349 -0.2505  0.1066  0.0995
 1985EOL    COH 1985   4.573   0.153   2.805 -0.1848 -0.2763  0.0197
 1986EOL    COH 1986   1.310   5.086   3.208 -0.1639  0.0252 -0.2536
 1987EOL    COH 1987   6.057   3.792   4.962 -0.0379  0.0334 -0.0654
 1988EOL    COH 1988   4.063   4.160   4.236 -0.3882 -0.0711 -0.1875
 1989EOL    COH 1989   0.297   5.278   6.232  0.2988 -0.1279 -0.0539
 1990EOL    COH 1990   5.544   3.551   0.557  0.0494 -0.2576 -0.3486
 1991EOL    COH 1991   1.033   0.018   5.093  0.1656  0.2133  0.2602
 1992EOL    COH 1992   5.652   1.272   3.488 -0.0498 -0.2066  0.0618
 1993EOL    COH 1993   6.066   5.643   4.793 -0.0618 -0.0330  0.1287
 1994EOL    COH 1994   3.612   5.379   0.187  0.0552  0.0772  0.2057
 1995EOL    COH 1995   2.884   1.285   4.941  0.1850  0.0812 -0.1169
 1996EOL    COH 1996   2.156   5.545   4.966 -0.1222  0.2606  0.1862
 1997EOL    COH 1997   4.726   5.229   4.135 -0.0354  0.0368 -0.0528
 1998EOL    COH 1998   2.694   4.821   0.305 -0.0480  0.3507  0.1781
 1999EOL    COH 1999   2.063   0.080   5.877 -0.3541  0.2493  0.2483
 2000EOL    COH 2000   2.560   6.325   5.892  0.0152  0.0395 -0.0762
 2001EOL    COH 2001   0.790   1.702   5.181 -0.1712 -0.1432 -0.0034
 2002EOL    COH 2002   2.625   0.217   4.207  0.2053 -0.1892  0.1629
 2003EOL    COH 2003   5.382   3.197   2.409  0.2878  0.0155  0.0927
 2004EOL    COH 2004   3.195   5.681   2.346 -0.0318  0.1306 -0.1852
 2005EOL    COH 2005   5.835   4.694   3.772  0.0462 -0.0129  0.1025
 2006EOL    COH 2006   1.572   5.139   1.039 -0.3615 -0.0574  0.1172
 2007EOL    COH 2007   3.467   0.331   0.401  0.1283  0.1852  0.0289
 2008EOL    COH 2008   5.120   5.316   5.193  0.0324 -0.5202 -0.0346
 2009EOL    COH 2009   2.618   1.212   5.411  0.3485  0.0485  0.1215
 2010EOL    COH 2010   4.571   5.225   5.079 -0.0938  0.2867  0.0874
 2011EOL    COH 2011   0.298   4.469   5.717  0.0122 -0.0016  0.1155
 2012EOL    COH 2012   4.978   6.120   1.412  0.2442 -0.0643 -0.1906
 2013EOL    COH 2013   1.599   0.451   2.643  0.0798  0.1254 -0.1147
 2014EOL    COH 2014   0.120   3.739   3.104 -0.0018 -0.1817 -0.0447
 2015EOL    COH 2015   3.882   0.945   4.839  0.1826 -0.0340 -0.1151
 2016EOL    COH 2016   4.691   4.933   3.659  0.0051 -0.0285 -0.0276
 2017EOL    COH 2017   1.122   2.412   3.600 -0.1075  0.1255 -0.0666
 2018EOL    COH 2018   3.767   6.143   6.218  0.1739  0.0837  0.3582
 2019EOL    COH 2019   5.387   4.441   3.356  0.1616  0.1512  0.0832
 2020EOL    COH 2020   0.804   2.652   2.043  0.0243 -0.1846 -0.0939
 2021EOL    COH 2021   5.853   1.429   2.174  0.0160 -0.1143  0.2185
 2022EOL    COH 2022   6.203   2.678   1.962 -0.4270  0.0979  0.0437
 2023EOL    COH 2023   4.803   5.185   3.091 -0.2774 -0.2827  0.0106
 2024EOL    COH 2024   1.301   5.189   4.391  0.3634 -0.1777  0.2059
 2025EOL    COH 2025   0.036   5.843   3.868  0.0787  0.1195  0.0685
 2026EOL    COH 2026   5.627   2.069   3.820  0.1701 -0.1388 -0.3573
 2027EOL    COH 2027   0.446   2.942   1.881  0.0121  0.1205  0.0309
 2028EOL    COH 2028   6.229   5.903   0.141  0.0683  0.1417 -0.0826
 2029EOL    COH 2029   3.490   5.772   1.106 -0.4268  0.0359  0.1472
 2030EOL    COH 2030   0.646   3.663   2.287  0.1747  0.0076  0.1117
 2031EOL    COH 2031   1.857   3.481   2.353  0.2285  0.1003  0.0963
 2032EOL    COH 2032   0.949   0.863   1.160  0.0558 -0.1901 -0.0659
 2033EOL    COH 2033   6.031   4.381   0.885  0.1274 -0.0002  0.2925
 2034EOL    COH 2034   5.132   5.584   3.294  0.0163  0.1119 -0.1056
 2035EOL    COH 2035   1.151   6.246   2.192 -0.0954 -0.0035  0.0836
 2036EOL    COH 2036   5.689   0.693   4.555 -0.1450 -0.1546  0.0563
 2037EOL    COH 2037   3.097   1.896   6.021 -0.1402  0.0527  0.3342
 2038EOL    COH 2038   0.585   4.377   3.375 -0.0386  0.0045 -0.1343
 2039EOL    COH 2039   3.011   5.929   3.048  0.0143  0.1917 -0.3597
 2040EOL    COH 2040   5.818   3.117   1.148  0.2723  0.1971  0.3739
 2041EOL    COH 2041   1.359   2.809   3.454 -0.0826  0.0834 -0.2399
 2042EOL    COH 2042   4.184   2.939   2.678  0.1514 -0.0751  0.0582
 2043EOL    COH 2043   1.262   2.586   6.410 -0.0983 -0.1348 -0.0660
 2044EOL    COH 2044   3.751   3.712   5.051 -0.1340  0.0059  0.2259
 2045EOL    COH 2045   6.056   1.662   4.615  0.2287  0.2322  0.0648
 2046EOL    COH 2046   0.467   3.668   2.737  0.4220  0.0590 -0.0078
 2047EOL    COH 2047   4.943   4.392   3.728 -0.1707 -0.1165 -0.2039
 2048EOL    COH 2048   6.185   0.666   4.692  0.0485 -0.1029  0.1051
 2049EOL    COH 2049   4.324   0.483   0.981  0.1561  0.0025 -0.0178
 2050EOL    COH 2050   1.127   0.015   1.391 -0.1516  0.1994  0.2094
 2051EOL    COH 2051   6.286   2.004   5.533  0.2636 -0.0845 -0.2410
 2052EOL    COH 2052   2.765   1.321   0.995  0.2098  0.0445 -0.2647
 2053EOL    COH 2053   5.740   1.013   5.897 -0.0668 -0.3523  0.0728
 2054EOL    COH 2054   3.977   3.490   0.843  0.1141  0.0287  0.1118
 2055EOL    COH 2055   3.609   5.833   1.589 -0.1698  0.2874 -0.1752
 2056EOL    COH 2056   6.403   1.272   4.710 -0.1032  0.0906 -0.0494
 2057EOL    COH 2057   3.401   3.318   0.151 -0.2196  0.2147 -0.0406
 2058EOL    COH 2058   1.646   5.864   0.486 -0.1329  0.2922 -0.6315
 2059EOL    COH 2059   1.223   0.980   3.352  0.0808  0.0598 -0.0061
 2060EOL    COH 2060   5.612   1.829   2.386  0.1525 -0.3551 -0.0992
 2061EOL    COH 2061   4.681   3.882   0.811 -0.0779 -0.0221 -0.0576
 2062EOL    COH 2062   4.115   4.480   5.253  0.1498  0.2456 -0.5811
 2063EOL    COH 2063   5.641   2.087   3.277 -0.0151 -0.2324 -0.2092
 2064EOL    COH 2064   5.210   3.411   4.870 -0.1427  0.0625  0.2742
 2065EOL    COH 2065   4.333   4.164   2.349 -0.2866 -0.0470  0.0599
 2066EOL    COH 2066   5.909   2.463   6.217 -0.2080 -0.2523  0.0828
 2067EOL    COH 2067   4.112   5.000   5.182 -0.1702  0.1649  0.1064
 2068EOL    COH 2068   3.787   4.600   2.935 -0.1851 -0.5035 -0.0806
 2069EOL    COH 2069   4.550   1.380   5.204 -0.0455  0.2246  0.1202
 2070EOL    COH 2070   0.319   1.207   2.733 -0.3163 -0.0583 -0.1327
 2071EOL    COH 2071   4.659   3.118   5.848  0.0605 -0.1831  0.2271
 2072EOL    COH 2072   1.950   0.089   6.376  0.1862  0.3444  0.1322
 2073EOL    COH 2073   0.542   2.701   2.511  0.1311 -0.0500 -0.1967
 2074EOL    COH 2074   3.104   4.464   3.119  0.1334  0.1196  0.2443
 2075EOL    COH 2075   6.027   4.935   0.165  0.1247  0.1288  0.1054
 2076EOL    COH 2076   5.637   4.370   6.109 -0.0068  0.2127  0.0436
 2077EOL    COH 2077   1.215   0.423   3.542  0.0833 -0.0504  0.0526
 2078EOL    COH 2078   4.182   0.864   1.857 -0.2938  0.0715  0.2767
 2079EOL    COH 2079   5.974   2.657   5.765 -0.1890 -0.1595 -0.0413
 2080EOL    COH 2080   4.577   2.843   4.942  0.1341 -0.0933 -0.0050
 2081EOL    COH 2081   0.255   0.885   4.522  0.0234 -0.1738  0.1535
 2082EOL    COH 2082   2.907   1.501   0.470  0.0506 -0.0223 -0.0559
 2083EOL    COH 2083   1.846   1.988   0.068  0.0701  0.1820  0.1958
 2084EOL    COH 2084   5.440   1.821   0.427  0.2448  0.0988 -0.0413
 2085EOL    COH 2085   1.351   1.842   3.603  0.0789  0.1780 -0.0823
 2086EOL    COH 2086   0.159   1.688   5.129  0.4718  0.2329  0.0804
 2087EOL    COH 2087   5.809   0.912   1.856  0.3097 -0.2405 -0.0589
 2088EOL    COH 2088   4.222   2.300   5.630  0.4380 -0.2145 -0.1450
 2089EOL    COH 2089   4.865   1.087   2.703  0.0133 -0.1074 -0.1097
 2090EOL    COH 2090   2.695   2.011   0.357  0.1035  0.0743  0.1407
 2091EOL    COH 2091   1.371   5.616   5.780 -0.0864 -0.1362 -0.2833
 2092EOL    COH 2092   1.292   3.142   5.523  0.1853 -0.1171 -0.1847
 2093EOL    COH 2093   2.284   2.321   6.300  0.1284 -0.1810  0.1163
 2094EOL    COH 2094   4.320   1.145   2.700 -0.1641 -0.1827 -0.0440
 2095EOL    COH 2095   5.683   2.554   3.081 -0.0516 -0.0220  0.0223
 2096EOL    COH 2096   3.765   0.137   5.303 -0.1690 -0.0606 -0.1735
 2097EOL    COH 2097   1.706   2.305   0.959 -0.0204  0.1188 -0.4333
 2098EOL    COH 2098   5.112   0.501   5.053  0.2467 -0.0041  0.0131
 2099EOL    COH 2099   0.440   5.371   5.734  0.3811 -0.0658  0.0541
 2100EOL    COH 2100   4.192   2.325   3.201  0.1168 -0.2410 -0.2610
 2101EOL    COH 2101   5.316   5.376   0.005 -0.2809 -0.0794  0.0569
 2102EOL    COH 2102   0.935   0.577   1.542 -0.1922 -0.0663 -0.2196
 2103EOL    COH 2103   5.632   2.583   5.202 -0.4618 -0.2475 -0.1404
 2104EOL    COH 2104   3.062   3.720   4.161 -0.3357 -0.0364 -0.0196
 2105EOL    COH 2105   4.969   3.518   4.392  0.0734 -0.1281  0.0683
 2106EOL    COH 2106   3.470   4.026   3.261 -0.0091  0.0459  0.1308
 2107EOL    COH 2107   4.607   3.350   0.586 -0.2530 -0.2505  0.1016
 2108EOL    COH 2108   3.550   2.487   3.930  0.0392 -0.1125  0.0213
 2109EOL    COH 2109   2.102   1.147   0.717 -0.0400  0.0618 -0.1889
 2110EOL    COH 2110   4.931   2.499   2.568 -0.0603 -0.1212  0.0047
 2111EOL    COH 2111   4.677   6.305   4.183 -0.0593  0.2018  0.1290
 2112EOL    COH 2112   1.839   3.745   0.983  0.2458  0.0157 -0.3087
 2113EOL    COH 2113   0.487   5.965   5.035  0.1386  0.1390 -0.0712
 2114EOL    COH 2114   2.102   4.460   4.538  0.0957 -0.0036 -0.0561
 2115EOL    COH 2115   0.924   5.036   3.544 -0.2856 -0.0404 -0.1494
 2116EOL    COH 2116   2.489   6.214   5.076  0.0716  0.0091  0.2659
 2117EOL    COH 2117   1.288   2.818   4.517 -0.1210 -0.2786 -0.0568
 2118EOL    COH 2118   3.880   3.954   0.681 -0.0343 -0.0876 -0.0714
 2119EOL    COH 2119   3.212   2.876   2.374 -0.1320 -0.1638  0.1120
 2120EOL    COH 2120   6.131   5.808   2.259  0.2309  0.1357 -0.1349
 2121EOL    COH 2121   1.322   2.065   0.236 -0.1490  0.0038  0.2621
 2122EOL    COH 2122   2.610   3.555   2.203 -0.1198 -0.0308 -0.0449
 2123EOL    COH 2123   0.015   5.351   4.810 -0.3188 -0.0581 -0.1003
 2124EOL    COH 2124   3.615   2.304   2.423 -0.2035 -0.0838 -0.1470
 2125EOL    COH 2125   0.606   0.606   5.391 -0.2941 -0.2228 -0.2178
 2126EOL    COH 2126   2.761   4.966   5.122 -0.0556 -0.0650  0.0846
 2127EOL    COH 2127   5.979   0.009   0.704 -0.0245 -0.0671 -0.3345
 2128EOL    COH 2128   0.603   0.073   6.318 -0.0985 -0.1005  0.1343
 2129EOL    COH 2129   1.243   0.708   1.975 -0.1335  0.1315 -0.1784
 2130EOL    COH 2130   0.703   4.916   1.114 -0.0502  0.7397  0.2555
 2131EOL    COH 2131   1.641   1.411   3.684  0.0799 -0.3496  0.3273
 2132EOL    COH 2132   3.100   3.018   5.684  0.0882  0.0141  0.3088
 2133EOL    COH 2133   2.719   2.989   4.437  0.4479 -0.0476  0.0822
 2134EOL    COH 2134   4.449   5.586   0.832  0.0498 -0.0097 -0.1314
 2135EOL    COH 2135   5.881   4.929   1.975  0.0177 -0.1813  0.1308
 2136EOL    COH 2136   5.012   4.303   2.739  0.0866 -0.0692 -0.2639
 2137EOL    COH 2137   4.999   1.004   5.234  0.2925  0.0120 -0.2197
 2138EOL    COH 2138   2.469   2.594   2.958 -0.0730 -0.0541  0.2143
 2139EOL    COH 2139   3.680   3.125   0.594 -0.0479  0.1175 -0.2690
 2140EOL    COH 2140   1.067   2.636   5.472 -0.1412  0.0813 -0.2835
 2141EOL    COH 2141   4.875   2.839   2.018  0.0429 -0.0518 -0.1295
 2142EOL    COH 2142   2.448   0.917   2.452 -0.2554  0.0806 -0.0303
 2143EOL    COH 2143   3.936   5.495   3.657  0.0985 -0.3299 -0.0045
 2144EOL    COH 2144   4.646   3.576   5.040  0.0040  0.2794 -0.1126
 2145EOL    COH 2145   1.838   2.492   3.552  0.0443  0.0198  0.0380
 2146EOL    COH 2146   2.398   4.655   2.444 -0.1362 -0.0947  0.2165
 2147EOL    COH 2147   2.758   5.059   2.414 -0.0999  0.1174 -0.3282
 2148EOL    COH 2148   2.955   0.249   0.261  0.2146  0.1580  0.1641
 2149EOL    COH 2149   1.180   3.715   4.339  0.1762 -0.0683 -0.1862
 2150EOL    COH 2150   0.298   4.079   0.480  0.0941 -0.0488  0.0157
 2151EOL    COH 2151   4.557   6.002   0.487  0.0508 -0.3225  0.5778
 2152EOL    COH 2152   0.085   0.215   3.395  0.0316  0.5537 -0.1717
 2153EOL    COH 2153   6.087   1.859   2.383  0.1711 -0.1847  0.3563
 2154EOL    COH 2154   1.837   3.519   0.524 -0.1785 -0.0968  0.0314
 2155EOL    COH 2155   1.789   0.753   4.288 -0.1956 -0.2352  0.3125
 2156EOL    COH 2156   2.516   0.977   3.518  0.1704 -0.1993 -0.2810
 2157EOL    COH 2157   4.353   5.047   6.020 -0.0294 -0.2471  0.2106
 2158EOL    COH 2158   4.377   6.170   3.158  0.1677  0.1196  0.1046
 2159EOL    COH 2159   4.540   0.979   2.191  0.0488 -0.0934  0.3104
 2160EOL    COH 2160   2.559   4.751   3.148  0.0043 -0.1017  0.2474
 2161EOL    COH 2161   0.073   2.942   2.434  0.0108  0.2628 -0.0548
 2162EOL    COH 2162   0.929   3.397   2.656  0.0588 -0.0501 -0.1755
 2163EOL    COH 2163   1.622   0.610   3.361 -0.0984 -0.3107  0.3225
 2164EOL    COH 2164   0.043   0.096   0.655 -0.2147 -0.1502 -0.0587
 2165EOL    COH 2165   1.225   5.038   2.242  0.1293  0.1827 -0.2045
 2166EOL    COH 2166   2.891   3.146   1.929  0.2239 -0.1249  0.1448
 2167EOL    COH 2167   6.117   3.194   5.610 -0.0562  0.0059 -0.0647
 2168EOL    COH 2168   3.102   3.374   2.937 -0.2356  0.2414  0.1724
 2169EOL    COH 2169   4.168   2.534   0.037  0.2539 -0.2073  0.0887
 2170EOL    COH 2170   3.607   1.737   1.431  0.5079 -0.3016  0.4216
 2171EOL    COH 2171   1.372   1.581   4.077 -0.1113 -0.0930  0.0927
 2172EOL    COH 2172   3.630   5.222   5.016  0.3744  0.3708  0.0299
 2173EOL    COH 2173   0.123   5.120   5.350 -0.0942 -0.1580 -0.2103
 2174EOL    COH 2174   6.315   5.781   5.146  0.0078 -0.0253 -0.1266
 2175EOL    COH 2175   1.394   5.574   3.360  0.2765 -0.1008  0.1437
 2176EOL    COH 2176   0.154   2.377   3.560  0.2495 -0.1658  0.2520
 2177EOL    COH 2177   0.562   3.237   0.023 -0.1653 -0.0850 -0.2511
 2178EOL    COH 2178   0.682   2.704   3.779  0.1458 -0.2156  0.1654
 2179EOL    COH 2179   4.810   0.848   4.280 -0.1813 -0.2906 -0.0895
 2180EOL    COH 2180   2.008   5.247   1.203 -0.1885 -0.6029  0.0548
 2181EOL    COH 2181   3.313   0.338   1.347 -0.0608  0.0086 -0.0023
 2182EOL    COH 2182   4.398   1.011   3.201  0.1584  0.2329 -0.1761
 2183EOL    COH 2183   1.348   3.270   2.373  0.1122 -0.0655 -0.1692
 2184EOL    COH 2184   1.616   4.793   3.741  0.4230 -0.0603  0.1876
 2185EOL    COH 2185   0.553   2.978   5.788 -0.0129  0.3859  0.1929
 2186EOL    COH 2186   5.821   6.090   2.571 -0.1378  0.0392  0.1942
 2187EOL    COH 2187   2.382   2.130   1.676  0.0414  0.0361  0.0476
 2188EOL    COH 2188   2.346   1.368   5.014 -0.2912  0.1040  0.1172
 2189EOL    COH 2189   4.520   5.516   4.645  0.0904 -0.0504 -0.1090
 2190EOL    COH 2190   2.425   3.174   4.029 -0.1670 -0.2683 -0.2693
 2191EOL    COH 2191   3.037   0.411   5.028  0.0010  0.1768 -0.1472
 2192EOL    COH 2192   2.429   3.748   5.353  0.2504 -0.3010 -0.3125
 2193EOL    COH 2193   3.304   3.932   5.829 -0.1422  0.0951 -0.0049
 2194EOL    COH 2194   4.714   0.016   4.879  0.1296  0.1452  0.1003
 2195EOL    COH 2195   3.153   6.010   1.461 -0.1118 -0.0396 -0.1017
 2196EOL    COH 2196   4.077   5.757   3.185 -0.1890 -0.2224  0.3097
 2197EOL    COH 2197   0.186   1.507   3.169 -0.2632  0.0318  0.1061
   6.42836   6.42836   6.42836
