cit-Octadecene box
 4500
    1ODE      C    1   1.060   5.356   5.557  0.1873  0.0393 -0.2020
    1ODE      C    2   0.870   5.057   5.264 -0.0821 -0.0577  0.0024
    1ODE      D    3   0.568   4.773   4.910 -0.2686 -0.1124 -0.2023
    1ODE      C    4   0.403   4.408   4.979 -0.1162  0.4041 -0.2849
    1ODE      C    5   0.542   3.881   4.716  0.1283  0.0933  0.0374
    2ODE      C    6   7.421   6.089   3.249 -0.0578 -0.1145 -0.4521
    2ODE      C    7   7.357   6.437   3.446  0.1077  0.1925 -0.0556
    2ODE      D    8   7.332   6.686   3.750  0.0597  0.1158  0.1353
    2ODE      C    9   7.219   7.170   3.821 -0.2517 -0.0702  0.0073
    2ODE      C   10   7.492   7.456   3.991 -0.1160 -0.1958  0.2349
    3ODE      C   11   6.958   6.551   0.144 -0.0808  0.3921 -0.0541
    3ODE      C   12   6.756   6.772   0.337 -0.1822  0.1260 -0.2261
    3ODE      D   13   6.594   6.915  -0.030 -0.0911 -0.4820  0.1543
    3ODE      C   14   6.549   7.055  -0.527  0.0736 -0.3449 -0.0956
    3ODE      C   15   6.668   7.202  -0.895 -0.0035  0.0624 -0.1102
    4ODE      C   16   2.889   5.834   0.202 -0.1588 -0.1375 -0.3723
    4ODE      C   17   3.020   6.150   0.390 -0.0201 -0.2524  0.0306
    4ODE      D   18   3.159   6.292   0.700 -0.3540  0.0823 -0.2632
    4ODE      C   19   2.823   6.273   1.111 -0.2497  0.1875 -0.0184
    4ODE      C   20   2.942   6.094   1.506  0.0172 -0.0254  0.1572
    5ODE      C   21   5.506   4.506   0.623  0.2281 -0.0250  0.1454
    5ODE      C   22   5.186   4.266   0.452  0.1475  0.0486  0.0796
    5ODE      D   23   4.832   4.142   0.162  0.0599 -0.0201  0.1004
    5ODE      C   24   4.737   4.263  -0.389 -0.1132 -0.2043 -0.0110
    5ODE      C   25   4.715   4.576  -0.707  0.3786 -0.2312  0.0268
    6ODE      C   26   3.877   6.581   4.719 -0.0644  0.1959 -0.0140
    6ODE      C   27   4.208   6.672   4.486  0.0341 -0.0718 -0.3885
    6ODE      D   28   4.635   6.851   4.651  0.0996 -0.1167 -0.2053
    6ODE      C   29   4.758   7.237   4.583  0.0284 -0.1435 -0.2720
    6ODE      C   30   5.067   7.407   4.327 -0.0687 -0.0644 -0.1079
    7ODE      C   31   0.966   6.866   0.485 -0.3324 -0.1342 -0.2906
    7ODE      C   32   1.255   7.264   0.679  0.1203 -0.1833  0.1668
    7ODE      D   33   1.558   7.340   1.028  0.1315  0.0884  0.1663
    7ODE      C   34   1.808   7.064   1.042  0.1116  0.1901  0.1046
    7ODE      C   35   2.234   7.057   0.940 -0.0539 -0.2199  0.0203
    8ODE      C   36   5.193   4.557   3.690 -0.0491 -0.0388  0.0796
    8ODE      C   37   4.815   4.224   3.794 -0.1088 -0.0632  0.3283
    8ODE      D   38   4.768   3.855   3.955  0.2016 -0.1582  0.0094
    8ODE      C   39   4.663   3.611   4.333  0.1000  0.1483  0.2134
    8ODE      C   40   4.823   3.514   4.745 -0.0358 -0.3325  0.4837
    9ODE      C   41   2.882   1.707   6.774  0.3031  0.2649 -0.0794
    9ODE      C   42   2.553   1.471   6.557  0.4682  0.0185 -0.0863
    9ODE      D   43   2.547   1.017   6.455  0.0532 -0.1100 -0.1102
    9ODE      C   44   2.343   0.646   6.675  0.3894  0.0378  0.0769
    9ODE      C   45   2.237   0.243   6.625  0.1263 -0.3789 -0.3097
   10ODE      C   46   6.080   0.171   0.869  0.0964 -0.1019 -0.1476
   10ODE      C   47   5.781   0.171   0.573  0.0287 -0.0393 -0.2824
   10ODE      D   48   5.511   0.530   0.554  0.1161  0.2144 -0.2035
   10ODE      C   49   5.169   0.692   0.375 -0.2255  0.0243  0.1630
   10ODE      C   50   5.218   0.978   0.054 -0.3132 -0.0979  0.1214
   11ODE      C   51   4.696   1.572   3.117  0.0520 -0.0287 -0.1567
   11ODE      C   52   4.410   1.921   3.129  0.0589  0.4062 -0.1046
   11ODE      D   53   4.264   2.201   2.809  0.1969  0.1184  0.1650
   11ODE      C   54   4.324   2.316   2.372 -0.3918 -0.0947 -0.4497
   11ODE      C   55   4.413   2.266   2.037  0.2807 -0.0268  0.0238
   12ODE      C   56   1.912   5.017   0.615 -0.4416 -0.1494  0.0970
   12ODE      C   57   2.163   4.609   0.537 -0.0743 -0.2509  0.1589
   12ODE      D   58   2.357   4.491   0.260  0.0221 -0.1491 -0.4970
   12ODE      C   59   2.393   4.593  -0.181 -0.0007 -0.0276  0.0432
   12ODE      C   60   2.661   5.009  -0.479 -0.0603  0.0437  0.0498
   13ODE      C   61   1.407   2.421   5.459 -0.1064  0.0113  0.4168
   13ODE      C   62   1.439   2.090   5.092 -0.2387  0.1722  0.0968
   13ODE      D   63   1.272   2.129   4.719 -0.0266  0.2540 -0.3024
   13ODE      C   64   0.904   2.283   4.774  0.3347 -0.0566  0.1463
   13ODE      C   65   0.462   2.068   4.892 -0.1564 -0.0141  0.1189
   14ODE      C   66   0.196   1.589   6.358 -0.0522 -0.1456  0.1671
   14ODE      C   67   0.159   1.117   6.657 -0.4221  0.0660  0.0187
   14ODE      D   68   0.268   0.776   6.873 -0.2124  0.3965 -0.1194
   14ODE      C   69   0.335   0.913   7.346 -0.2100  0.0715 -0.2182
   14ODE      C   70   0.187   0.823   7.676  0.0099  0.0368  0.0333
   15ODE      C   71   2.959   3.109   6.131 -0.1529 -0.3140  0.0894
   15ODE      C   72   3.190   3.379   6.375 -0.0801 -0.0984 -0.0799
   15ODE      D   73   3.271   3.810   6.520 -0.0933 -0.0348  0.0157
   15ODE      C   74   3.127   4.161   6.338  0.0480  0.1168 -0.0873
   15ODE      C   75   3.411   4.491   6.112 -0.2554  0.2501 -0.3178
   16ODE      C   76   2.929   1.023   5.092 -0.0413  0.0358  0.1635
   16ODE      C   77   3.288   0.769   4.921  0.3303  0.0116  0.2491
   16ODE      D   78   3.687   0.763   4.883 -0.0658 -0.1701 -0.1613
   16ODE      C   79   3.899   0.709   4.533  0.1734 -0.0612 -0.0611
   16ODE      C   80   3.785   0.409   4.284  0.1355 -0.1397  0.2016
   17ODE      C   81   2.863   5.030   4.073  0.1150  0.0314  0.0573
   17ODE      C   82   2.855   5.336   3.731 -0.2076  0.0772 -0.0212
   17ODE      D   83   2.868   5.792   3.527 -0.0935 -0.2163 -0.0610
   17ODE      C   84   3.127   6.012   3.175  0.0466 -0.2791  0.0155
   17ODE      C   85   3.435   6.320   2.911 -0.0351  0.0819 -0.3362
   18ODE      C   86   3.049   2.598   6.041  0.1177 -0.2228  0.2087
   18ODE      C   87   2.733   2.671   6.279  0.0249 -0.0099  0.1759
   18ODE      D   88   2.521   2.429   6.505 -0.1068 -0.0925  0.0009
   18ODE      C   89   2.070   2.306   6.363  0.0750 -0.4627 -0.0397
   18ODE      C   90   1.925   2.052   5.991  0.2319  0.0602  0.2826
   19ODE      C   91   0.380   3.556   2.093  0.1974  0.1644 -0.5664
   19ODE      C   92   0.173   3.283   1.855 -0.2532 -0.1604  0.0257
   19ODE      D   93  -0.171   2.935   1.935  0.1776  0.0815  0.2525
   19ODE      C   94  -0.488   2.992   1.715 -0.1425 -0.0971 -0.0669
   19ODE      C   95  -0.566   2.813   1.388 -0.2480  0.0843  0.1766
   20ODE      C   96   2.282   1.934   2.536 -0.2009  0.0216  0.0799
   20ODE      C   97   2.522   2.297   2.703 -0.3337 -0.1921 -0.4721
   20ODE      D   98   2.684   2.664   2.831 -0.1456  0.1410  0.2990
   20ODE      C   99   3.096   2.488   2.775 -0.1665 -0.0564 -0.1254
   20ODE      C  100   3.337   2.280   2.574  0.2524  0.0847  0.0367
   21ODE      C  101   8.571   4.085   2.744  0.0225 -0.1230 -0.0919
   21ODE      C  102   8.404   4.112   2.383  0.2190 -0.3749 -0.1200
   21ODE      D  103   8.019   3.975   2.064  0.0634  0.0786 -0.0799
   21ODE      C  104   8.110   3.815   1.667 -0.1366  0.1061 -0.1835
   21ODE      C  105   8.436   3.798   1.348 -0.3580 -0.0251 -0.0720
   22ODE      C  106   0.105   0.956   3.144 -0.0494  0.4186 -0.0715
   22ODE      C  107   0.552   0.803   3.046  0.1151  0.0086  0.0528
   22ODE      D  108   0.872   0.513   2.915  0.2287  0.1491  0.1199
   22ODE      C  109   0.986   0.353   2.567 -0.1623 -0.1784 -0.1654
   22ODE      C  110   0.780   0.096   2.225 -0.1792 -0.2880  0.2405
   23ODE      C  111   0.790   4.466   1.043  0.1958  0.0721 -0.2552
   23ODE      C  112   0.977   4.430   0.688 -0.0350 -0.0523 -0.1689
   23ODE      D  113   1.396   4.394   0.587  0.2445  0.0563 -0.1414
   23ODE      C  114   1.463   4.006   0.260 -0.3351  0.0753 -0.1674
   23ODE      C  115   1.550   3.541   0.115 -0.1845 -0.1127  0.0778
   24ODE      C  116   5.861   3.610   0.558  0.1449  0.3105  0.1502
   24ODE      C  117   5.958   3.467   0.956 -0.0469 -0.1696 -0.1395
   24ODE      D  118   5.970   3.214   1.312  0.1355  0.0591 -0.1390
   24ODE      C  119   6.159   2.819   1.149 -0.0499 -0.2622 -0.2753
   24ODE      C  120   6.054   2.540   0.814  0.1640  0.3671  0.1231
   25ODE      C  121   0.318   0.282   6.034 -0.1856  0.1617 -0.4468
   25ODE      C  122   0.102   0.608   5.813  0.0467 -0.1954 -0.3225
   25ODE      D  123   0.194   1.068   5.639  0.0067  0.3170 -0.0623
   25ODE      C  124  -0.009   1.236   5.304 -0.1877  0.2360  0.0705
   25ODE      C  125  -0.483   1.225   5.143 -0.1098 -0.2539  0.0625
   26ODE      C  126   9.218   2.452   2.220  0.0614  0.0189  0.0009
   26ODE      C  127   9.502   2.241   2.024 -0.2043  0.1951  0.1104
   26ODE      D  128   9.845   2.125   2.338  0.2808  0.1419 -0.0716
   26ODE      C  129  10.034   1.616   2.418 -0.0275  0.0733 -0.1052
   26ODE      C  130  10.400   1.439   2.567 -0.1488  0.1033 -0.3233
   27ODE      C  131   7.984   5.794   2.104 -0.3214 -0.3973 -0.2480
   27ODE      C  132   7.664   6.086   1.851 -0.2111 -0.1728  0.1379
   27ODE      D  133   7.377   6.325   1.964 -0.1001  0.1923 -0.3291
   27ODE      C  134   6.998   6.391   1.783  0.4303  0.1134 -0.0885
   27ODE      C  135   6.657   6.695   1.819 -0.0337 -0.5042 -0.3863
   28ODE      C  136   0.113   6.782   3.172 -0.1540  0.1576 -0.0107
   28ODE      C  137   0.120   6.886   2.734  0.0528  0.2307 -0.1860
   28ODE      D  138  -0.137   6.924   2.320  0.1094  0.0517  0.1222
   28ODE      C  139  -0.207   7.391   2.141  0.0233 -0.1577 -0.4614
   28ODE      C  140  -0.146   7.606   1.875 -0.0175 -0.0965 -0.0149
   29ODE      C  141   8.954   0.810   3.289  0.1000  0.1806 -0.1548
   29ODE      C  142   8.781   0.657   2.905 -0.3460  0.0855 -0.0154
   29ODE      D  143   8.324   0.480   2.797  0.1217 -0.0333  0.0505
   29ODE      C  144   8.106   0.325   2.459  0.4535 -0.2255  0.0073
   29ODE      C  145   8.007   0.484   2.046 -0.0436  0.1768 -0.1079
   30ODE      C  146   9.251   5.590   3.580  0.2544 -0.0925 -0.3650
   30ODE      C  147   9.200   6.023   3.384  0.0593  0.2363  0.0047
   30ODE      D  148   9.244   6.329   2.995  0.1859 -0.0626 -0.1424
   30ODE      C  149   9.546   6.370   2.587  0.0082  0.0238 -0.1973
   30ODE      C  150   9.634   6.480   2.198  0.0285  0.1797 -0.2082
   31ODE      C  151   8.771   4.751   5.926  0.0601 -0.1874 -0.1170
   31ODE      C  152   8.768   4.326   5.861 -0.1676 -0.1564  0.1032
   31ODE      D  153   8.650   3.986   5.790  0.3769 -0.1381  0.0502
   31ODE      C  154   8.274   3.940   5.559 -0.2111  0.3025  0.1247
   31ODE      C  155   7.967   3.883   5.322  0.0287 -0.0528  0.0048
   32ODE      C  156   8.028   1.588   6.783 -0.1212 -0.0294 -0.3078
   32ODE      C  157   7.883   1.195   6.554 -0.2066  0.0545  0.1760
   32ODE      D  158   7.551   1.079   6.333  0.2426 -0.0305 -0.2808
   32ODE      C  159   7.136   0.808   6.426  0.1012  0.0842 -0.2388
   32ODE      C  160   6.823   0.788   6.606  0.1134 -0.0167  0.2423
   33ODE      C  161   7.641   5.444   4.140 -0.0039 -0.0616 -0.0617
   33ODE      C  162   7.643   5.802   3.911 -0.2237 -0.0455  0.2314
   33ODE      D  163   7.647   5.712   3.486  0.0825  0.0874 -0.1493
   33ODE      C  164   7.886   5.333   3.472 -0.0932 -0.5700 -0.1786
   33ODE      C  165   8.249   5.262   3.377 -0.0495  0.1801  0.1405
   34ODE      C  166   3.263   1.017   3.391 -0.0440 -0.1257  0.2376
   34ODE      C  167   3.255   0.611   3.556 -0.2821 -0.2482 -0.0719
   34ODE      D  168   3.485   0.432   3.787  0.0621 -0.2331 -0.1694
   34ODE      C  169   3.922   0.409   3.843  0.0139  0.0582  0.1386
   34ODE      C  170   4.265   0.514   3.627 -0.2163  0.1002  0.2877
   35ODE      C  171   1.859   5.994   0.120 -0.1872  0.0671 -0.1758
   35ODE      C  172   1.790   5.624   0.005 -0.0454 -0.2271 -0.1448
   35ODE      D  173   1.925   5.325  -0.210 -0.1316  0.0990 -0.1998
   35ODE      C  174   1.786   5.437  -0.614 -0.1110  0.1631  0.0477
   35ODE      C  175   1.470   5.600  -0.877 -0.1678 -0.1256  0.2131
   36ODE      C  176   0.016   2.775   4.603 -0.0692 -0.1105  0.1897
   36ODE      C  177   0.350   2.925   4.851  0.1165  0.1325 -0.3118
   36ODE      D  178   0.555   2.540   5.083 -0.0241  0.0054  0.0519
   36ODE      C  179   0.534   2.610   5.501 -0.2225 -0.1726 -0.1432
   36ODE      C  180   0.676   2.770   5.977  0.3179 -0.0842 -0.1686
   37ODE      C  181   1.482   1.588   1.500 -0.0588 -0.2259  0.1299
   37ODE      C  182   1.219   1.416   1.819  0.4203  0.1353  0.2183
   37ODE      D  183   0.801   1.399   2.024 -0.0918 -0.1914  0.2655
   37ODE      C  184   0.545   1.181   2.292 -0.0344  0.1473  0.0190
   37ODE      C  185   0.322   0.778   2.566 -0.0545  0.1719  0.1924
   38ODE      C  186   3.795   5.319   3.819  0.0075 -0.0619 -0.1866
   38ODE      C  187   3.575   5.585   4.063  0.1362  0.2577  0.2237
   38ODE      D  188   3.187   5.597   3.976  0.0865  0.0658  0.1099
   38ODE      C  189   2.916   5.898   4.070 -0.2188  0.1090 -0.0249
   38ODE      C  190   2.747   6.270   3.908 -0.2986  0.1411  0.2709
   39ODE      C  191   0.414   6.638   1.127 -0.1508  0.0871  0.0535
   39ODE      C  192   0.638   6.900   1.000  0.2805 -0.0107  0.1442
   39ODE      D  193   0.780   7.217   0.829  0.1822 -0.3231 -0.0022
   39ODE      C  194   0.679   7.623   0.917  0.2087  0.1944 -0.0490
   39ODE      C  195   0.742   7.864   1.352  0.0292 -0.3380  0.0866
   40ODE      C  196   7.684   1.475   2.228 -0.0975 -0.1706 -0.2891
   40ODE      C  197   7.583   1.207   2.586 -0.0939 -0.0190 -0.1492
   40ODE      D  198   7.347   1.064   2.852 -0.1558 -0.2352  0.1606
   40ODE      C  199   6.904   1.213   2.742 -0.2145 -0.1279 -0.3109
   40ODE      C  200   6.446   1.402   2.808  0.0847 -0.0975 -0.0491
   41ODE      C  201   1.460   2.980   2.874 -0.1854 -0.0134 -0.1383
   41ODE      C  202   1.415   3.272   2.441  0.3670 -0.1320  0.0713
   41ODE      D  203   1.439   3.668   2.294  0.0138 -0.1854 -0.0783
   41ODE      C  204   1.885   3.679   2.283 -0.0055  0.1658 -0.0347
   41ODE      C  205   2.260   3.771   2.062 -0.2827  0.3535 -0.1415
   42ODE      C  206   0.091   2.178   3.218  0.1930  0.0822  0.1403
   42ODE      C  207  -0.142   2.261   3.655 -0.1526  0.0815  0.0865
   42ODE      D  208  -0.168   2.304   4.126  0.0792  0.0261  0.2404
   42ODE      C  209   0.200   2.630   4.129  0.2907  0.1496  0.0511
   42ODE      C  210   0.475   2.906   3.855 -0.1526 -0.1817 -0.1415
   43ODE      C  211   3.590   5.848   2.841 -0.0327 -0.4715 -0.2131
   43ODE      C  212   3.437   5.578   3.118  0.0115 -0.1861  0.1297
   43ODE      D  213   2.948   5.389   3.192  0.2389 -0.0735 -0.0213
   43ODE      C  214   2.973   4.989   3.343 -0.1047  0.1041 -0.0916
   43ODE      C  215   3.139   4.750   3.714  0.2404  0.1465  0.3453
   44ODE      C  216   7.424   2.331   2.062 -0.0914  0.3622  0.0763
   44ODE      C  217   7.657   2.606   1.847  0.0279 -0.1793 -0.0020
   44ODE      D  218   7.968   2.901   1.890  0.0424 -0.1115 -0.3083
   44ODE      C  219   8.349   2.796   1.684 -0.6083  0.1525 -0.1266
   44ODE      C  220   8.567   2.391   1.546  0.1564  0.1657  0.0501
   45ODE      C  221   6.911   7.201   5.304 -0.0639 -0.0110 -0.3513
   45ODE      C  222   7.017   6.673   5.215  0.1616 -0.0172 -0.1135
   45ODE      D  223   7.332   6.254   5.430 -0.2101  0.3585  0.0370
   45ODE      C  224   7.570   5.994   5.384  0.1726 -0.0759 -0.1841
   45ODE      C  225   7.935   5.961   5.276 -0.1514 -0.1432 -0.2760
   46ODE      C  226   6.992   0.530   0.165  0.1661 -0.1142  0.0159
   46ODE      C  227   7.176   0.890   0.124 -0.1376  0.1238 -0.2398
   46ODE      D  228   7.433   1.214   0.358  0.3843  0.0644  0.0172
   46ODE      C  229   7.411   1.588   0.367 -0.0341 -0.1854  0.0944
   46ODE      C  230   7.262   1.935   0.416 -0.3277 -0.1597 -0.0470
   47ODE      C  231   6.449   2.736   3.687  0.2481 -0.0541  0.2763
   47ODE      C  232   6.271   2.921   3.894  0.1605  0.2120  0.1573
   47ODE      D  233   6.556   3.199   4.034 -0.1390 -0.2224 -0.1271
   47ODE      C  234   6.618   3.500   3.687  0.0912 -0.0124  0.1155
   47ODE      C  235   6.453   3.489   3.191  0.2115  0.1498 -0.2524
   48ODE      C  236   4.355   1.807   6.130  0.1592  0.2913 -0.2135
   48ODE      C  237   4.685   1.841   5.829  0.0275 -0.5232 -0.4601
   48ODE      D  238   5.002   2.068   5.628  0.3157  0.3974 -0.1333
   48ODE      C  239   4.904   2.283   5.235 -0.0341  0.2669  0.1490
   48ODE      C  240   4.918   2.377   4.791 -0.1143 -0.0866 -0.0795
   49ODE      C  241   5.305   7.086   4.798  0.1383 -0.1407 -0.0078
   49ODE      C  242   5.262   7.388   5.068  0.1743  0.4980 -0.0721
   49ODE      D  243   5.205   7.624   5.473  0.1211  0.3987 -0.5214
   49ODE      C  244   5.311   7.261   5.749 -0.1291 -0.1748 -0.3338
   49ODE      C  245   5.654   7.107   5.967 -0.2143  0.3665 -0.3527
   50ODE      C  246   6.531   6.739   4.646 -0.1030  0.3092 -0.0696
   50ODE      C  247   6.618   6.587   4.237  0.0392 -0.1590 -0.0437
   50ODE      D  248   6.388   6.435   3.876  0.2907  0.0237 -0.0665
   50ODE      C  249   6.589   6.043   3.709 -0.0684  0.0072 -0.0253
   50ODE      C  250   6.919   6.012   3.362  0.1420 -0.0707  0.1153
   51ODE      C  251   8.334   6.573   3.559  0.1548  0.0694 -0.2546
   51ODE      C  252   8.400   6.424   3.910  0.0014  0.0673  0.2221
   51ODE      D  253   8.556   6.084   4.145  0.0265  0.1247 -0.1971
   51ODE      C  254   9.021   6.038   4.067 -0.1316  0.2972  0.1520
   51ODE      C  255   9.464   5.874   3.912 -0.2077 -0.0612 -0.2092
   52ODE      C  256   4.837   1.414   3.868  0.3624 -0.0611  0.0299
   52ODE      C  257   4.951   1.219   3.360  0.0839 -0.1988 -0.5106
   52ODE      D  258   5.064   0.887   3.122 -0.0428 -0.0143  0.1223
   52ODE      C  259   5.507   0.640   3.151  0.0267 -0.1281  0.1630
   52ODE      C  260   5.846   0.693   2.820  0.2541 -0.0225 -0.0911
   53ODE      C  261   1.986   1.644   1.495 -0.0754 -0.2387 -0.0226
   53ODE      C  262   1.754   1.993   1.454 -0.3365 -0.0632  0.0421
   53ODE      D  263   1.424   2.196   1.182  0.0058  0.0853 -0.1308
   53ODE      C  264   1.119   2.082   0.794 -0.3247  0.1586 -0.1333
   53ODE      C  265   0.953   1.814   0.434  0.0690 -0.1167  0.2375
   54ODE      C  266   1.532   3.450   5.871  0.1399 -0.0290  0.1820
   54ODE      C  267   1.340   3.791   6.070  0.1672  0.0332  0.0447
   54ODE      D  268   1.202   4.195   6.215 -0.0073  0.0428 -0.1612
   54ODE      C  269   1.146   4.537   5.960 -0.0827 -0.2615 -0.3071
   54ODE      C  270   0.896   5.007   5.826  0.4405 -0.1262  0.0847
   55ODE      C  271   8.381   1.383   3.048 -0.0701  0.1503  0.3473
   55ODE      C  272   8.984   1.281   3.015  0.2877 -0.1212  0.0751
   55ODE      D  273   9.213   1.005   2.852 -0.0255 -0.0965  0.1195
   55ODE      C  274   9.457   1.125   2.666  0.0215  0.3085 -0.0214
   55ODE      C  275   9.572   1.477   2.557 -0.1991  0.2103 -0.0433
   56ODE      C  276   3.348   0.160   3.394 -0.2411 -0.0555  0.1386
   56ODE      C  277   2.988   0.074   3.685 -0.0090 -0.1420  0.4902
   56ODE      D  278   2.629   0.102   3.931 -0.1929 -0.2563 -0.0616
   56ODE      C  279   2.693   0.222   4.412  0.1681 -0.0972  0.2890
   56ODE      C  280   2.268   0.348   4.524  0.3661 -0.0119  0.1662
   57ODE      C  281   8.600   1.672   2.628 -0.0434 -0.1612 -0.0017
   57ODE      C  282   8.838   1.804   2.994  0.0250 -0.1643 -0.0512
   57ODE      D  283   9.031   1.727   3.343 -0.0326  0.1400 -0.0910
   57ODE      C  284   8.921   1.780   3.833 -0.0984 -0.4161  0.2169
   57ODE      C  285   8.799   2.017   4.211  0.3078 -0.1290 -0.0223
   58ODE      C  286   3.789   7.084   4.485 -0.1478 -0.3329  0.1644
   58ODE      C  287   3.821   7.441   4.775 -0.1966  0.1239  0.0257
   58ODE      D  288   3.500   7.538   5.089  0.0472  0.0815 -0.1016
   58ODE      C  289   3.075   7.503   4.945  0.2763  0.1649 -0.4631
   58ODE      C  290   2.714   7.571   4.957  0.0607  0.0406  0.0772
   59ODE      C  291   5.376   2.556   3.373 -0.1803  0.2643  0.1292
   59ODE      C  292   5.054   2.648   3.102 -0.0912 -0.0754  0.0966
   59ODE      D  293   4.729   2.975   2.939 -0.0371 -0.1341  0.0638
   59ODE      C  294   4.397   2.867   2.667  0.2498  0.2541 -0.0743
   59ODE      C  295   3.944   3.014   2.685  0.1085 -0.0098  0.1626
   60ODE      C  296   8.426   1.389   7.040 -0.2916 -0.0276  0.2079
   60ODE      C  297   8.213   1.088   7.040 -0.0007 -0.0211  0.2085
   60ODE      D  298   7.764   0.952   7.177 -0.0657  0.1484  0.2996
   60ODE      C  299   7.551   0.759   6.854 -0.2924 -0.0637  0.0956
   60ODE      C  300   7.626   0.489   6.527  0.2597  0.0474  0.4472
   61ODE      C  301   5.645   6.477   2.226 -0.1186 -0.0411  0.0272
   61ODE      C  302   5.565   6.917   2.212 -0.0972 -0.1286 -0.0189
   61ODE      D  303   5.190   7.232   2.295  0.2264  0.2553 -0.1240
   61ODE      C  304   4.923   6.909   2.303  0.1195 -0.2915 -0.1408
   61ODE      C  305   4.515   6.919   2.285 -0.1203 -0.3788  0.0718
   62ODE      C  306   0.631   1.664   2.932 -0.3191  0.1545  0.0615
   62ODE      C  307   0.264   1.862   2.800 -0.2102 -0.2591 -0.0450
   62ODE      D  308  -0.188   1.691   2.934  0.0687 -0.1883 -0.1475
   62ODE      C  309  -0.426   1.494   2.590  0.0282 -0.1010  0.1283
   62ODE      C  310  -0.426   1.733   2.216  0.3433  0.1445  0.0425
   63ODE      C  311   7.686   3.392   6.935 -0.1825 -0.2638  0.0839
   63ODE      C  312   7.970   3.515   6.737 -0.1224  0.2922 -0.0707
   63ODE      D  313   8.261   3.331   6.734  0.2108  0.1258  0.1350
   63ODE      C  314   8.700   3.419   6.892 -0.0371 -0.1475 -0.0376
   63ODE      C  315   9.055   3.260   7.046 -0.0300  0.1746 -0.3981
   64ODE      C  316   6.996   5.277   3.524 -0.2063  0.2033  0.1654
   64ODE      C  317   7.049   4.831   3.399  0.0096 -0.2940 -0.2127
   64ODE      D  318   7.203   4.507   3.195 -0.2106 -0.2535 -0.0561
   64ODE      C  319   7.391   4.068   3.265 -0.0081 -0.0349 -0.2659
   64ODE      C  320   7.407   3.665   3.129 -0.2210 -0.1012  0.0955
   65ODE      C  321   0.879   5.676   2.148  0.0324  0.3092  0.0367
   65ODE      C  322   0.667   5.524   2.510 -0.0403 -0.1398  0.1839
   65ODE      D  323   0.461   5.468   2.931  0.0870 -0.2660  0.0418
   65ODE      C  324   0.674   5.476   3.301 -0.0560 -0.1504 -0.2193
   65ODE      C  325   0.706   5.818   3.705  0.1711  0.1654 -0.1316
   66ODE      C  326   3.316   1.501   5.847 -0.1362 -0.0477  0.1207
   66ODE      C  327   3.098   1.763   5.555  0.0724  0.0708 -0.0045
   66ODE      D  328   3.006   2.267   5.563  0.0885 -0.1077 -0.2537
   66ODE      C  329   3.355   2.457   5.635 -0.2386 -0.0443 -0.0709
   66ODE      C  330   3.669   2.568   5.946  0.1504 -0.0989  0.0430
   67ODE      C  331   7.424   4.289   6.962 -0.0687  0.0194 -0.0280
   67ODE      C  332   7.712   3.919   7.205 -0.1724  0.3448 -0.1009
   67ODE      D  333   8.180   4.019   7.453  0.0254 -0.0550 -0.3870
   67ODE      C  334   8.220   4.235   7.846  0.0907  0.1324 -0.0547
   67ODE      C  335   8.323   3.893   8.080 -0.2530  0.0173 -0.3030
   68ODE      C  336   4.739   7.020   1.828  0.1383 -0.0158  0.1025
   68ODE      C  337   4.794   7.451   2.070 -0.0994 -0.2079  0.3483
   68ODE      D  338   4.463   7.512   2.394  0.1241 -0.1082  0.0095
   68ODE      C  339   4.269   7.959   2.412  0.1568  0.2538  0.1516
   68ODE      C  340   4.067   8.280   2.640 -0.3111  0.0558 -0.0744
   69ODE      C  341   0.327   0.492   1.653 -0.1772 -0.2718 -0.1023
   69ODE      C  342   0.235   0.604   1.241 -0.0799  0.3305 -0.1165
   69ODE      D  343   0.033   0.897   1.018  0.0087 -0.0468 -0.0058
   69ODE      C  344   0.213   1.246   0.851 -0.3220  0.1218 -0.0430
   69ODE      C  345   0.558   1.295   0.430  0.0172  0.1579 -0.0843
   70ODE      C  346   0.569   1.427   4.248  0.1456 -0.1344  0.2837
   70ODE      C  347   0.351   1.111   4.526 -0.1055 -0.2447  0.3015
   70ODE      D  348   0.011   0.902   4.409  0.0522  0.1295  0.2026
   70ODE      C  349  -0.132   0.504   4.496  0.0346 -0.0428  0.2912
   70ODE      C  350  -0.170   0.071   4.500 -0.0777  0.0235  0.1385
   71ODE      C  351   8.487   1.430   4.016  0.2577  0.0062 -0.0924
   71ODE      C  352   8.858   1.534   4.327 -0.0376 -0.1958  0.0412
   71ODE      D  353   9.102   1.645   4.718  0.3293  0.5099 -0.0496
   71ODE      C  354   9.487   1.291   4.775  0.1267 -0.0622  0.1143
   71ODE      C  355   9.455   0.868   4.875 -0.3079 -0.0118 -0.0356
   72ODE      C  356   2.213   0.526   3.065  0.2026 -0.0458 -0.1936
   72ODE      C  357   2.436   0.350   3.506 -0.2368  0.1421  0.0429
   72ODE      D  358   2.771   0.639   3.613 -0.1052 -0.1572 -0.0043
   72ODE      C  359   2.854   1.053   3.707  0.1928  0.2248 -0.0702
   72ODE      C  360   2.505   1.343   3.718 -0.1116 -0.2560  0.1153
   73ODE      C  361   5.159   3.331   3.479 -0.3337 -0.2292 -0.0497
   73ODE      C  362   5.064   3.137   3.213  0.1051 -0.1292 -0.1392
   73ODE      D  363   5.177   3.113   2.792  0.0399 -0.0816  0.3691
   73ODE      C  364   5.355   2.720   2.655  0.0310 -0.1717  0.0334
   73ODE      C  365   5.510   2.608   2.248 -0.1591  0.1992  0.0238
   74ODE      C  366   2.015   6.676   2.598 -0.2161 -0.1010  0.1382
   74ODE      C  367   2.343   6.537   2.458 -0.2054  0.0310  0.0682
   74ODE      D  368   2.741   6.348   2.379 -0.0068 -0.1476  0.0211
   74ODE      C  369   2.904   6.000   2.473  0.0475  0.2749  0.2363
   74ODE      C  370   3.095   5.805   2.746 -0.0266  0.0415 -0.1607
   75ODE      C  371   4.932   5.776   5.002  0.1456 -0.0415  0.0751
   75ODE      C  372   4.887   5.916   5.346  0.1039 -0.2525  0.0865
   75ODE      D  373   4.717   6.121   5.709 -0.1157 -0.5334 -0.0256
   75ODE      C  374   4.794   5.919   6.150  0.1262 -0.1131  0.2358
   75ODE      C  375   4.832   5.533   6.333  0.0937  0.2786  0.1241
   76ODE      C  376   1.850   1.578   2.999 -0.0467  0.0925 -0.0096
   76ODE      C  377   2.163   1.305   2.946  0.0746 -0.0775 -0.0211
   76ODE      D  378   2.218   0.935   2.683 -0.1528  0.1825 -0.2655
   76ODE      C  379   2.340   0.784   2.288 -0.1871  0.0203 -0.1821
   76ODE      C  380   2.618   0.477   2.055 -0.0045  0.1683 -0.1871
   77ODE      C  381   8.761   4.278   3.615  0.1627  0.1403  0.4416
   77ODE      C  382   8.542   4.021   3.875 -0.0167 -0.0099 -0.1282
   77ODE      D  383   8.611   3.608   4.073  0.0979  0.0295  0.1326
   77ODE      C  384   8.325   3.344   4.040  0.2453  0.2832 -0.0972
   77ODE      C  385   8.209   2.935   4.279  0.0029  0.1394  0.3223
   78ODE      C  386   3.313   3.489   1.364  0.0036  0.2289  0.2781
   78ODE      C  387   2.938   3.328   1.365 -0.2402  0.3270 -0.1010
   78ODE      D  388   2.588   3.500   1.724  0.2269 -0.1542  0.0365
   78ODE      C  389   2.078   3.356   1.736 -0.3041 -0.0394 -0.1243
   78ODE      C  390   1.708   3.631   1.855 -0.0939  0.3072 -0.0241
   79ODE      C  391   8.481   4.844   2.148  0.2983 -0.1680  0.2987
   79ODE      C  392   8.089   4.804   2.143 -0.1514  0.0086 -0.2752
   79ODE      D  393   7.705   4.685   1.979  0.1920  0.1079  0.3216
   79ODE      C  394   7.656   4.737   1.524  0.2294 -0.3957  0.2347
   79ODE      C  395   7.485   4.906   1.113  0.0776  0.2551  0.1335
   80ODE      C  396   9.103   5.771   0.682  0.3265  0.2045  0.2240
   80ODE      C  397   9.237   6.010   1.086  0.0100 -0.1025 -0.2779
   80ODE      D  398   9.595   6.295   1.082  0.1052  0.3507  0.1043
   80ODE      C  399   9.867   6.255   0.774 -0.0762  0.2740 -0.1653
   80ODE      C  400  10.168   6.182   0.460  0.0950 -0.2031  0.2244
   81ODE      C  401   5.525   5.497   3.474  0.0870  0.1138  0.3620
   81ODE      C  402   5.584   5.500   3.026 -0.3022 -0.4507 -0.0129
   81ODE      D  403   5.571   5.221   2.588 -0.0690  0.5070  0.1710
   81ODE      C  404   6.052   4.950   2.475 -0.4205  0.3308 -0.0524
   81ODE      C  405   6.265   4.831   2.862  0.0920 -0.0888 -0.1114
   82ODE      C  406   0.414   7.091   5.615  0.1068 -0.1390 -0.2700
   82ODE      C  407   0.109   7.434   5.545  0.2488 -0.0031  0.0647
   82ODE      D  408  -0.267   7.536   5.654 -0.0093 -0.1424 -0.2444
   82ODE      C  409  -0.295   7.940   5.383 -0.3067  0.1360 -0.0038
   82ODE      C  410  -0.334   8.268   5.607 -0.2982  0.3175 -0.0681
   83ODE      C  411   5.351   1.504   5.611  0.1718  0.0630 -0.5046
   83ODE      C  412   5.034   1.519   5.387  0.3677  0.4955 -0.0117
   83ODE      D  413   4.555   1.388   5.174 -0.2772  0.1792 -0.0873
   83ODE      C  414   4.359   1.584   4.890 -0.0178  0.0465  0.2283
   83ODE      C  415   4.131   1.586   4.545 -0.0814  0.0042 -0.2691
   84ODE      C  416   5.013   5.167   4.432  0.2640 -0.1151  0.0429
   84ODE      C  417   5.373   5.207   4.281 -0.2899 -0.0640  0.0774
   84ODE      D  418   5.685   5.180   3.991 -0.1093 -0.0408  0.0828
   84ODE      C  419   5.511   4.990   3.675  0.2335  0.0474  0.0886
   84ODE      C  420   5.560   4.747   3.273 -0.0651  0.0937 -0.1631
   85ODE      C  421   8.010   6.446   1.630 -0.2755 -0.2531 -0.0875
   85ODE      C  422   8.016   6.796   1.415 -0.0730 -0.1541 -0.0457
   85ODE      D  423   8.170   7.084   1.233 -0.3801 -0.1007  0.0021
   85ODE      C  424   8.222   7.569   0.990 -0.4327  0.2085 -0.1726
   85ODE      C  425   8.209   7.825   0.640  0.3121  0.1144  0.0891
   86ODE      C  426   8.241   0.873   1.771 -0.1347 -0.1737  0.1702
   86ODE      C  427   8.581   1.151   1.439 -0.1032 -0.5167  0.0116
   86ODE      D  428   9.023   1.331   1.391  0.3272  0.0242  0.0444
   86ODE      C  429   9.298   1.547   1.704 -0.1720 -0.1049  0.3586
   86ODE      C  430   9.565   1.934   1.626  0.0134 -0.0295  0.0254
   87ODE      C  431   6.478   1.666   4.073 -0.2592  0.0437 -0.1858
   87ODE      C  432   6.144   1.629   3.778 -0.1598  0.0174 -0.2843
   87ODE      D  433   5.938   1.342   3.611  0.0198  0.3221 -0.0150
   87ODE      C  434   5.680   0.992   3.505  0.2524 -0.0451 -0.1170
   87ODE      C  435   5.305   0.875   3.579 -0.2868 -0.0903  0.4441
   88ODE      C  436   6.515   1.662   0.926  0.3939  0.1036 -0.0012
   88ODE      C  437   6.202   1.514   1.168 -0.0730  0.2249 -0.0269
   88ODE      D  438   5.833   1.451   1.457 -0.1180  0.1124 -0.3352
   88ODE      C  439   5.747   1.015   1.230  0.2263 -0.0382  0.0844
   88ODE      C  440   5.856   0.645   1.188 -0.0135  0.0315  0.0549
   89ODE      C  441   5.839   3.068   0.681 -0.4069  0.0687  0.1474
   89ODE      C  442   5.481   3.241   0.907  0.0614 -0.1781 -0.1157
   89ODE      D  443   5.489   3.187   1.387 -0.3098 -0.2436  0.0729
   89ODE      C  444   5.374   3.090   1.849 -0.2262 -0.1527  0.3763
   89ODE      C  445   5.261   3.109   2.247 -0.2243  0.0847 -0.0862
   90ODE      C  446   6.678   4.872   0.765 -0.0161 -0.3030 -0.0259
   90ODE      C  447   6.852   4.509   1.016 -0.0242  0.3149  0.1025
   90ODE      D  448   6.732   4.192   1.433  0.1042  0.1131  0.2428
   90ODE      C  449   6.381   4.319   1.594  0.2922  0.0034 -0.2223
   90ODE      C  450   6.007   4.396   1.506 -0.2761 -0.2406  0.0114
   91ODE      C  451   0.139   6.829   4.937  0.1319  0.0991 -0.1679
   91ODE      C  452  -0.168   6.461   4.921 -0.0847  0.1714 -0.0101
   91ODE      D  453  -0.344   6.074   5.084 -0.1124  0.1078  0.0286
   91ODE      C  454  -0.777   5.957   4.929  0.0476 -0.1981  0.4215
   91ODE      C  455  -1.150   5.866   5.022  0.4422 -0.1042 -0.1794
   92ODE      C  456   0.212   5.956   3.447 -0.0221  0.2199  0.1975
   92ODE      C  457   0.360   6.342   3.326  0.1136 -0.1486  0.3993
   92ODE      D  458   0.527   6.648   2.984 -0.2173 -0.1785 -0.0979
   92ODE      C  459   0.835   6.810   3.226 -0.1878  0.0439 -0.0328
   92ODE      C  460   1.200   6.852   3.527 -0.1237 -0.1504  0.0247
   93ODE      C  461   1.910   2.560   1.604  0.0626  0.2305  0.0705
   93ODE      C  462   1.573   2.363   1.827  0.2849 -0.2354  0.1383
   93ODE      D  463   1.149   2.626   1.841  0.2218 -0.1379 -0.1248
   93ODE      C  464   1.059   2.945   2.068  0.0872  0.1390  0.1236
   93ODE      C  465   0.858   3.482   2.214  0.1515  0.3472 -0.0295
   94ODE      C  466   7.948   1.463   5.110  0.0325  0.0180  0.2134
   94ODE      C  467   7.581   1.172   5.180 -0.1232 -0.0610 -0.0697
   94ODE      D  468   7.403   0.943   5.482  0.0325 -0.1229  0.0826
   94ODE      C  469   7.472   1.197   5.864  0.1287 -0.0032  0.2381
   94ODE      C  470   7.637   1.521   6.021  0.1521  0.0495  0.0285
   95ODE      C  471   2.557   1.645   5.668  0.1406  0.0460  0.1087
   95ODE      C  472   2.520   2.039   5.452 -0.0019  0.1087  0.0121
   95ODE      D  473   2.221   2.355   5.359  0.1112 -0.0378 -0.3693
   95ODE      C  474   2.155   2.489   5.777  0.0097  0.1626  0.1664
   95ODE      C  475   2.221   2.739   6.123  0.2133 -0.1754  0.1894
   96ODE      C  476   5.241   5.401   4.855 -0.0536  0.0630  0.5665
   96ODE      C  477   5.639   5.297   4.673 -0.0712 -0.4084  0.2136
   96ODE      D  478   5.881   5.530   4.466  0.0199  0.3498 -0.1534
   96ODE      C  479   6.095   5.795   4.642 -0.0271 -0.0600 -0.2363
   96ODE      C  480   6.177   6.138   4.991  0.1762 -0.0759  0.1978
   97ODE      C  481   1.836   4.799   6.387 -0.0791  0.0792 -0.1135
   97ODE      C  482   1.646   5.004   6.774  0.2048  0.2100  0.0709
   97ODE      D  483   1.342   5.175   7.014  0.1558 -0.0485 -0.0164
   97ODE      C  484   1.333   5.556   6.814  0.1733  0.2323  0.3024
   97ODE      C  485   1.250   5.946   6.615 -0.2526 -0.0736 -0.2840
   98ODE      C  486   0.809   5.273   4.424 -0.2060  0.0192  0.0909
   98ODE      C  487   0.432   5.152   4.502  0.1445  0.3122  0.0646
   98ODE      D  488   0.052   5.089   4.297  0.2376 -0.0099 -0.0687
   98ODE      C  489  -0.227   5.431   4.252  0.0412 -0.3242  0.1075
   98ODE      C  490  -0.574   5.496   3.978 -0.2824 -0.0953 -0.1032
   99ODE      C  491   7.821   0.703   6.013  0.1926  0.1847  0.0462
   99ODE      C  492   8.306   0.626   6.004  0.1955 -0.2373 -0.0949
   99ODE      D  493   8.540   0.323   5.881  0.1462  0.0940 -0.0574
   99ODE      C  494   8.872   0.252   6.077 -0.1115 -0.0397 -0.1945
   99ODE      C  495   9.292   0.402   6.212  0.2053 -0.1648 -0.3812
  100ODE      C  496   5.295   6.248   4.592  0.0814 -0.0900 -0.1267
  100ODE      C  497   5.590   5.938   4.338 -0.0943  0.1861 -0.2590
  100ODE      D  498   5.687   5.700   4.026 -0.1949  0.0023 -0.1703
  100ODE      C  499   5.284   5.517   3.869  0.3647  0.1773 -0.1419
  100ODE      C  500   4.825   5.432   3.983 -0.1578 -0.0423 -0.1541
  101ODE      C  501   1.841   1.590   0.925  0.1754  0.0938  0.1309
  101ODE      C  502   2.221   1.402   0.960 -0.2352 -0.0662 -0.2110
  101ODE      D  503   2.520   1.599   0.827  0.1793 -0.1698  0.0875
  101ODE      C  504   2.883   1.565   0.694 -0.1861 -0.1312 -0.0557
  101ODE      C  505   3.144   1.680   0.346 -0.0095 -0.4494 -0.1538
  102ODE      C  506   7.971   5.967   5.975 -0.0648 -0.2099 -0.2253
  102ODE      C  507   7.634   6.136   6.190  0.0668  0.2630  0.0129
  102ODE      D  508   7.546   6.505   5.963  0.0464  0.1355  0.1544
  102ODE      C  509   7.852   6.428   5.666 -0.0969  0.1740 -0.0408
  102ODE      C  510   8.067   6.463   5.345 -0.0593  0.1299  0.1480
  103ODE      C  511   1.433   4.279   6.738 -0.1060  0.0624 -0.0029
  103ODE      C  512   1.863   4.442   6.835 -0.1114 -0.0860  0.0356
  103ODE      D  513   2.221   4.335   6.662 -0.0966  0.0980  0.0340
  103ODE      C  514   2.486   4.011   6.693  0.0373  0.0052 -0.1839
  103ODE      C  515   2.793   3.815   6.660  0.0510 -0.0992  0.1449
  104ODE      C  516   6.471   2.746   4.741  0.1409 -0.3147  0.0354
  104ODE      C  517   6.236   2.867   4.388 -0.0750 -0.0076 -0.0333
  104ODE      D  518   5.947   2.633   4.151  0.0001 -0.1079 -0.1354
  104ODE      C  519   5.660   2.855   4.242  0.1373 -0.0987 -0.1639
  104ODE      C  520   5.492   3.248   4.005  0.2089 -0.0250  0.0890
  105ODE      C  521   7.538   0.852   3.307  0.0282 -0.0208 -0.1419
  105ODE      C  522   7.053   0.784   3.113  0.2392 -0.0323 -0.2607
  105ODE      D  523   6.715   0.656   2.824 -0.2506 -0.0085 -0.0193
  105ODE      C  524   6.530   0.934   2.473 -0.1515  0.2486  0.1734
  105ODE      C  525   6.444   1.336   2.300 -0.1033 -0.2271 -0.2603
  106ODE      C  526   0.142   5.016   0.823  0.0225  0.3576  0.1319
  106ODE      C  527   0.236   5.009   1.330  0.0529  0.1269  0.2451
  106ODE      D  528   0.216   4.850   1.717 -0.2466 -0.1598 -0.2086
  106ODE      C  529   0.539   5.130   1.789  0.0234 -0.3966 -0.0118
  106ODE      C  530   0.789   5.185   2.119 -0.1809  0.0770  0.4822
  107ODE      C  531   9.298   4.726   5.386 -0.1712 -0.1448 -0.1171
  107ODE      C  532   9.129   4.994   5.094 -0.0338 -0.2705 -0.0812
  107ODE      D  533   9.297   5.313   4.845  0.1581  0.0978 -0.0233
  107ODE      C  534   9.102   5.656   4.770 -0.0695  0.1585 -0.0392
  107ODE      C  535   8.790   5.770   4.428  0.0775 -0.1785  0.0988
  108ODE      C  536   2.200   2.458   3.845  0.1829 -0.2394 -0.1328
  108ODE      C  537   2.068   2.597   3.392  0.2350  0.1112 -0.0041
  108ODE      D  538   1.946   2.425   3.016 -0.0167 -0.0564 -0.3718
  108ODE      C  539   1.999   2.083   2.908 -0.2032 -0.1190  0.0131
  108ODE      C  540   2.290   1.871   2.994 -0.0885 -0.1255  0.0879
  109ODE      C  541   1.064   0.125   5.111  0.0649 -0.1641 -0.2422
  109ODE      C  542   0.869   0.063   5.470 -0.0212  0.2501 -0.1700
  109ODE      D  543   0.705   0.355   5.734  0.0974 -0.3909 -0.5348
  109ODE      C  544   0.573   0.712   5.573  0.0173  0.1224 -0.1906
  109ODE      C  545   0.650   1.072   5.495  0.0467 -0.1949 -0.2488
  110ODE      C  546   3.790   0.600   1.013  0.0919 -0.0741 -0.2824
  110ODE      C  547   3.815   0.940   0.774  0.0887  0.3294  0.2912
  110ODE      D  548   3.865   1.147   0.425  0.1053 -0.2155 -0.1683
  110ODE      C  549   3.681   1.618   0.343 -0.0975  0.2223  0.0362
  110ODE      C  550   3.688   2.025   0.497  0.0358  0.1515 -0.0081
  111ODE      C  551   8.029   6.388   1.092 -0.0356  0.2863  0.0788
  111ODE      C  552   7.606   6.459   0.908  0.4398  0.0962 -0.3348
  111ODE      D  553   7.253   6.224   0.722  0.0162  0.1482 -0.0079
  111ODE      C  554   6.800   6.342   0.570  0.3391  0.2526 -0.0523
  111ODE      C  555   6.519   6.216   0.192  0.2705 -0.1410 -0.1055
  112ODE      C  556   6.247   6.578   6.648  0.0268 -0.2049  0.0224
  112ODE      C  557   5.767   6.358   6.646  0.0291  0.0394 -0.1201
  112ODE      D  558   5.596   5.994   6.628 -0.1984  0.4036 -0.1784
  112ODE      C  559   5.582   5.572   6.640 -0.1497  0.1293 -0.0029
  112ODE      C  560   5.789   5.226   6.812  0.0992 -0.0742 -0.1638
  113ODE      C  561   9.120   1.535   5.622  0.2237 -0.2361  0.0069
  113ODE      C  562   8.768   1.390   5.693  0.0007 -0.0300  0.0425
  113ODE      D  563   8.393   1.638   5.849  0.0299  0.0748  0.2501
  113ODE      C  564   7.962   1.829   5.733 -0.0465  0.0105 -0.1441
  113ODE      C  565   7.493   2.028   5.940 -0.1645  0.0530  0.2507
  114ODE      C  566   6.135   1.329   5.128 -0.1636 -0.2182 -0.0251
  114ODE      C  567   6.380   1.069   4.784 -0.1120  0.2926  0.1037
  114ODE      D  568   6.367   0.554   4.815 -0.2031 -0.2243  0.3767
  114ODE      C  569   6.834   0.321   4.874 -0.1400 -0.1394  0.4434
  114ODE      C  570   7.122   0.490   5.274 -0.0778 -0.0194 -0.0014
  115ODE      C  571   5.573   5.402   5.289  0.0859 -0.0734 -0.0842
  115ODE      C  572   5.122   5.354   5.342 -0.0753 -0.1866  0.4064
  115ODE      D  573   4.692   5.443   5.414 -0.0018  0.0959 -0.5128
  115ODE      C  574   4.564   5.608   5.730  0.1441  0.2713  0.1828
  115ODE      C  575   4.316   5.929   5.958 -0.1738  0.0432  0.0547
  116ODE      C  576   0.566   2.279   3.341  0.0864 -0.2037 -0.1907
  116ODE      C  577   0.401   1.844   3.397 -0.0927  0.1172 -0.4075
  116ODE      D  578   0.038   1.776   3.414 -0.0448 -0.0798  0.0718
  116ODE      C  579  -0.171   1.570   3.757 -0.0722  0.0940  0.1321
  116ODE      C  580  -0.310   1.272   4.004 -0.0562  0.0466 -0.0528
  117ODE      C  581   3.851   2.358   1.996  0.1491 -0.1989  0.1373
  117ODE      C  582   3.502   2.603   2.132 -0.0219 -0.2822 -0.0747
  117ODE      D  583   3.083   2.804   2.177 -0.1731 -0.0676 -0.2485
  117ODE      C  584   2.935   2.966   2.521 -0.0898  0.2094 -0.0043
  117ODE      C  585   2.771   3.331   2.645  0.1213  0.3132  0.1732
  118ODE      C  586   9.046   5.091   0.282 -0.0111  0.7394  0.0540
  118ODE      C  587   9.351   5.232   0.508  0.2016  0.2772 -0.0199
  118ODE      D  588   9.723   5.548   0.588 -0.1807  0.3261  0.0277
  118ODE      C  589   9.595   5.856   0.767  0.4458 -0.1582 -0.2205
  118ODE      C  590   9.294   6.286   0.666 -0.1082 -0.0319  0.0857
  119ODE      C  591   5.947   2.483   3.693 -0.2899 -0.2169  0.1606
  119ODE      C  592   6.206   2.263   3.441  0.0537  0.3885  0.1378
  119ODE      D  593   6.401   2.356   3.075 -0.0193 -0.1953 -0.1652
  119ODE      C  594   6.346   2.676   2.765  0.0846 -0.2474  0.3371
  119ODE      C  595   6.216   3.038   2.529 -0.2697  0.0537 -0.1847
  120ODE      C  596   1.851   5.963   2.487  0.3394 -0.1456  0.4301
  120ODE      C  597   1.674   6.233   2.779  0.3034  0.0953  0.2941
  120ODE      D  598   1.536   6.102   3.247 -0.0594  0.2673  0.0539
  120ODE      C  599   1.591   5.610   3.316 -0.1821  0.1380  0.1178
  120ODE      C  600   1.966   5.381   3.304  0.0107 -0.0243  0.1936
  121ODE      C  601   8.033   2.331   0.208  0.3964  0.3463 -0.1573
  121ODE      C  602   8.123   2.189  -0.162  0.4228 -0.0457 -0.1018
  121ODE      D  603   8.210   2.220  -0.644 -0.4019  0.3134 -0.0304
  121ODE      C  604   8.514   2.413  -0.754  0.1435 -0.2298  0.2101
  121ODE      C  605   8.822   2.596  -0.786  0.1973  0.2902  0.2177
  122ODE      C  606   8.896   6.806   3.606  0.0376 -0.0036  0.0695
  122ODE      C  607   9.286   6.566   3.466  0.1747  0.1130  0.1198
  122ODE      D  608   9.558   6.332   3.706 -0.1717 -0.1006 -0.0164
  122ODE      C  609   9.918   6.175   3.880 -0.3011  0.0280 -0.0164
  122ODE      C  610  10.169   6.237   4.325 -0.2388 -0.1531  0.1317
  123ODE      C  611   3.305   3.197   2.821  0.1473 -0.4760 -0.0155
  123ODE      C  612   3.096   3.554   2.970  0.0894  0.0124 -0.0651
  123ODE      D  613   2.783   3.487   3.119 -0.1338 -0.1118 -0.0802
  123ODE      C  614   2.893   3.254   3.497 -0.1434 -0.2302 -0.0450
  123ODE      C  615   3.121   3.230   3.812  0.3158  0.0183 -0.0240
  124ODE      C  616   9.383   5.152   3.780 -0.1646 -0.0193  0.0569
  124ODE      C  617   9.133   4.779   3.603 -0.1430  0.0012  0.0524
  124ODE      D  618   8.951   4.563   3.222  0.0943 -0.1285 -0.0731
  124ODE      C  619   8.494   4.376   3.125 -0.1222  0.0082  0.1241
  124ODE      C  620   8.031   4.169   2.910  0.0274 -0.0611 -0.2560
  125ODE      C  621   4.154   3.558   6.116 -0.0126  0.3783 -0.1586
  125ODE      C  622   4.108   3.349   5.800 -0.1403  0.0569  0.1866
  125ODE      D  623   4.325   3.130   5.592 -0.2573  0.0634 -0.1476
  125ODE      C  624   4.645   3.270   5.308 -0.2681  0.3419  0.0243
  125ODE      C  625   4.979   3.503   5.266  0.0378 -0.1761 -0.2959
  126ODE      C  626   8.195   7.049   2.840  0.0299 -0.2463 -0.1078
  126ODE      C  627   8.061   6.794   3.184 -0.3357 -0.0135  0.2850
  126ODE      D  628   7.874   6.444   3.318  0.0472  0.0902  0.3340
  126ODE      C  629   7.857   6.208   3.614  0.1986  0.1170  0.0572
  126ODE      C  630   7.954   6.109   4.057 -0.3085 -0.2957 -0.1415
  127ODE      C  631   1.465   2.678   1.365  0.1439 -0.1188  0.0879
  127ODE      C  632   1.090   2.977   1.413 -0.2835  0.0361 -0.0930
  127ODE      D  633   0.957   3.371   1.226  0.2552 -0.1197  0.2171
  127ODE      C  634   0.904   3.625   0.919 -0.0403 -0.0619  0.0808
  127ODE      C  635   0.896   3.969   0.820  0.0067  0.1312  0.2185
  128ODE      C  636   0.759   3.397   4.756 -0.2797 -0.1341 -0.1189
  128ODE      C  637   0.637   3.527   4.338 -0.0801 -0.0256 -0.0074
  128ODE      D  638   0.597   3.911   4.140  0.1838 -0.2662  0.0061
  128ODE      C  639   0.270   4.135   4.357  0.0243  0.1481 -0.2012
  128ODE      C  640  -0.062   3.975   4.021  0.2407 -0.0185  0.1675
  129ODE      C  641   4.998   7.064   3.921  0.2252  0.0247  0.2000
  129ODE      C  642   4.603   7.112   3.663 -0.2525 -0.0614  0.1224
  129ODE      D  643   4.273   7.139   3.529 -0.3892 -0.2773  0.1486
  129ODE      C  644   4.262   7.473   3.188  0.1234  0.0059 -0.0672
  129ODE      C  645   4.110   7.821   2.908  0.2978  0.2749  0.3619
  130ODE      C  646   1.774   4.276   1.317  0.0999 -0.1334 -0.1829
  130ODE      C  647   1.359   4.506   1.164 -0.1289 -0.1330  0.0586
  130ODE      D  648   1.254   4.827   0.872 -0.2582 -0.0414 -0.1373
  130ODE      C  649   1.447   5.224   0.813 -0.2366 -0.2351  0.0457
  130ODE      C  650   1.799   5.227   1.105  0.0047  0.2483 -0.1486
  131ODE      C  651   0.682   2.349   0.908 -0.1073  0.3989 -0.2243
  131ODE      C  652   0.540   2.580   1.216 -0.1436 -0.0107  0.1402
  131ODE      D  653   0.142   2.827   1.066  0.0024 -0.0620  0.3005
  131ODE      C  654   0.076   3.024   0.710  0.0439 -0.1883 -0.0478
  131ODE      C  655  -0.050   3.373   0.391 -0.0121 -0.2219  0.0987
  132ODE      C  656   1.534   2.037   2.917 -0.0407  0.0814  0.2309
  132ODE      C  657   1.711   1.986   3.268 -0.1613  0.0713 -0.1836
  132ODE      D  658   1.578   1.782   3.684  0.1378  0.0553  0.0090
  132ODE      C  659   1.797   1.739   4.131 -0.2802 -0.3539  0.3242
  132ODE      C  660   2.020   1.729   4.527 -0.1638 -0.0415  0.4632
  133ODE      C  661   0.145   3.973   5.007 -0.1673  0.5347 -0.1511
  133ODE      C  662  -0.236   4.031   5.223  0.1791 -0.0161 -0.2139
  133ODE      D  663  -0.372   4.269   5.511  0.1541 -0.1186  0.0135
  133ODE      C  664  -0.298   4.479   5.970  0.0752  0.0140 -0.4120
  133ODE      C  665  -0.207   4.714   6.292 -0.2635 -0.1958  0.1479
  134ODE      C  666   3.489   5.921   4.411  0.4056 -0.0880 -0.0584
  134ODE      C  667   3.654   6.099   4.756 -0.0296 -0.0425  0.0391
  134ODE      D  668   3.742   6.203   5.215 -0.1287  0.0200  0.0923
  134ODE      C  669   3.800   5.758   5.468  0.2921 -0.1177  0.0839
  134ODE      C  670   4.125   5.473   5.478  0.1439 -0.1547 -0.1604
  135ODE      C  671   0.314   3.135   4.291  0.1694  0.2710  0.1174
  135ODE      C  672   0.027   3.558   4.214 -0.2089  0.0001  0.1504
  135ODE      D  673  -0.084   3.798   4.566  0.1719 -0.0582 -0.1856
  135ODE      C  674  -0.350   3.649   4.890  0.1246 -0.0301 -0.1249
  135ODE      C  675  -0.501   3.381   5.259 -0.0095 -0.1263 -0.1545
  136ODE      C  676   8.849   0.105   4.600 -0.2079 -0.1208 -0.0769
  136ODE      C  677   8.793  -0.176   4.249 -0.1023 -0.1003  0.1859
  136ODE      D  678   8.359  -0.213   4.062 -0.0768 -0.0262  0.0533
  136ODE      C  679   8.086  -0.340   4.209  0.0645 -0.2063 -0.2797
  136ODE      C  680   7.830  -0.593   3.913 -0.2250  0.0081  0.0094
  137ODE      C  681   7.709   6.270   6.696 -0.1911  0.1099  0.1040
  137ODE      C  682   7.302   5.960   6.649 -0.3094 -0.1628  0.1462
  137ODE      D  683   7.182   5.607   6.893 -0.0788 -0.3325  0.0972
  137ODE      C  684   6.751   5.429   7.035 -0.0904  0.0008  0.1796
  137ODE      C  685   6.389   5.225   6.941 -0.0573 -0.1606  0.1715
  138ODE      C  686   8.320   6.403   5.992  0.3732  0.1534 -0.0150
  138ODE      C  687   8.699   6.319   6.224  0.1051  0.3524 -0.2351
  138ODE      D  688   9.010   6.123   6.372 -0.2862  0.0197  0.2653
  138ODE      C  689   9.371   6.214   6.205 -0.1080 -0.3380 -0.2452
  138ODE      C  690   9.610   6.479   5.936 -0.1886 -0.3248 -0.0524
  139ODE      C  691   0.379   3.731   6.122 -0.0917  0.1382 -0.0269
  139ODE      C  692   0.598   3.686   5.696 -0.1392  0.0312  0.1809
  139ODE      D  693   0.698   3.261   5.530  0.0270 -0.2918 -0.0452
  139ODE      C  694   0.780   3.076   5.180 -0.1401 -0.0465  0.6321
  139ODE      C  695   0.930   2.868   4.818 -0.0810  0.2310 -0.0103
  140ODE      C  696   8.430   4.564   1.024  0.2040  0.0005  0.3141
  140ODE      C  697   8.839   4.564   1.183  0.1637  0.1473 -0.2363
  140ODE      D  698   9.244   4.841   1.151 -0.0280  0.0940  0.1157
  140ODE      C  699   9.273   5.121   1.405  0.2624 -0.2185 -0.0707
  140ODE      C  700   9.455   5.364   1.702 -0.1762 -0.0218  0.0340
  141ODE      C  701   4.476   2.338   7.193 -0.0691  0.4663 -0.0644
  141ODE      C  702   4.248   2.001   6.977  0.1199  0.0845  0.0568
  141ODE      D  703   4.268   2.050   6.535  0.0548  0.1140  0.2233
  141ODE      C  704   3.831   1.914   6.346  0.0270  0.1590  0.2195
  141ODE      C  705   3.680   1.504   6.212 -0.0243  0.0329  0.1162
  142ODE      C  706   4.382   2.600   3.576  0.1597  0.1745 -0.0102
  142ODE      C  707   3.998   2.662   3.746  0.1559 -0.2670  0.0431
  142ODE      D  708   3.596   2.472   3.894 -0.0079  0.2770  0.0718
  142ODE      C  709   3.566   2.167   3.671  0.1671  0.2037  0.1714
  142ODE      C  710   3.592   1.775   3.648 -0.0215 -0.2553  0.3800
  143ODE      C  711   7.608   3.923   6.614 -0.1970 -0.1913 -0.2753
  143ODE      C  712   7.747   3.728   6.268  0.0100 -0.0300  0.2078
  143ODE      D  713   7.533   3.423   5.948  0.1507  0.2003 -0.2893
  143ODE      C  714   7.912   3.099   5.724  0.2222 -0.1532 -0.2543
  143ODE      C  715   7.989   2.687   5.703  0.2363  0.2065  0.1173
  144ODE      C  716   5.064   0.780   4.522 -0.4915 -0.1858  0.0553
  144ODE      C  717   4.822   0.522   4.719  0.0639  0.0160 -0.2511
  144ODE      D  718   4.365   0.314   4.870  0.0315 -0.1921 -0.0807
  144ODE      C  719   4.057   0.485   5.134  0.1589 -0.0929  0.1203
  144ODE      C  720   3.979   0.959   5.217  0.0962 -0.1081 -0.1268
  145ODE      C  721   4.604   3.770   6.032 -0.3150  0.0719 -0.5718
  145ODE      C  722   4.871   3.860   6.398  0.0540  0.0613  0.0254
  145ODE      D  723   4.976   3.542   6.689  0.1581  0.0062  0.0706
  145ODE      C  724   5.351   3.575   6.956 -0.3358  0.2497 -0.0225
  145ODE      C  725   5.699   3.628   7.190  0.1108  0.2645 -0.0095
  146ODE      C  726   6.636   0.760   5.146  0.1211  0.1547 -0.0859
  146ODE      C  727   6.408   0.399   5.339  0.0914 -0.2022  0.0527
  146ODE      D  728   6.185   0.151   5.142 -0.0386 -0.2960  0.3210
  146ODE      C  729   6.470  -0.130   5.095  0.0068 -0.1176  0.0460
  146ODE      C  730   6.527  -0.442   5.493  0.1211 -0.1830  0.1474
  147ODE      C  731   4.453   5.520   6.629  0.1044 -0.0397  0.1898
  147ODE      C  732   4.304   5.228   6.430 -0.1591  0.1718  0.1947
  147ODE      D  733   4.377   4.862   6.706 -0.1425 -0.1974 -0.3779
  147ODE      C  734   4.178   4.826   7.087 -0.1560 -0.0800 -0.0223
  147ODE      C  735   4.283   4.587   7.373  0.1398  0.0533 -0.1087
  148ODE      C  736   0.280   1.621   1.246 -0.2037 -0.1122 -0.4021
  148ODE      C  737   0.065   1.244   1.383  0.0793  0.1094  0.1998
  148ODE      D  738  -0.053   0.853   1.559 -0.1143 -0.0510  0.0973
  148ODE      C  739  -0.410   0.856   1.647 -0.2765 -0.2743  0.0157
  148ODE      C  740  -0.711   0.651   1.505 -0.2636 -0.0207  0.1057
  149ODE      C  741   2.940   0.635   4.629 -0.1143 -0.2582  0.1237
  149ODE      C  742   2.944   0.971   4.256 -0.1238 -0.5022  0.2948
  149ODE      D  743   2.742   1.429   4.190  0.0547  0.0010  0.0294
  149ODE      C  744   2.251   1.391   4.194 -0.1182  0.0052 -0.1140
  149ODE      C  745   2.009   1.238   3.891 -0.2099  0.1290 -0.0074
  150ODE      C  746   8.056   3.651   5.884  0.1775  0.0590  0.1030
  150ODE      C  747   7.818   4.024   5.774  0.1750  0.0815  0.3647
  150ODE      D  748   7.608   4.224   5.399 -0.3008  0.0927 -0.0244
  150ODE      C  749   7.779   4.515   5.082 -0.1801  0.0950  0.4057
  150ODE      C  750   7.971   4.807   4.861 -0.1665 -0.2728 -0.1031
  151ODE      C  751   6.156   3.540   6.994 -0.1855 -0.5022 -0.1767
  151ODE      C  752   6.585   3.454   7.064 -0.0801 -0.1495 -0.1385
  151ODE      D  753   6.870   3.685   7.319 -0.1348 -0.0304  0.2716
  151ODE      C  754   6.755   3.960   7.581  0.3338  0.2401  0.1320
  151ODE      C  755   6.874   4.324   7.713  0.0610 -0.1558 -0.1805
  152ODE      C  756   8.055   0.740   6.470  0.0267  0.1665  0.4629
  152ODE      C  757   8.035   0.569   6.944 -0.1405  0.1473  0.1152
  152ODE      D  758   8.158   0.392   7.326 -0.0453  0.1283 -0.0871
  152ODE      C  759   8.486   0.481   7.459  0.1270 -0.0253 -0.0134
  152ODE      C  760   8.961   0.357   7.585  0.1606 -0.1777  0.0573
  153ODE      C  761   5.743   6.541   0.325  0.0981  0.0817 -0.1043
  153ODE      C  762   5.715   6.649   0.710  0.1865 -0.1383  0.1323
  153ODE      D  763   5.838   6.481   1.161 -0.1806  0.1879  0.0745
  153ODE      C  764   5.896   6.850   1.374  0.1061 -0.2265  0.5281
  153ODE      C  765   5.921   7.317   1.390 -0.1365 -0.3391  0.1168
  154ODE      C  766   1.652   1.875   6.312  0.0204  0.0615 -0.1231
  154ODE      C  767   2.123   1.734   6.317 -0.0586  0.2576 -0.0486
  154ODE      D  768   2.184   1.465   5.954  0.0847 -0.3504 -0.3930
  154ODE      C  769   1.957   1.673   5.528 -0.0272  0.2288  0.1633
  154ODE      C  770   1.702   1.995   5.490  0.1076  0.0454  0.1425
  155ODE      C  771   3.214   3.092   1.673 -0.0292  0.0591 -0.0786
  155ODE      C  772   3.552   3.115   1.957  0.0632 -0.2451 -0.0562
  155ODE      D  773   3.620   3.041   2.313  0.0664  0.0364  0.5673
  155ODE      C  774   3.473   2.792   2.604 -0.1277  0.2776 -0.0798
  155ODE      C  775   3.556   2.760   2.905  0.3388  0.2392 -0.2569
  156ODE      C  776   3.272   1.485   7.103 -0.0200 -0.0376 -0.0914
  156ODE      C  777   3.233   1.910   7.125  0.0154 -0.0773  0.1839
  156ODE      D  778   2.973   2.185   7.344  0.1836 -0.0278  0.1238
  156ODE      C  779   2.614   2.276   7.207 -0.1696 -0.1675  0.0540
  156ODE      C  780   2.250   2.093   7.392 -0.1856  0.0637 -0.2907
  157ODE      C  781   3.988   2.287   3.308 -0.0389  0.1104  0.3421
  157ODE      C  782   4.013   2.601   3.050 -0.2879  0.1514 -0.1464
  157ODE      D  783   4.272   2.893   3.182  0.0558  0.1725 -0.0362
  157ODE      C  784   4.048   3.244   3.149 -0.5544 -0.3505  0.1669
  157ODE      C  785   4.121   3.741   2.886 -0.0806 -0.0266 -0.0613
  158ODE      C  786   0.562   3.299   3.327 -0.1891  0.0522  0.0842
  158ODE      C  787   0.197   3.068   3.516 -0.1254  0.2878 -0.0807
  158ODE      D  788  -0.112   2.894   3.742  0.0567  0.0978  0.0211
  158ODE      C  789  -0.493   2.805   3.884 -0.2332  0.2512 -0.2688
  158ODE      C  790  -0.945   2.884   3.793 -0.0291 -0.4164  0.0993
  159ODE      C  791   5.353   4.806   4.596 -0.1964  0.0977 -0.0494
  159ODE      C  792   5.742   4.683   4.801  0.2439 -0.1870  0.2168
  159ODE      D  793   6.174   4.698   4.741  0.2885 -0.0179  0.1332
  159ODE      C  794   6.179   4.585   4.288  0.1424  0.0782  0.1958
  159ODE      C  795   6.481   4.280   4.109  0.1769  0.4704 -0.0191
  160ODE      C  796   0.404   4.322   6.741  0.2468 -0.0686 -0.0214
  160ODE      C  797   0.147   4.543   6.898 -0.2628  0.0547 -0.0100
  160ODE      D  798  -0.101   4.760   7.185  0.2546  0.0931 -0.1589
  160ODE      C  799  -0.150   5.218   7.172 -0.2125 -0.0081  0.2150
  160ODE      C  800  -0.296   5.660   7.335 -0.0814 -0.0675 -0.0589
  161ODE      C  801   3.868   4.674   0.524 -0.0479 -0.0949  0.0675
  161ODE      C  802   4.128   5.061   0.489 -0.1400  0.2031 -0.0057
  161ODE      D  803   4.296   5.442   0.485  0.2530  0.0137  0.2229
  161ODE      C  804   4.333   5.653   0.089  0.1499  0.3403  0.0435
  161ODE      C  805   4.351   6.048   0.071 -0.0735 -0.3135 -0.1822
  162ODE      C  806   2.062   2.532   2.094 -0.0271  0.1004  0.1821
  162ODE      C  807   2.232   2.927   2.039 -0.1059  0.0831  0.1182
  162ODE      D  808   1.883   3.182   2.132 -0.0767  0.0126  0.2405
  162ODE      C  809   1.909   3.214   2.616 -0.3497 -0.3186 -0.0230
  162ODE      C  810   2.026   2.934   2.954  0.0227  0.0031  0.2701
  163ODE      C  811   2.581   7.087   5.176  0.0212  0.1151 -0.2445
  163ODE      C  812   2.492   7.191   4.774 -0.0606  0.1969  0.0658
  163ODE      D  813   2.416   6.968   4.443 -0.0958  0.1107  0.1067
  163ODE      C  814   2.263   7.189   4.204  0.1347 -0.2103  0.0003
  163ODE      C  815   2.214   7.586   3.989  0.0788  0.0531 -0.1273
  164ODE      C  816   3.860   3.812   4.854  0.0838 -0.2462 -0.1889
  164ODE      C  817   3.796   3.924   4.337  0.2251 -0.0780  0.1124
  164ODE      D  818   3.689   3.935   3.848 -0.0156  0.2928 -0.0678
  164ODE      C  819   3.607   3.515   3.633 -0.0616  0.1445  0.1684
  164ODE      C  820   3.392   3.259   3.355 -0.1372  0.4017 -0.2147
  165ODE      C  821   8.606   6.777   6.209  0.3036 -0.2224  0.2525
  165ODE      C  822   8.806   7.045   6.459  0.0043  0.0010  0.1365
  165ODE      D  823   9.002   7.513   6.625  0.0505 -0.3386 -0.0699
  165ODE      C  824   9.026   7.608   7.083 -0.1477  0.3901 -0.0888
  165ODE      C  825   8.984   8.036   7.348  0.1276  0.1522 -0.0215
  166ODE      C  826   8.170   5.308   4.943  0.0831 -0.0505 -0.2296
  166ODE      C  827   7.826   5.587   4.969  0.1883 -0.0379 -0.1073
  166ODE      D  828   7.817   6.087   4.806  0.0419  0.1627 -0.2265
  166ODE      C  829   7.618   6.378   5.056 -0.1063  0.1320  0.0607
  166ODE      C  830   7.666   6.744   5.265 -0.0484  0.0556  0.3026
  167ODE      C  831   1.225   6.057   1.053 -0.2998  0.0631  0.1048
  167ODE      C  832   1.002   5.686   1.268 -0.1007  0.0543  0.0897
  167ODE      D  833   0.933   5.294   1.119  0.4056 -0.1099 -0.1234
  167ODE      C  834   0.794   4.971   1.385 -0.0779  0.1282  0.0053
  167ODE      C  835   1.009   4.509   1.506 -0.0616  0.0005  0.0851
  168ODE      C  836   9.176   0.755   0.668  0.0407  0.2233  0.2148
  168ODE      C  837   9.293   1.088   0.489  0.2216 -0.0356 -0.1919
  168ODE      D  838   9.623   1.340   0.305 -0.3040  0.1195 -0.0125
  168ODE      C  839   9.804   1.709   0.173 -0.0993  0.0033 -0.0045
  168ODE      C  840   9.513   2.123   0.330  0.1279 -0.0041  0.1512
  169ODE      C  841   5.764   3.628   1.472 -0.1226 -0.4616 -0.2795
  169ODE      C  842   5.383   3.650   1.161  0.0120 -0.2101  0.2108
  169ODE      D  843   5.000   3.464   1.004  0.1108 -0.0932 -0.0467
  169ODE      C  844   4.602   3.618   0.939 -0.2684 -0.2137 -0.3063
  169ODE      C  845   4.459   3.995   1.045 -0.0727  0.0683 -0.0540
  170ODE      C  846   4.228   3.687   2.299 -0.3215 -0.1043 -0.0636
  170ODE      C  847   4.590   3.587   2.303 -0.5549 -0.2343 -0.2465
  170ODE      D  848   5.087   3.593   2.275  0.1150  0.1098 -0.0553
  170ODE      C  849   5.207   3.871   2.714 -0.3986  0.1006  0.1508
  170ODE      C  850   5.028   3.690   3.089 -0.1678 -0.0228  0.1256
  171ODE      C  851   6.900   5.184   3.017  0.0362 -0.0709 -0.1534
  171ODE      C  852   6.783   4.743   2.952 -0.5859  0.1210  0.2209
  171ODE      D  853   6.584   4.445   3.188  0.2050  0.0347 -0.0589
  171ODE      C  854   6.791   4.074   3.295  0.1684 -0.0489  0.1899
  171ODE      C  855   6.935   3.724   3.375 -0.0210 -0.0587 -0.0199
  172ODE      C  856   3.876   4.329   4.026 -0.1429 -0.2234 -0.0155
  172ODE      C  857   4.103   4.494   4.384  0.0647  0.5492  0.2670
  172ODE      D  858   4.136   4.682   4.763  0.2013  0.0055  0.0016
  172ODE      C  859   3.829   4.818   5.003  0.1046 -0.2878 -0.0131
  172ODE      C  860   3.491   4.649   5.017 -0.0248  0.5165  0.1846
  173ODE      C  861   6.681   5.527   4.759 -0.0706 -0.1318 -0.0356
  173ODE      C  862   6.841   5.195   4.533  0.3572 -0.2049  0.2844
  173ODE      D  863   7.124   4.912   4.431 -0.1772  0.1515 -0.3284
  173ODE      C  864   7.424   4.839   4.715 -0.1875 -0.0524  0.0914
  173ODE      C  865   7.343   4.767   5.217  0.1588 -0.1100  0.0378
  174ODE      C  866   8.382   6.171   6.565  0.0001  0.0207 -0.0695
  174ODE      C  867   8.501   6.537   6.714  0.0373 -0.3212  0.0392
  174ODE      D  868   8.378   6.931   6.649  0.2422  0.1061  0.3291
  174ODE      C  869   8.149   7.014   6.315  0.2194 -0.1144  0.0153
  174ODE      C  870   8.033   6.786   6.009 -0.2400  0.2033  0.1878
  175ODE      C  871   7.043   1.044   0.705 -0.0136 -0.1267 -0.3340
  175ODE      C  872   6.596   0.942   0.754  0.0817  0.1690  0.2742
  175ODE      D  873   6.237   1.143   0.676 -0.1666  0.3333  0.1685
  175ODE      C  874   6.164   1.504   0.641 -0.2316 -0.1496 -0.0855
  175ODE      C  875   6.369   1.846   0.449  0.0036 -0.4342 -0.0762
  176ODE      C  876   9.114   2.786   7.178 -0.0090 -0.0686 -0.2723
  176ODE      C  877   9.376   2.567   7.267 -0.4462 -0.0340  0.1914
  176ODE      D  878   9.389   2.567   7.714  0.0334  0.4863  0.2968
  176ODE      C  879   9.819   2.567   7.873 -0.0348 -0.0165 -0.4161
  176ODE      C  880  10.157   2.747   7.885  0.2333 -0.1037 -0.2724
  177ODE      C  881   1.958   1.772   7.199  0.0281 -0.0886 -0.0331
  177ODE      C  882   1.615   1.754   7.468  0.1921  0.2022  0.0883
  177ODE      D  883   1.251   1.540   7.306 -0.2609  0.3696  0.2386
  177ODE      C  884   1.011   1.282   7.025 -0.0976  0.1696  0.1319
  177ODE      C  885   1.045   1.040   6.678 -0.6028 -0.1422  0.3806
  178ODE      C  886   3.227   4.565   2.168  0.0916  0.2673 -0.0200
  178ODE      C  887   3.478   4.337   2.312 -0.2347 -0.0433  0.0001
  178ODE      D  888   3.615   4.128   2.595 -0.1309 -0.0360 -0.0060
  178ODE      C  889   4.084   4.121   2.542 -0.1345 -0.1195  0.1716
  178ODE      C  890   4.374   4.324   2.524  0.0567 -0.2706  0.1763
  179ODE      C  891   0.811   6.823   5.373 -0.4156  0.1126 -0.0379
  179ODE      C  892   0.703   6.973   4.926 -0.1271 -0.2001 -0.1564
  179ODE      D  893   0.893   6.743   4.607 -0.0404  0.1307 -0.3182
  179ODE      C  894   1.171   6.957   4.403  0.1374 -0.0736  0.0720
  179ODE      C  895   1.642   6.965   4.298  0.1748 -0.5056  0.1151
  180ODE      C  896   3.718   3.947   2.096  0.0702  0.2678 -0.0205
  180ODE      C  897   3.473   4.068   1.782 -0.2554 -0.3038  0.2734
  180ODE      D  898   3.227   3.989   1.430 -0.0987 -0.1299  0.2214
  180ODE      C  899   2.825   3.805   1.427  0.2694 -0.0822  0.2391
  180ODE      C  900   2.429   3.768   1.294  0.0747  0.3079  0.3170
  181ODE      C  901   6.942   5.525   2.613 -0.1661 -0.0735  0.0773
  181ODE      C  902   6.674   5.754   2.981 -0.4002 -0.0785 -0.0617
  181ODE      D  903   6.565   5.720   3.367  0.0935 -0.0095 -0.1808
  181ODE      C  904   6.361   6.128   3.261 -0.2674  0.2215 -0.0211
  181ODE      C  905   6.351   6.592   3.358 -0.3851  0.0884 -0.2000
  182ODE      C  906   0.934   5.324   6.607  0.0964  0.1268  0.0649
  182ODE      C  907   0.772   5.266   7.056 -0.3335  0.4489 -0.2507
  182ODE      D  908   0.603   5.168   7.528  0.1043  0.1879  0.3528
  182ODE      C  909   0.213   4.880   7.539  0.1143  0.0540 -0.1142
  182ODE      C  910   0.089   4.358   7.466 -0.1776  0.0094 -0.1489
  183ODE      C  911   2.892   1.959   5.970 -0.2170 -0.0294  0.2167
  183ODE      C  912   3.273   2.028   5.996  0.0765 -0.0244  0.0359
  183ODE      D  913   3.550   1.971   5.812  0.0726  0.1806 -0.4123
  183ODE      C  914   3.949   1.687   5.840 -0.1993 -0.1742 -0.1872
  183ODE      C  915   4.178   1.388   5.851 -0.0891 -0.0200  0.0860
  184ODE      C  916   4.397   2.663   4.039  0.0562  0.0535  0.3358
  184ODE      C  917   4.207   3.044   3.996  0.1350  0.2212 -0.1778
  184ODE      D  918   4.024   3.170   3.629  0.2179  0.1902  0.0180
  184ODE      C  919   3.752   2.939   3.366 -0.0654 -0.2344 -0.1184
  184ODE      C  920   3.617   2.560   3.341  0.2054  0.0142  0.4128
  185ODE      C  921   3.862   1.757   4.068  0.1534  0.1926  0.0095
  185ODE      C  922   3.471   2.034   4.189 -0.1493  0.0821  0.2192
  185ODE      D  923   3.150   2.320   4.032 -0.1722  0.0597  0.0290
  185ODE      C  924   2.636   2.425   4.019 -0.0326  0.1966 -0.2971
  185ODE      C  925   2.458   2.858   4.056 -0.2127  0.0137 -0.2237
  186ODE      C  926   8.060   1.013   0.379  0.0067 -0.3114 -0.1795
  186ODE      C  927   7.694   0.772   0.393  0.0413 -0.0618 -0.0521
  186ODE      D  928   7.386   0.406   0.460  0.0506 -0.0721 -0.4441
  186ODE      C  929   7.326   0.014   0.816  0.0681 -0.0884 -0.2565
  186ODE      C  930   7.398  -0.307   1.070 -0.0147 -0.0985  0.3275
  187ODE      C  931   8.641   1.886   4.751 -0.1940 -0.1657 -0.0318
  187ODE      C  932   8.364   1.699   4.498 -0.0080  0.1528 -0.0342
  187ODE      D  933   8.048   1.463   4.242 -0.0239  0.2761  0.1849
  187ODE      C  934   7.872   1.607   3.890 -0.0434  0.0408 -0.0323
  187ODE      C  935   7.472   1.964   3.918 -0.0399 -0.2748 -0.0157
  188ODE      C  936   4.030   2.742   2.300 -0.0009 -0.2330  0.1610
  188ODE      C  937   3.814   2.431   2.562 -0.1405  0.2560  0.1108
  188ODE      D  938   3.711   2.157   2.878 -0.2880 -0.0124  0.0600
  188ODE      C  939   3.429   2.159   3.111  0.0321 -0.1286  0.4087
  188ODE      C  940   3.150   1.898   3.379 -0.0065  0.0643  0.2040
  189ODE      C  941   3.716   0.950   3.579 -0.3081  0.0025 -0.2937
  189ODE      C  942   3.821   1.353   3.458 -0.0337 -0.0994 -0.0099
  189ODE      D  943   4.129   1.700   3.546  0.0878 -0.1316 -0.0090
  189ODE      C  944   4.056   2.128   3.799 -0.0646 -0.0597  0.1059
  189ODE      C  945   4.006   2.342   4.159  0.1389  0.0405 -0.2689
  190ODE      C  946   2.900   2.230   4.501 -0.0880 -0.0805 -0.1088
  190ODE      C  947   3.176   2.525   4.673 -0.1629  0.0273  0.0758
  190ODE      D  948   3.203   2.524   5.140  0.1017 -0.2238  0.1737
  190ODE      C  949   3.510   2.782   5.314 -0.0369 -0.1350 -0.0272
  190ODE      C  950   3.693   3.048   5.638 -0.0602  0.3348  0.0645
  191ODE      C  951   4.025   6.823   6.641  0.0534 -0.1928  0.0340
  191ODE      C  952   3.654   7.035   6.725 -0.3609  0.0262 -0.1906
  191ODE      D  953   3.483   7.280   6.921  0.0396 -0.3281 -0.3084
  191ODE      C  954   3.289   7.718   6.959  0.0248 -0.1437 -0.1167
  191ODE      C  955   3.056   7.921   7.320 -0.2085 -0.1229 -0.0974
  192ODE      C  956   2.410   0.004   6.186  0.2435 -0.0743 -0.0644
  192ODE      C  957   2.811   0.108   5.989  0.1248 -0.1706 -0.1723
  192ODE      D  958   3.238  -0.034   5.908  0.0789 -0.0097 -0.1797
  192ODE      C  959   3.372  -0.215   6.174  0.2017  0.0257  0.2639
  192ODE      C  960   3.582  -0.531   6.385 -0.1242  0.0299 -0.1505
  193ODE      C  961   0.408   5.268   3.969  0.1121 -0.1075 -0.0906
  193ODE      C  962   0.241   5.502   3.684 -0.3098 -0.0317 -0.1508
  193ODE      D  963   0.105   5.396   3.263 -0.4204 -0.0853 -0.0113
  193ODE      C  964   0.338   5.036   3.117  0.2121  0.0925  0.0014
  193ODE      C  965   0.779   5.005   3.064 -0.0340 -0.1688 -0.1383
  194ODE      C  966   3.713   4.347   5.589 -0.1724 -0.1297  0.2521
  194ODE      C  967   3.549   4.759   5.700  0.3998 -0.1973  0.0324
  194ODE      D  968   3.129   4.731   5.753  0.4945 -0.2124  0.1229
  194ODE      C  969   2.825   4.968   5.517 -0.3080 -0.0449 -0.0423
  194ODE      C  970   2.583   5.296   5.262  0.1042 -0.0117 -0.0155
  195ODE      C  971   3.316   3.513   5.417  0.0239  0.1332  0.2066
  195ODE      C  972   3.254   3.619   5.000 -0.0172 -0.1997 -0.0409
  195ODE      D  973   3.390   3.908   4.649  0.2086 -0.2525 -0.1439
  195ODE      C  974   3.189   4.145   4.260 -0.0643 -0.0897  0.0196
  195ODE      C  975   3.118   4.245   3.871  0.1412 -0.2288 -0.0059
  196ODE      C  976   0.564   5.970   5.607 -0.0480  0.1116  0.0089
  196ODE      C  977   0.622   5.992   5.159  0.2336 -0.0541 -0.0979
  196ODE      D  978   0.817   6.135   4.826 -0.0794  0.0476 -0.1079
  196ODE      C  979   1.259   5.999   4.903  0.3729  0.0095 -0.4973
  196ODE      C  980   1.639   6.036   4.620 -0.2789 -0.0447 -0.2211
  197ODE      C  981   4.794   6.360   4.202 -0.1437  0.0256 -0.0536
  197ODE      C  982   4.635   6.516   3.796  0.1153  0.3031  0.1439
  197ODE      D  983   4.395   6.705   3.484 -0.2170  0.2088 -0.4326
  197ODE      C  984   4.532   6.737   3.144 -0.0652 -0.1301  0.1997
  197ODE      C  985   4.848   6.843   2.906 -0.1062 -0.0194  0.2442
  198ODE      C  986   0.711   1.728   5.268  0.1204  0.0609  0.1275
  198ODE      C  987   0.411   1.545   5.536  0.2811  0.2245  0.1191
  198ODE      D  988   0.040   1.596   5.835  0.4735  0.0652 -0.0543
  198ODE      C  989   0.146   1.912   6.034  0.0027 -0.1488 -0.2477
  198ODE      C  990   0.167   2.120   6.414 -0.0093  0.0386  0.2413
  199ODE      C  991   0.109   4.295   5.409  0.1092 -0.1507 -0.0328
  199ODE      C  992  -0.061   4.437   5.000  0.1747 -0.1677 -0.0244
  199ODE      D  993  -0.147   4.372   4.567  0.3328  0.1513 -0.1868
  199ODE      C  994  -0.024   4.564   4.130  0.1448 -0.0920 -0.1417
  199ODE      C  995   0.119   4.658   3.708  0.1792  0.1898  0.0654
  200ODE      C  996   0.360   0.398   4.292 -0.3036 -0.2151  0.1323
  200ODE      C  997   0.429   0.838   4.157 -0.0081  0.1635  0.0870
  200ODE      D  998   0.160   1.129   3.960 -0.1300 -0.2059 -0.0408
  200ODE      C  999   0.113   1.458   4.279 -0.3978 -0.0889 -0.1953
  200ODE      C 1000  -0.202   1.804   4.323  0.1355  0.0575 -0.0954
  201ODE      C 1001   4.639   0.576   2.788  0.1843 -0.0126 -0.0417
  201ODE      C 1002   4.764   0.407   3.186  0.0510  0.0076  0.0968
  201ODE      D 1003   4.910  -0.036   3.246  0.1926 -0.1138  0.0473
  201ODE      C 1004   4.997  -0.483   3.413  0.0036  0.1132  0.3927
  201ODE      C 1005   5.028  -0.980   3.554 -0.0986 -0.1719  0.3036
  202ODE      C 1006   1.673   7.082   2.735  0.0169  0.6956  0.0511
  202ODE      C 1007   1.268   7.107   2.526 -0.4599  0.0024 -0.0101
  202ODE      D 1008   1.279   7.106   2.036 -0.0809  0.1251 -0.2003
  202ODE      C 1009   1.003   7.282   1.776  0.2005 -0.3973 -0.0480
  202ODE      C 1010   0.573   7.297   1.728 -0.2417  0.1980  0.0723
  203ODE      C 1011   0.086   4.668   5.760  0.1815 -0.1651  0.0336
  203ODE      C 1012  -0.053   5.042   5.893  0.1145 -0.1512  0.1186
  203ODE      D 1013  -0.184   5.508   5.866 -0.1868 -0.1052  0.0157
  203ODE      C 1014  -0.254   5.749   6.172 -0.2928 -0.1834 -0.1073
  203ODE      C 1015  -0.036   5.834   6.492 -0.2975  0.1351 -0.0722
  204ODE      C 1016   2.174   4.371   5.119 -0.1684  0.0475  0.1528
  204ODE      C 1017   2.440   4.000   5.160 -0.0967 -0.2184 -0.1574
  204ODE      D 1018   2.534   3.616   4.928 -0.1175  0.0732  0.0206
  204ODE      C 1019   2.173   3.293   5.004 -0.0098  0.1168  0.0897
  204ODE      C 1020   1.812   2.995   4.947  0.2605 -0.1580 -0.2222
  205ODE      C 1021   1.946   0.003   4.717 -0.1848  0.2834 -0.2528
  205ODE      C 1022   2.169   0.313   5.007 -0.0666  0.0418  0.0353
  205ODE      D 1023   2.339   0.313   5.398 -0.0288  0.2728  0.1877
  205ODE      C 1024   2.745   0.284   5.460  0.3077  0.0969 -0.0640
  205ODE      C 1025   3.152   0.154   5.458  0.2024 -0.0206 -0.2189
  206ODE      C 1026   6.452   5.626   0.145  0.0111  0.0632 -0.0071
  206ODE      C 1027   6.897   5.856   0.170 -0.1192  0.1069 -0.1617
  206ODE      D 1028   7.347   6.003   0.031 -0.0383  0.0568 -0.1157
  206ODE      C 1029   7.637   5.897   0.399  0.1851 -0.1639 -0.2525
  206ODE      C 1030   7.749   5.955   0.902  0.0661 -0.3467 -0.1460
  207ODE      C 1031   7.152   0.317   6.496  0.0306  0.4586  0.1433
  207ODE      C 1032   6.743   0.309   6.720  0.0198  0.0374  0.1259
  207ODE      D 1033   6.429   0.198   6.992 -0.1635  0.2278 -0.0330
  207ODE      C 1034   6.579   0.155   7.400 -0.0148 -0.0708  0.1838
  207ODE      C 1035   6.997   0.058   7.545 -0.3165  0.1335  0.0868
  208ODE      C 1036   4.050   0.040   6.999 -0.0408  0.3055  0.1398
  208ODE      C 1037   4.420  -0.178   6.861  0.2609 -0.0132  0.0420
  208ODE      D 1038   4.536  -0.501   6.546 -0.2144 -0.1835 -0.0513
  208ODE      C 1039   4.819  -0.762   6.726  0.3118  0.0255 -0.0464
  208ODE      C 1040   5.209  -0.858   6.915  0.3024  0.2395 -0.0610
  209ODE      C 1041   7.700   4.869   4.180  0.0961  0.1629 -0.0091
  209ODE      C 1042   7.909   4.508   3.949  0.2669 -0.2134  0.0921
  209ODE      D 1043   8.206   4.432   3.688 -0.0770 -0.0994 -0.0166
  209ODE      C 1044   8.255   4.095   3.462 -0.2145 -0.1036  0.2392
  209ODE      C 1045   8.664   3.929   3.223 -0.1156 -0.1893 -0.0182
  210ODE      C 1046   5.505   6.039   3.697 -0.2513  0.1820  0.0882
  210ODE      C 1047   5.733   6.076   3.344 -0.0003 -0.0456  0.1709
  210ODE      D 1048   5.919   6.489   3.214 -0.3757  0.3557  0.1657
  210ODE      C 1049   5.969   6.863   3.482 -0.0823  0.0114 -0.0070
  210ODE      C 1050   5.810   7.133   3.767 -0.2067  0.1097  0.1618
  211ODE      C 1051   4.956   1.201   0.430  0.1041 -0.1267  0.4194
  211ODE      C 1052   5.342   1.465   0.571 -0.0855  0.0760 -0.0867
  211ODE      D 1053   5.745   1.824   0.590 -0.2178 -0.2004  0.0607
  211ODE      C 1054   6.092   1.972   0.808 -0.0965 -0.2855 -0.0484
  211ODE      C 1055   6.251   2.194   1.174 -0.0007  0.2434  0.0520
  212ODE      C 1056   5.757   1.946   1.623 -0.2470  0.1218 -0.1611
  212ODE      C 1057   6.226   1.841   1.520  0.1074 -0.0131  0.0187
  212ODE      D 1058   6.545   2.057   1.620 -0.2209 -0.1603  0.0545
  212ODE      C 1059   6.813   2.065   1.158  0.2282 -0.2472  0.0355
  212ODE      C 1060   6.849   2.073   0.728 -0.1722  0.0614 -0.0900
  213ODE      C 1061   2.018   3.220   6.183  0.0911 -0.0486 -0.0616
  213ODE      C 1062   1.722   2.996   6.192 -0.2008  0.2630  0.1145
  213ODE      D 1063   1.654   2.561   6.328 -0.1927  0.0605  0.2232
  213ODE      C 1064   1.611   2.335   6.622 -0.2116  0.3469 -0.1130
  213ODE      C 1065   1.333   2.449   6.890 -0.0163  0.1299 -0.2515
  214ODE      C 1066   2.909   5.636   5.078  0.0081  0.0973 -0.0941
  214ODE      C 1067   2.491   5.765   5.095  0.0050  0.2425  0.0485
  214ODE      D 1068   2.369   6.254   5.125  0.3668  0.0417  0.2948
  214ODE      C 1069   1.875   6.319   5.013 -0.3338 -0.0883  0.3875
  214ODE      C 1070   1.566   6.258   5.265 -0.2265 -0.1106 -0.1458
  215ODE      C 1071   5.831   4.712   1.050  0.1253  0.0386 -0.0497
  215ODE      C 1072   5.937   4.398   0.872 -0.1007 -0.1001  0.1337
  215ODE      D 1073   5.874   4.052   1.124  0.1179 -0.1365  0.2341
  215ODE      C 1074   6.268   3.791   1.252  0.0039 -0.2801  0.2908
  215ODE      C 1075   6.466   3.566   0.914 -0.3144 -0.0560 -0.0498
  216ODE      C 1076   3.043   6.126   6.487 -0.0184 -0.3963  0.2187
  216ODE      C 1077   3.366   6.245   6.751  0.0388  0.2248  0.1860
  216ODE      D 1078   3.699   6.496   6.910  0.4778 -0.1113 -0.1607
  216ODE      C 1079   3.933   6.246   7.160  0.1029 -0.0995  0.0199
  216ODE      C 1080   3.912   6.115   7.477 -0.0474  0.0312  0.0621
  217ODE      C 1081   6.578   3.219   2.768  0.1869  0.1602  0.1780
  217ODE      C 1082   6.866   2.734   2.771  0.2380 -0.1473 -0.2525
  217ODE      D 1083   7.390   2.730   2.870 -0.0038  0.0214  0.2309
  217ODE      C 1084   7.504   3.118   2.967  0.3899  0.0167  0.4182
  217ODE      C 1085   7.678   3.317   3.391  0.0341  0.1785 -0.0477
  218ODE      C 1086   6.044   5.445   2.279  0.1239  0.1261  0.1624
  218ODE      C 1087   5.588   5.571   2.199 -0.0919  0.0889 -0.1615
  218ODE      D 1088   5.210   5.654   1.936 -0.1859  0.0820  0.3993
  218ODE      C 1089   5.232   5.627   1.456 -0.2500  0.0843 -0.2973
  218ODE      C 1090   5.403   5.260   1.287  0.1880 -0.3325  0.1489
  219ODE      C 1091   3.700   1.865   1.745 -0.2449  0.5123 -0.1470
  219ODE      C 1092   4.106   1.895   2.098 -0.0682 -0.2460 -0.1227
  219ODE      D 1093   4.479   1.799   2.230 -0.0236  0.1242  0.0458
  219ODE      C 1094   4.745   2.051   2.413  0.1327 -0.0325 -0.0379
  219ODE      C 1095   4.931   2.003   2.790  0.0726 -0.0995 -0.2507
  220ODE      C 1096   8.467   6.389   5.011 -0.0863  0.2969  0.1652
  220ODE      C 1097   8.119   6.485   4.852  0.0925 -0.3569 -0.3015
  220ODE      D 1098   7.807   6.831   4.799 -0.1433 -0.2471  0.0144
  220ODE      C 1099   7.522   6.932   4.596  0.1265  0.0661  0.1324
  220ODE      C 1100   7.112   6.933   4.797 -0.1164 -0.1901 -0.2911
  221ODE      C 1101   4.567   6.730   0.236  0.1168  0.1811  0.2378
  221ODE      C 1102   4.825   6.882   0.572 -0.0614  0.1750  0.2852
  221ODE      D 1103   5.137   7.114   0.577 -0.1621  0.1487 -0.0722
  221ODE      C 1104   5.102   7.545   0.715  0.1941  0.2359  0.0430
  221ODE      C 1105   5.333   7.963   0.962  0.1895  0.0800  0.0636
  222ODE      C 1106   0.798   5.921   2.718 -0.1393 -0.0998  0.1158
  222ODE      C 1107   0.982   5.491   2.854 -0.0089  0.0228 -0.1497
  222ODE      D 1108   1.280   5.184   3.000 -0.2253 -0.2402 -0.0649
  222ODE      C 1109   1.253   4.861   3.173  0.2066 -0.3050 -0.1696
  222ODE      C 1110   0.999   4.547   3.073 -0.1078  0.1751  0.1415
  223ODE      C 1111   0.523   4.405   0.020  0.1137  0.1810  0.0830
  223ODE      C 1112   0.718   4.126  -0.182 -0.2062  0.3136  0.1279
  223ODE      D 1113   1.119   3.757  -0.092  0.1583  0.0124 -0.1522
  223ODE      C 1114   1.079   3.359   0.073  0.0316  0.1877  0.0164
  223ODE      C 1115   1.079   2.878   0.260 -0.1512  0.3755 -0.0232
  224ODE      C 1116   4.512   4.078   3.151 -0.2395  0.3589 -0.0202
  224ODE      C 1117   4.628   3.850   2.733  0.2029 -0.0907 -0.0544
  224ODE      D 1118   4.783   4.050   2.353 -0.1038  0.1686 -0.2037
  224ODE      C 1119   4.463   4.080   2.123  0.1313 -0.2853  0.0397
  224ODE      C 1120   4.036   4.294   2.145 -0.1228 -0.1707 -0.0160
  225ODE      C 1121   3.632   5.434   4.620 -0.0561  0.0891 -0.2736
  225ODE      C 1122   3.453   5.692   4.877  0.1478  0.1283  0.0631
  225ODE      D 1123   3.360   5.896   5.179  0.3595  0.1251 -0.1351
  225ODE      C 1124   3.328   5.558   5.371 -0.0354  0.0153  0.0711
  225ODE      C 1125   3.289   5.070   5.361  0.1588 -0.2983  0.0348
  226ODE      C 1126   7.980   3.543   0.083  0.0108 -0.0714 -0.3377
  226ODE      C 1127   7.660   3.341   0.280  0.0628  0.0566  0.0206
  226ODE      D 1128   7.376   3.534   0.054 -0.0527  0.4948 -0.0953
  226ODE      C 1129   7.168   3.314  -0.296 -0.1438 -0.2462 -0.1617
  226ODE      C 1130   6.913   3.263  -0.668  0.2243  0.1106 -0.3048
  227ODE      C 1131   6.122   3.609   2.820 -0.2649  0.0504  0.0172
  227ODE      C 1132   5.936   3.466   3.215  0.2325  0.1129  0.4102
  227ODE      D 1133   5.678   3.452   3.547 -0.0325 -0.1681 -0.1724
  227ODE      C 1134   5.625   3.753   3.834 -0.0550  0.1108 -0.0047
  227ODE      C 1135   5.782   3.824   4.202 -0.0810 -0.0309 -0.2651
  228ODE      C 1136   6.960   4.375   4.127 -0.0480 -0.2188 -0.0452
  228ODE      C 1137   7.130   4.396   4.586 -0.1558  0.0220  0.1839
  228ODE      D 1138   7.316   4.370   4.971  0.0696 -0.0343  0.2486
  228ODE      C 1139   7.192   4.011   5.184  0.0074  0.0439 -0.2798
  228ODE      C 1140   7.452   3.787   5.536 -0.0609  0.3358 -0.1497
  229ODE      C 1141   3.347   5.611   0.320  0.0948 -0.1863 -0.0523
  229ODE      C 1142   3.520   5.925   0.559 -0.0100 -0.0624  0.2170
  229ODE      D 1143   3.694   6.224   0.833  0.5327  0.3123  0.3315
  229ODE      C 1144   4.009   6.505   0.816 -0.2942 -0.1551  0.0505
  229ODE      C 1145   4.403   6.682   0.836  0.1291 -0.1213  0.4097
  230ODE      C 1146   3.493   4.396   1.386 -0.4063  0.2725  0.2100
  230ODE      C 1147   3.360   4.667   1.689 -0.0573  0.0797 -0.2999
  230ODE      D 1148   3.109   5.015   1.906  0.0316  0.0645  0.1532
  230ODE      C 1149   2.698   5.171   1.811 -0.1356 -0.3051  0.3538
  230ODE      C 1150   2.388   4.920   1.664 -0.1097 -0.3672 -0.0640
  231ODE      C 1151   4.146   6.503   2.274  0.1239 -0.0689  0.1201
  231ODE      C 1152   4.336   6.725   1.901  0.4801 -0.1531  0.0353
  231ODE      D 1153   4.414   6.873   1.454  0.5032  0.0507  0.1088
  231ODE      C 1154   4.793   7.029   1.324 -0.1022 -0.1181 -0.4554
  231ODE      C 1155   5.030   6.960   1.054  0.0201  0.0245 -0.1054
  232ODE      C 1156   7.614   4.729   0.535  0.3841  0.0159 -0.0231
  232ODE      C 1157   7.429   4.470   0.845  0.3307  0.1492  0.2480
  232ODE      D 1158   7.226   4.100   0.820  0.2641  0.0066 -0.1338
  232ODE      C 1159   7.410   3.754   0.676 -0.3440  0.1524 -0.0377
  232ODE      C 1160   7.403   3.341   0.729 -0.0398  0.2695 -0.0932
  233ODE      C 1161   1.168   3.349   6.762 -0.1340  0.1163 -0.2029
  233ODE      C 1162   1.504   3.446   6.433  0.3515 -0.0406 -0.3029
  233ODE      D 1163   1.804   3.684   6.240 -0.1426 -0.1073 -0.2922
  233ODE      C 1164   2.234   3.623   6.364 -0.1415 -0.0174 -0.0018
  233ODE      C 1165   2.690   3.606   6.206 -0.0308  0.0211  0.0500
  234ODE      C 1166   1.137   4.762   2.693  0.0058  0.0858  0.1168
  234ODE      C 1167   0.741   5.022   2.568  0.0158 -0.2306 -0.1270
  234ODE      D 1168   0.324   5.165   2.528  0.1114 -0.2323 -0.0114
  234ODE      C 1169   0.070   4.887   2.712  0.2589 -0.0048 -0.1519
  234ODE      C 1170   0.018   4.539   2.536 -0.3098  0.0581 -0.0949
  235ODE      C 1171   6.178   3.337   3.738 -0.1673  0.0343 -0.5971
  235ODE      C 1172   6.042   3.355   4.287  0.1607 -0.1453 -0.0700
  235ODE      D 1173   5.674   3.269   4.571  0.1270  0.1944  0.0252
  235ODE      C 1174   5.174   3.322   4.403  0.0945  0.2184  0.0562
  235ODE      C 1175   4.937   3.379   3.941 -0.2625 -0.1976 -0.1063
  236ODE      C 1176   3.161   3.685   3.566  0.0471 -0.0200  0.0155
  236ODE      C 1177   3.527   3.726   3.121 -0.1297 -0.0615  0.0949
  236ODE      D 1178   3.513   3.642   2.768  0.1484  0.4242 -0.0900
  236ODE      C 1179   3.809   3.466   2.467 -0.0944  0.2838 -0.2576
  236ODE      C 1180   3.819   3.482   2.052 -0.0251  0.0284 -0.4175
  237ODE      C 1181   4.500   4.936   5.470 -0.2187 -0.2302 -0.1525
  237ODE      C 1182   4.323   5.122   5.827 -0.0334 -0.0867 -0.0199
  237ODE      D 1183   3.880   5.055   6.048  0.1643 -0.4136 -0.0024
  237ODE      C 1184   3.932   4.940   6.423 -0.2754  0.0832 -0.4999
  237ODE      C 1185   3.825   4.945   6.802  0.2068  0.2498  0.0109
  238ODE      C 1186   3.875   5.691   0.892 -0.1439  0.0143 -0.0344
  238ODE      C 1187   4.128   5.912   0.674  0.0150 -0.0879 -0.1681
  238ODE      D 1188   4.328   6.311   0.487  0.1101  0.2244  0.1489
  238ODE      C 1189   4.706   6.310   0.652 -0.1522 -0.2432  0.1098
  238ODE      C 1190   5.099   6.173   0.607  0.0644  0.3183  0.3199
  239ODE      C 1191   4.271   0.069   1.860 -0.0762  0.0495  0.3517
  239ODE      C 1192   4.066  -0.083   2.177 -0.2676 -0.0616  0.2064
  239ODE      D 1193   3.642  -0.262   1.959 -0.1903  0.0317 -0.2469
  239ODE      C 1194   3.487  -0.341   1.558 -0.1759  0.0255 -0.0848
  239ODE      C 1195   3.087  -0.541   1.523 -0.1323  0.3556 -0.0760
  240ODE      C 1196   7.027   1.536   6.644 -0.2843 -0.1920 -0.2721
  240ODE      C 1197   6.790   1.820   6.835 -0.2103 -0.1540 -0.0782
  240ODE      D 1198   6.284   2.009   6.811 -0.2106  0.0666 -0.4688
  240ODE      C 1199   5.976   1.892   6.582 -0.1250  0.6400  0.0536
  240ODE      C 1200   5.572   1.850   6.329  0.1495 -0.1323 -0.2078
  241ODE      C 1201   2.366   6.764   2.971  0.1147  0.2846 -0.4735
  241ODE      C 1202   2.341   7.050   2.618 -0.1271  0.1297  0.2562
  241ODE      D 1203   2.589   7.294   2.370  0.0808 -0.3581 -0.2743
  241ODE      C 1204   2.550   7.193   1.937 -0.2358  0.5183 -0.0062
  241ODE      C 1205   2.603   6.944   1.628  0.1201 -0.1403  0.0902
  242ODE      C 1206   0.281   2.989   5.356  0.1660  0.5007  0.1434
  242ODE      C 1207   0.075   2.566   5.329 -0.1835  0.0405  0.2073
  242ODE      D 1208  -0.034   2.229   5.034  0.2455  0.0277 -0.1237
  242ODE      C 1209   0.098   2.254   4.603  0.2160  0.0300  0.1669
  242ODE      C 1210   0.327   2.089   4.362 -0.2639 -0.1432  0.4364
  243ODE      C 1211   9.169   3.731   5.593  0.0985 -0.0183 -0.1531
  243ODE      C 1212   8.804   3.838   5.262 -0.2476 -0.1514 -0.2026
  243ODE      D 1213   8.421   3.721   5.118  0.0140 -0.0673  0.0365
  243ODE      C 1214   8.068   4.063   4.822  0.1062  0.1709 -0.2445
  243ODE      C 1215   7.686   4.291   4.670 -0.2462  0.2842  0.1236
  244ODE      C 1216   6.091   6.808   4.050 -0.2112  0.4831 -0.2759
  244ODE      C 1217   5.955   7.251   4.209 -0.1280  0.0375  0.1981
  244ODE      D 1218   5.684   7.604   4.198 -0.0445 -0.2307  0.1390
  244ODE      C 1219   5.354   7.467   3.896 -0.0331  0.0108  0.1694
  244ODE      C 1220   5.240   7.570   3.488  0.1621 -0.0739 -0.1869
  245ODE      C 1221   0.007   6.462   1.742 -0.1353 -0.1079 -0.3361
  245ODE      C 1222  -0.052   6.820   1.839 -0.0078  0.0032  0.1901
  245ODE      D 1223   0.095   7.203   1.649  0.1605 -0.1594 -0.1624
  245ODE      C 1224  -0.120   7.443   1.384  0.0884  0.0108 -0.0909
  245ODE      C 1225  -0.350   7.817   1.205 -0.0724 -0.0153  0.1445
  246ODE      C 1226   5.515   4.046   0.826  0.2004 -0.1763 -0.0705
  246ODE      C 1227   5.677   4.073   0.428 -0.0273  0.0825  0.4375
  246ODE      D 1228   5.615   4.349   0.133  0.3684 -0.1246 -0.0293
  246ODE      C 1229   5.139   4.473   0.001  0.0360  0.0758 -0.2021
  246ODE      C 1230   4.675   4.677  -0.051  0.1415 -0.1573 -0.0606
  247ODE      C 1231   0.760   3.814   3.423 -0.1748  0.1367  0.1161
  247ODE      C 1232   0.999   3.460   3.595 -0.0612  0.0422 -0.0886
  247ODE      D 1233   0.963   3.105   3.847  0.0596  0.1582 -0.0528
  247ODE      C 1234   1.320   3.031   4.194 -0.0855 -0.2538  0.1620
  247ODE      C 1235   1.381   3.094   4.704 -0.2483  0.1301  0.1033
  248ODE      C 1236   8.716   4.094   4.321 -0.0804 -0.1531 -0.0063
  248ODE      C 1237   9.070   4.269   4.066 -0.3718 -0.1500 -0.1045
  248ODE      D 1238   9.335   4.263   3.631  0.0265 -0.1055 -0.0844
  248ODE      C 1239   9.173   4.087   3.192 -0.2063  0.1433 -0.0770
  248ODE      C 1240   8.984   3.800   2.839 -0.0179 -0.2226  0.0555
  249ODE      C 1241   4.783   5.061   6.489  0.1012  0.0148 -0.3067
  249ODE      C 1242   4.745   5.190   6.922 -0.2047  0.4866 -0.2607
  249ODE      D 1243   4.527   5.197   7.298 -0.0643 -0.2050  0.2715
  249ODE      C 1244   4.608   4.874   7.582  0.2636  0.1841  0.1937
  249ODE      C 1245   4.668   4.497   7.859 -0.0537 -0.0025 -0.0892
  250ODE      C 1246   5.518   6.516   1.655  0.0972 -0.1783  0.2189
  250ODE      C 1247   5.855   6.711   1.844 -0.0759  0.1258 -0.1318
  250ODE      D 1248   6.239   6.923   1.937  0.0231  0.0739 -0.0808
  250ODE      C 1249   6.270   7.342   1.787 -0.0329 -0.1161 -0.2089
  250ODE      C 1250   6.210   7.721   1.626 -0.1366 -0.1882 -0.0481
  251ODE      C 1251   8.313   5.871   7.021  0.4052 -0.0912  0.3616
  251ODE      C 1252   8.487   5.665   6.660 -0.0225  0.1428 -0.0846
  251ODE      D 1253   8.836   5.606   6.343 -0.1188 -0.3356 -0.2887
  251ODE      C 1254   8.766   5.546   5.909  0.1328  0.0690  0.1974
  251ODE      C 1255   8.670   5.732   5.424 -0.2853  0.0169  0.1285
  252ODE      C 1256   5.777   1.502   5.951 -0.2087 -0.1304  0.1029
  252ODE      C 1257   5.922   1.053   6.008 -0.0806 -0.1722 -0.1672
  252ODE      D 1258   5.875   0.696   6.107  0.2506 -0.6236 -0.3278
  252ODE      C 1259   5.923   0.713   6.566 -0.1823 -0.0494 -0.0157
  252ODE      C 1260   5.956   0.435   6.881  0.0932  0.1002  0.1178
  253ODE      C 1261   3.861   3.181   1.093 -0.1478 -0.3255  0.3326
  253ODE      C 1262   3.558   3.406   0.958  0.0111 -0.0414  0.0955
  253ODE      D 1263   3.514   3.834   1.077 -0.1332 -0.1192 -0.3022
  253ODE      C 1264   3.921   4.162   0.957 -0.5348  0.0427  0.4581
  253ODE      C 1265   4.141   4.419   0.839 -0.2819 -0.1271  0.0021
  254ODE      C 1266   3.158   2.802   6.507 -0.1446  0.0191  0.0401
  254ODE      C 1267   3.260   2.379   6.400  0.0486  0.1469  0.1024
  254ODE      D 1268   3.356   1.886   6.549  0.0764 -0.0505 -0.3520
  254ODE      C 1269   3.113   1.624   6.297 -0.0828 -0.6587  0.3328
  254ODE      C 1270   2.781   1.407   6.109  0.0251  0.0581  0.0040
  255ODE      C 1271   2.361   2.004   6.864 -0.4448  0.1334 -0.0721
  255ODE      C 1272   2.040   2.013   6.728  0.1849  0.2121 -0.0138
  255ODE      D 1273   1.617   1.879   6.836  0.0833 -0.1484 -0.3494
  255ODE      C 1274   1.360   2.035   7.181 -0.1611 -0.1393  0.1591
  255ODE      C 1275   1.399   2.429   7.504 -0.0404  0.0355  0.1981
  256ODE      C 1276   4.800   0.759   2.147  0.1077 -0.0872 -0.0509
  256ODE      C 1277   5.127   0.484   2.366 -0.2872  0.1475  0.4612
  256ODE      D 1278   5.573   0.359   2.486 -0.0665 -0.2229 -0.2877
  256ODE      C 1279   5.693  -0.034   2.618 -0.0558 -0.0077 -0.0288
  256ODE      C 1280   6.004  -0.393   2.460  0.0122 -0.2054 -0.0756
  257ODE      C 1281   8.118   1.079   3.949  0.0348  0.0464 -0.0124
  257ODE      C 1282   8.064   1.012   4.329 -0.4349  0.2737 -0.0311
  257ODE      D 1283   8.217   1.319   4.680  0.1979 -0.0773  0.0150
  257ODE      C 1284   8.620   1.368   4.825  0.0523  0.0050 -0.1226
  257ODE      C 1285   8.867   1.674   5.148  0.0576  0.1633 -0.1898
  258ODE      C 1286   2.105   3.894   4.026  0.0440 -0.1543  0.2352
  258ODE      C 1287   2.139   4.271   4.285 -0.0925 -0.0283  0.3774
  258ODE      D 1288   2.392   4.624   4.307  0.2563 -0.0344  0.0681
  258ODE      C 1289   2.507   4.753   4.743  0.1856  0.0545 -0.1372
  258ODE      C 1290   2.835   4.894   5.026 -0.2674 -0.0345  0.4204
  259ODE      C 1291   6.420   6.058   6.386  0.1615  0.1876 -0.1128
  259ODE      C 1292   6.205   5.656   6.276 -0.0134  0.0027  0.1677
  259ODE      D 1293   6.171   5.271   5.982 -0.1368 -0.0557  0.2455
  259ODE      C 1294   6.624   4.990   5.870  0.0522  0.0498  0.1471
  259ODE      C 1295   7.003   4.816   5.977  0.2183 -0.0309 -0.1604
  260ODE      C 1296   2.443   5.890   3.939 -0.2795 -0.2353  0.1498
  260ODE      C 1297   2.419   5.508   3.741 -0.0393 -0.2621  0.1519
  260ODE      D 1298   2.501   5.292   3.367 -0.0262 -0.2327 -0.0232
  260ODE      C 1299   2.370   5.464   3.015 -0.0877 -0.0084  0.1702
  260ODE      C 1300   2.178   5.485   2.599 -0.1675 -0.0566  0.2482
  261ODE      C 1301   2.858   3.506   0.362  0.0053  0.5704  0.3628
  261ODE      C 1302   2.913   3.213   0.656 -0.1733 -0.0061  0.2009
  261ODE      D 1303   2.828   2.824   0.884  0.0741 -0.0159  0.2308
  261ODE      C 1304   2.989   2.412   0.787  0.0730 -0.1040  0.4552
  261ODE      C 1305   2.993   2.046   0.693 -0.0731 -0.3390 -0.1471
  262ODE      C 1306   8.019   1.669   3.420  0.3502  0.1162 -0.3089
  262ODE      C 1307   7.536   1.720   3.497  0.0746 -0.1184  0.2186
  262ODE      D 1308   7.062   1.814   3.577 -0.1288  0.1249 -0.0076
  262ODE      C 1309   7.002   2.118   3.843 -0.3806  0.0055  0.0124
  262ODE      C 1310   6.903   2.265   4.289 -0.0857 -0.1301  0.0246
  263ODE      C 1311   4.084   6.878   2.614  0.3688  0.0977 -0.2417
  263ODE      C 1312   4.050   6.848   3.150 -0.1686 -0.0001 -0.2585
  263ODE      D 1313   3.818   6.950   3.561 -0.0964  0.2507 -0.0231
  263ODE      C 1314   3.464   7.069   3.750 -0.1359  0.1954 -0.0634
  263ODE      C 1315   3.425   7.228   4.136  0.2491  0.1063 -0.2746
  264ODE      C 1316   2.437   2.566   1.748  0.1536 -0.0062  0.2554
  264ODE      C 1317   2.711   2.367   1.731  0.0047  0.3183  0.3051
  264ODE      D 1318   3.137   2.490   1.730 -0.0192  0.2169  0.0600
  264ODE      C 1319   3.484   2.200   1.466 -0.3292  0.0779 -0.3230
  264ODE      C 1320   3.793   2.501   1.178  0.3282 -0.2478  0.1395
  265ODE      C 1321   5.125   1.238   0.932 -0.2609 -0.0093  0.1721
  265ODE      C 1322   4.918   1.524   1.114  0.1059 -0.1092  0.3558
  265ODE      D 1323   4.968   1.920   1.178 -0.4400  0.0885  0.1758
  265ODE      C 1324   5.393   1.897   1.156  0.0516 -0.1708  0.0261
  265ODE      C 1325   5.794   1.803   1.110  0.2066  0.1079 -0.0210
  266ODE      C 1326   5.513   0.946   5.822 -0.0210 -0.0567  0.3893
  266ODE      C 1327   5.234   1.053   5.478 -0.0331  0.2367  0.0060
  266ODE      D 1328   4.772   0.955   5.494 -0.2676 -0.0970  0.0720
  266ODE      C 1329   4.616   0.562   5.411  0.0254  0.0677 -0.1002
  266ODE      C 1330   4.763   0.259   5.181 -0.2135  0.0944  0.0958
  267ODE      C 1331   7.391   4.286   5.840 -0.2595 -0.2883 -0.0341
  267ODE      C 1332   7.735   4.506   5.957  0.1815  0.0469  0.0370
  267ODE      D 1333   7.776   4.376   6.425  0.3182 -0.0965 -0.1848
  267ODE      C 1334   8.176   4.435   6.537  0.1226  0.1018 -0.3877
  267ODE      C 1335   8.538   4.134   6.784  0.2042 -0.0640 -0.0128
  268ODE      C 1336   1.411   6.912   6.164  0.0740 -0.0816  0.0200
  268ODE      C 1337   1.215   6.803   6.530 -0.1982  0.0908  0.4222
  268ODE      D 1338   0.873   6.956   6.732 -0.2430 -0.1223  0.1316
  268ODE      C 1339   0.922   7.002   7.175  0.0575 -0.0552  0.0103
  268ODE      C 1340   0.565   7.078   7.437 -0.1746 -0.2423 -0.0406
  269ODE      C 1341   4.707   1.876   4.436 -0.1778 -0.1642 -0.2207
  269ODE      C 1342   4.619   1.437   4.347 -0.0357  0.1321 -0.2881
  269ODE      D 1343   4.707   1.188   4.704  0.3519 -0.2872  0.3289
  269ODE      C 1344   5.120   1.195   4.877  0.1196 -0.1120  0.0889
  269ODE      C 1345   5.172   0.770   5.060  0.0546  0.0504 -0.2513
  270ODE      C 1346   1.266   5.154   6.162  0.3943 -0.4211  0.2743
  270ODE      C 1347   1.406   4.993   5.732  0.1562 -0.1245 -0.1011
  270ODE      D 1348   1.373   4.955   5.351 -0.0795  0.4435 -0.1154
  270ODE      C 1349   1.369   4.614   4.963 -0.1739 -0.0945  0.2247
  270ODE      C 1350   1.263   4.476   4.676  0.2147  0.1474  0.2739
  271ODE      C 1351   8.627   2.521   3.202 -0.0765  0.0594  0.0178
  271ODE      C 1352   8.901   2.804   3.325  0.1486 -0.1649  0.0651
  271ODE      D 1353   8.942   3.207   3.579  0.3622  0.0479  0.1597
  271ODE      C 1354   9.233   3.329   3.901  0.2821  0.0445  0.2416
  271ODE      C 1355   9.364   3.075   4.219 -0.0175  0.1413  0.1926
  272ODE      C 1356   2.052   7.073   5.252  0.0311  0.0455 -0.0783
  272ODE      C 1357   2.234   6.750   4.939  0.1386 -0.3548 -0.1204
  272ODE      D 1358   2.534   6.535   4.662  0.2200  0.0024  0.1032
  272ODE      C 1359   2.886   6.854   4.775 -0.1546  0.0021 -0.0478
  272ODE      C 1360   3.081   7.023   5.149  0.0737 -0.1019  0.1690
  273ODE      C 1361   5.445   2.604   3.862 -0.1404 -0.2216  0.2125
  273ODE      C 1362   5.008   2.435   4.005  0.1519  0.2266 -0.1258
  273ODE      D 1363   4.874   2.674   4.333  0.2372  0.0019  0.1726
  273ODE      C 1364   4.756   3.063   4.264  0.1790 -0.3454 -0.1934
  273ODE      C 1365   4.390   3.175   4.396  0.1941  0.1534 -0.0079
  274ODE      C 1366   0.430   1.246   7.041 -0.0404  0.1253 -0.2861
  274ODE      C 1367   0.680   1.377   6.543 -0.0152  0.1280 -0.3163
  274ODE      D 1368   1.002   1.219   6.183 -0.2283 -0.0597  0.1604
  274ODE      C 1369   1.335   1.045   6.134  0.1006  0.0592 -0.0954
  274ODE      C 1370   1.672   0.811   6.037  0.2314 -0.2611 -0.0062
  275ODE      C 1371   3.488   6.031   0.020 -0.2208  0.3898 -0.0137
  275ODE      C 1372   3.769   5.776  -0.108  0.1731 -0.3097 -0.0861
  275ODE      D 1373   4.134   5.846  -0.353 -0.2796  0.1992 -0.1996
  275ODE      C 1374   4.129   5.781  -0.855 -0.0516 -0.0939 -0.1110
  275ODE      C 1375   4.071   5.541  -1.238  0.2390  0.2333  0.1738
  276ODE      C 1376   7.558   2.277   0.563 -0.2387  0.2128 -0.1781
  276ODE      C 1377   7.804   1.894   0.550 -0.0576  0.1370 -0.0280
  276ODE      D 1378   8.199   1.888   0.276 -0.2941  0.1831 -0.0379
  276ODE      C 1379   8.561   2.225   0.397 -0.0848 -0.1573 -0.0541
  276ODE      C 1380   8.838   2.592   0.335  0.1979 -0.3026  0.0617
  277ODE      C 1381   4.246   3.629   3.399 -0.0015 -0.0112  0.1009
  277ODE      C 1382   4.693   3.798   3.486  0.1460  0.0497 -0.1140
  277ODE      D 1383   5.120   3.810   3.632  0.1955  0.1281  0.0050
  277ODE      C 1384   5.195   3.784   4.111  0.1626  0.0627  0.2425
  277ODE      C 1385   5.286   3.957   4.418 -0.2214 -0.1917 -0.1273
  278ODE      C 1386   6.204   1.820   4.435  0.0643 -0.0224  0.1006
  278ODE      C 1387   6.117   2.009   4.844  0.4856  0.0164  0.2258
  278ODE      D 1388   6.198   1.915   5.348 -0.3329 -0.2458 -0.0210
  278ODE      C 1389   5.867   1.578   5.456  0.1338 -0.2840  0.1306
  278ODE      C 1390   5.865   1.102   5.546  0.4567 -0.1218  0.0710
  279ODE      C 1391   1.173   4.252   4.098 -0.0899  0.1445  0.1810
  279ODE      C 1392   1.231   3.776   4.023  0.0145 -0.1382 -0.2188
  279ODE      D 1393   1.420   3.425   3.816  0.3217 -0.5296 -0.1152
  279ODE      C 1394   1.897   3.421   3.647 -0.4250 -0.1858 -0.1878
  279ODE      C 1395   2.025   3.767   3.461 -0.3466 -0.3003 -0.0407
  280ODE      C 1396   7.155   4.572   1.366 -0.0419 -0.1337  0.0122
  280ODE      C 1397   6.805   4.761   1.650 -0.1487  0.1061 -0.1183
  280ODE      D 1398   6.543   4.955   1.823 -0.1680  0.0286  0.1624
  280ODE      C 1399   6.281   4.963   2.031  0.0994  0.2709  0.1707
  280ODE      C 1400   6.040   4.623   2.085 -0.1218 -0.1884 -0.0013
  281ODE      C 1401   1.571   1.123   0.970 -0.3369 -0.1649  0.0309
  281ODE      C 1402   1.931   0.911   1.045  0.1081  0.4215 -0.1351
  281ODE      D 1403   1.957   0.466   0.911  0.1171 -0.2825  0.3674
  281ODE      C 1404   2.145   0.148   1.310 -0.0928 -0.1637 -0.0061
  281ODE      C 1405   2.152  -0.291   1.398  0.0836 -0.3144 -0.2355
  282ODE      C 1406   8.775   6.309   4.566  0.0449 -0.1732 -0.2668
  282ODE      C 1407   9.182   6.268   4.525  0.3876  0.0149  0.1939
  282ODE      D 1408   9.392   5.969   4.513 -0.0989  0.0590 -0.1368
  282ODE      C 1409   9.843   6.017   4.715 -0.1619 -0.2485 -0.1279
  282ODE      C 1410  10.134   5.700   4.794 -0.0217  0.1204 -0.2541
  283ODE      C 1411   2.925   2.162   6.695  0.1395  0.1530 -0.0243
  283ODE      C 1412   3.137   2.488   6.874  0.2043  0.2554  0.2127
  283ODE      D 1413   2.953   2.684   7.148  0.2753  0.1026 -0.0921
  283ODE      C 1414   2.985   2.698   7.557  0.1749  0.0563  0.2590
  283ODE      C 1415   3.305   2.919   7.834  0.0031  0.0494 -0.0662
  284ODE      C 1416   7.516   3.276   2.493  0.2843 -0.4086 -0.0528
  284ODE      C 1417   7.103   3.120   2.583  0.2997 -0.1612  0.1713
  284ODE      D 1418   6.756   3.028   2.351 -0.1472 -0.0270  0.0319
  284ODE      C 1419   6.776   2.898   1.863  0.2307 -0.0935 -0.1313
  284ODE      C 1420   6.687   2.568   1.617 -0.0031  0.3190 -0.0356
  285ODE      C 1421   2.452   1.971   1.701  0.3509 -0.0242  0.1238
  285ODE      C 1422   2.857   1.816   1.837  0.1634  0.1672 -0.1203
  285ODE      D 1423   3.229   2.034   2.025  0.3581 -0.2036  0.2952
  285ODE      C 1424   2.903   2.349   2.343 -0.3048 -0.0163 -0.0777
  285ODE      C 1425   2.603   2.669   2.286 -0.0385  0.1295 -0.1042
  286ODE      C 1426   7.330   2.912   5.889 -0.3428 -0.2261  0.0945
  286ODE      C 1427   7.699   2.939   6.110  0.1395 -0.2019  0.1837
  286ODE      D 1428   7.942   3.296   6.284 -0.1031  0.1415  0.2168
  286ODE      C 1429   8.374   3.508   6.275 -0.0892  0.1871  0.1157
  286ODE      C 1430   8.725   3.741   6.471 -0.0977 -0.0062 -0.2569
  287ODE      C 1431   5.036   4.901   5.488  0.0091 -0.0345 -0.1664
  287ODE      C 1432   5.093   4.466   5.359  0.2293  0.1953 -0.2482
  287ODE      D 1433   5.141   4.057   5.197  0.5444  0.1297  0.1915
  287ODE      C 1434   5.490   3.856   5.334 -0.1635 -0.5773  0.3777
  287ODE      C 1435   5.450   3.474   5.663  0.0517 -0.0862  0.2143
  288ODE      C 1436   4.836   2.164   1.912  0.2340 -0.1541 -0.1440
  288ODE      C 1437   4.959   2.435   1.469  0.1455 -0.1363 -0.1005
  288ODE      D 1438   4.810   2.500   1.124  0.0804  0.0910 -0.1970
  288ODE      C 1439   4.595   2.251   0.823  0.1609  0.5298  0.0551
  288ODE      C 1440   4.455   2.161   0.456 -0.0263  0.0142  0.0447
  289ODE      C 1441   6.728   4.839   6.918 -0.1036 -0.3569 -0.0772
  289ODE      C 1442   6.968   4.699   7.206  0.0886 -0.1449  0.0934
  289ODE      D 1443   7.082   4.719   7.684  0.1934 -0.0850  0.0774
  289ODE      C 1444   7.143   4.957   7.989 -0.0130  0.2630 -0.0305
  289ODE      C 1445   7.186   5.327   8.274 -0.3110 -0.1850 -0.1882
  290ODE      C 1446   5.474   1.689   2.826  0.3015  0.0678  0.0631
  290ODE      C 1447   5.234   1.693   2.396  0.1736  0.1777 -0.0713
  290ODE      D 1448   5.016   1.713   2.087 -0.1902 -0.2770 -0.3271
  290ODE      C 1449   4.832   1.342   2.014 -0.2159 -0.2762  0.3903
  290ODE      C 1450   4.445   1.172   2.239  0.3142  0.0424 -0.1394
  291ODE      C 1451   4.734   6.430   1.920  0.0054 -0.0249  0.0964
  291ODE      C 1452   4.923   6.615   1.569  0.0952 -0.0250 -0.0125
  291ODE      D 1453   4.780   6.448   1.175  0.0703 -0.1807  0.2768
  291ODE      C 1454   4.384   6.200   1.016  0.0485 -0.0682  0.1245
  291ODE      C 1455   4.042   5.952   1.243  0.0966 -0.0167  0.1146
  292ODE      C 1456   0.734   7.107   3.635 -0.2628  0.1708  0.0418
  292ODE      C 1457   0.605   6.643   3.659  0.1978 -0.2036  0.1105
  292ODE      D 1458   0.844   6.273   3.710 -0.1547  0.2045  0.2255
  292ODE      C 1459   1.023   6.222   4.024 -0.0382 -0.0941 -0.0900
  292ODE      C 1460   1.386   6.022   4.215 -0.0329  0.0033 -0.1257
  293ODE      C 1461   8.879   2.355   3.744  0.1536 -0.2001 -0.2391
  293ODE      C 1462   8.441   2.417   3.842 -0.0131  0.1788  0.3505
  293ODE      D 1463   8.252   2.452   4.170  0.1016 -0.2426  0.2620
  293ODE      C 1464   8.454   2.280   4.499  0.3380  0.1967  0.1880
  293ODE      C 1465   8.770   2.499   4.852 -0.0440 -0.2613  0.0256
  294ODE      C 1466   0.856   4.595   5.324 -0.0154 -0.0753 -0.0068
  294ODE      C 1467   0.628   4.606   5.615 -0.0383  0.1124 -0.0636
  294ODE      D 1468   0.502   4.737   6.011 -0.1222  0.1478  0.2250
  294ODE      C 1469   0.658   4.405   6.305 -0.0649  0.2054  0.3148
  294ODE      C 1470   0.937   4.398   6.618 -0.0662  0.4850 -0.0624
  295ODE      C 1471   2.570   7.074   3.484  0.2318  0.2683 -0.0167
  295ODE      C 1472   2.594   6.640   3.451 -0.0455 -0.2136 -0.2462
  295ODE      D 1473   2.661   6.216   3.386  0.2038  0.4127  0.4424
  295ODE      C 1474   2.370   5.816   3.340  0.1124 -0.2702  0.0278
  295ODE      C 1475   2.031   5.871   3.484 -0.2573  0.1083  0.0513
  296ODE      C 1476   6.821   1.617   1.353 -0.1086 -0.1744  0.0290
  296ODE      C 1477   6.731   1.132   1.218 -0.0788 -0.0989  0.2579
  296ODE      D 1478   6.911   0.721   1.176 -0.3174 -0.0236 -0.0824
  296ODE      C 1479   7.291   0.477   1.460  0.2450 -0.0032 -0.0021
  296ODE      C 1480   7.511   0.540   1.809 -0.1810 -0.0315 -0.1585
  297ODE      C 1481   5.104   1.814   6.661  0.0177 -0.0117  0.5038
  297ODE      C 1482   4.780   1.602   6.632  0.0951  0.0291  0.0514
  297ODE      D 1483   4.323   1.452   6.850  0.0583  0.0188 -0.1216
  297ODE      C 1484   4.097   1.566   7.209  0.0375 -0.1005 -0.2464
  297ODE      C 1485   3.785   1.305   7.132 -0.2960  0.0244 -0.2176
  298ODE      C 1486   3.047   4.337   1.738  0.2064  0.0334 -0.1243
  298ODE      C 1487   2.691   4.515   2.001  0.1311 -0.0572 -0.0426
  298ODE      D 1488   2.594   4.852   2.220 -0.1024 -0.1108  0.0446
  298ODE      C 1489   2.204   5.101   2.221 -0.1495  0.2820 -0.0931
  298ODE      C 1490   1.784   5.259   2.338 -0.3504 -0.0240  0.0347
  299ODE      C 1491   4.815   4.024   4.669 -0.1333 -0.3441 -0.0473
  299ODE      C 1492   4.597   4.110   4.364  0.1580 -0.2745 -0.0577
  299ODE      D 1493   4.288   3.841   4.098 -0.0206 -0.0791  0.0920
  299ODE      C 1494   4.445   3.475   3.878 -0.1311  0.1825  0.1725
  299ODE      C 1495   4.570   3.213   3.553 -0.0812  0.4243  0.3191
  300ODE      C 1496   7.222   6.735   0.571  0.1847 -0.2989  0.1731
  300ODE      C 1497   7.496   6.367   0.331  0.3390 -0.1136  0.0701
  300ODE      D 1498   7.806   6.152   0.018  0.0388 -0.0999 -0.3159
  300ODE      C 1499   8.129   5.906   0.266 -0.0491  0.0249  0.1041
  300ODE      C 1500   8.110   5.561   0.661 -0.1967 -0.1931  0.0402
  301ODE      C 1501   0.407   6.134   2.878  0.3013 -0.1569  0.1936
  301ODE      C 1502   0.080   5.828   3.006  0.3247 -0.3621 -0.0720
  301ODE      D 1503  -0.356   5.584   3.045 -0.1935  0.1151 -0.0128
  301ODE      C 1504  -0.600   5.519   2.697 -0.1812 -0.0199 -0.1340
  301ODE      C 1505  -0.753   5.200   2.342 -0.1155 -0.0777 -0.2631
  302ODE      C 1506   5.932   3.200   1.810  0.0774 -0.1154  0.0101
  302ODE      C 1507   6.255   3.565   1.656 -0.1353  0.0489 -0.0470
  302ODE      D 1508   6.577   3.941   1.874  0.1485 -0.0984  0.1793
  302ODE      C 1509   6.281   4.098   2.168  0.0106  0.1474  0.1813
  302ODE      C 1510   6.130   4.081   2.594 -0.3477  0.0852  0.1377
  303ODE      C 1511   7.598   1.586   2.913 -0.1051 -0.0612  0.2918
  303ODE      C 1512   7.792   1.969   3.027 -0.1991 -0.2387 -0.3636
  303ODE      D 1513   7.837   2.454   3.128 -0.2769  0.0613  0.1640
  303ODE      C 1514   7.680   2.813   3.367  0.0687 -0.1753 -0.2101
  303ODE      C 1515   7.261   2.877   3.549 -0.3473 -0.0152  0.1708
  304ODE      C 1516   4.346   3.969   1.651 -0.0298 -0.4201  0.0084
  304ODE      C 1517   4.295   3.452   1.732  0.0243 -0.3362  0.1173
  304ODE      D 1518   4.278   3.173   2.171 -0.1207 -0.1939 -0.0166
  304ODE      C 1519   4.350   3.331   2.659  0.2985 -0.2244 -0.2001
  304ODE      C 1520   4.573   3.503   3.077  0.0075 -0.0041 -0.1247
  305ODE      C 1521   7.814   4.833   5.498 -0.1295 -0.1980 -0.2678
  305ODE      C 1522   7.750   4.989   5.875 -0.0308  0.2119  0.2965
  305ODE      D 1523   7.887   5.060   6.276  0.0690  0.2610 -0.2378
  305ODE      C 1524   8.344   4.784   6.244 -0.0360 -0.1366 -0.0877
  305ODE      C 1525   8.611   4.427   6.280  0.1242 -0.2890 -0.0336
  306ODE      C 1526   9.361   4.476   0.719 -0.4509  0.1681 -0.0321
  306ODE      C 1527   8.970   4.798   0.727  0.0961 -0.2215 -0.1145
  306ODE      D 1528   8.616   4.910   0.526 -0.2156  0.0721  0.0985
  306ODE      C 1529   8.372   5.231   0.424  0.0110  0.2877 -0.2248
  306ODE      C 1530   8.309   5.344  -0.082  0.1465  0.1770 -0.0359
  307ODE      C 1531   9.309   1.069   3.574  0.1827  0.0986 -0.1032
  307ODE      C 1532   9.340   1.335   3.313  0.1757  0.2010  0.0488
  307ODE      D 1533   9.735   1.428   3.050 -0.0541 -0.1174  0.1240
  307ODE      C 1534   9.983   1.200   2.814  0.0343 -0.0664 -0.1701
  307ODE      C 1535  10.352   0.942   2.644 -0.0120  0.2062  0.0733
  308ODE      C 1536   3.588   6.635   2.315 -0.1236 -0.0819 -0.2157
  308ODE      C 1537   3.374   6.457   1.983 -0.1326  0.3211  0.2450
  308ODE      D 1538   3.509   6.106   1.654 -0.1092 -0.0704  0.0289
  308ODE      C 1539   3.625   5.757   1.768 -0.0561 -0.4708 -0.0202
  308ODE      C 1540   3.883   5.693   2.074  0.0933 -0.1084 -0.1752
  309ODE      C 1541   6.435   1.613   4.939 -0.0065 -0.3989  0.0781
  309ODE      C 1542   6.582   1.532   4.574 -0.2051  0.0601  0.0131
  309ODE      D 1543   6.895   1.298   4.377 -0.0624 -0.0851  0.4024
  309ODE      C 1544   7.174   1.107   4.544  0.3659 -0.0038 -0.1210
  309ODE      C 1545   7.617   1.305   4.661 -0.0535  0.0884  0.0401
  310ODE      C 1546   4.085   2.678   5.467 -0.4175  0.0214 -0.5294
  310ODE      C 1547   4.621   2.723   5.504 -0.3273 -0.1195 -0.1012
  310ODE      D 1548   4.981   2.510   5.804 -0.0216  0.1431  0.1686
  310ODE      C 1549   5.497   2.599   5.913 -0.1929 -0.0057  0.1656
  310ODE      C 1550   5.838   2.723   5.664 -0.0153  0.2407  0.0255
  311ODE      C 1551   2.533   6.795   3.954  0.0063  0.4353 -0.1125
  311ODE      C 1552   2.814   6.650   4.231  0.1328  0.2354 -0.1659
  311ODE      D 1553   3.061   6.264   4.347  0.1789  0.2350 -0.1181
  311ODE      C 1554   3.201   6.354   4.732 -0.1138  0.1338 -0.0874
  311ODE      C 1555   3.408   6.622   4.970  0.2904  0.0567 -0.2105
  312ODE      C 1556   1.116   5.854   5.815 -0.0488  0.2048 -0.1744
  312ODE      C 1557   1.024   6.214   5.736  0.1605 -0.1269 -0.0922
  312ODE      D 1558   1.132   6.671   5.742 -0.0076  0.1405 -0.0907
  312ODE      C 1559   1.278   6.896   5.332 -0.1612  0.0181  0.0363
  312ODE      C 1560   1.245   6.939   4.892 -0.1632 -0.0462  0.1486
  313ODE      C 1561   0.624   6.558   5.719  0.1429 -0.0173 -0.2357
  313ODE      C 1562   0.618   6.254   6.035  0.2941 -0.3876  0.1266
  313ODE      D 1563   0.747   6.249   6.487  0.2554 -0.3232 -0.1422
  313ODE      C 1564   0.752   5.886   6.774  0.1887  0.3140  0.0462
  313ODE      C 1565   0.477   5.586   6.830 -0.0674  0.1084  0.0841
  314ODE      C 1566   8.178   3.215   1.508  0.1346 -0.2448 -0.1637
  314ODE      C 1567   8.479   2.931   1.211 -0.0306  0.3157 -0.0282
  314ODE      D 1568   8.672   3.108   0.841 -0.0303  0.1997  0.1461
  314ODE      C 1569   8.747   3.623   0.852 -0.5024  0.0845 -0.0974
  314ODE      C 1570   8.729   4.112   1.025  0.0626 -0.2964 -0.1438
  315ODE      C 1571   0.811   5.886   1.712 -0.1044 -0.2720  0.0335
  315ODE      C 1572   0.886   6.251   1.373 -0.0417  0.2983 -0.3378
  315ODE      D 1573   0.945   6.495   0.942  0.0408  0.0378  0.1143
  315ODE      C 1574   1.142   6.272   0.561  0.2284  0.0182 -0.1402
  315ODE      C 1575   1.175   6.513   0.256  0.0359  0.3224  0.0877
  316ODE      C 1576   8.243   3.796   4.478 -0.0874 -0.4660  0.0111
  316ODE      C 1577   8.682   3.677   4.561 -0.1691  0.1708 -0.2213
  316ODE      D 1578   9.038   3.512   4.418  0.1939  0.0195  0.2753
  316ODE      C 1579   9.064   3.769   4.135 -0.0942  0.0265 -0.2194
  316ODE      C 1580   9.036   3.801   3.737 -0.1829 -0.1819 -0.0023
  317ODE      C 1581   5.683   0.463   5.762 -0.0491 -0.2055 -0.2964
  317ODE      C 1582   5.320   0.531   6.076 -0.0126  0.2341  0.0052
  317ODE      D 1583   4.969   0.757   5.933 -0.2072 -0.0775 -0.1151
  317ODE      C 1584   5.044   1.190   5.912 -0.0405  0.3935 -0.0405
  317ODE      C 1585   5.130   1.657   6.048  0.0263 -0.2655 -0.1634
  318ODE      C 1586   0.450   3.177   7.060 -0.1289  0.4912  0.1516
  318ODE      C 1587   0.530   3.592   6.776 -0.1603  0.1486  0.4654
  318ODE      D 1588   0.662   3.952   6.544 -0.0523 -0.1784  0.0243
  318ODE      C 1589   1.163   3.810   6.562 -0.0179  0.1718 -0.1088
  318ODE      C 1590   1.526   3.735   6.816 -0.3811  0.2348 -0.1639
  319ODE      C 1591   3.905   4.461   6.977  0.0491  0.0875 -0.0298
  319ODE      C 1592   3.493   4.324   7.016  0.1855  0.1256 -0.1427
  319ODE      D 1593   3.179   4.114   6.882 -0.0896 -0.1922 -0.0614
  319ODE      C 1594   2.714   4.208   7.091  0.0126 -0.2385 -0.0323
  319ODE      C 1595   2.298   4.130   7.145 -0.0065 -0.0367  0.0360
  320ODE      C 1596   2.912   2.019   2.712 -0.4051  0.2557  0.1781
  320ODE      C 1597   2.793   2.148   3.061 -0.1867  0.0200  0.0852
  320ODE      D 1598   2.476   2.316   3.302  0.2814 -0.0023  0.0964
  320ODE      C 1599   2.135   2.017   3.502  0.1719  0.0212  0.3011
  320ODE      C 1600   2.151   1.615   3.424 -0.0551  0.0644 -0.0550
  321ODE      C 1601   8.432   6.583   2.832 -0.2036  0.1416  0.1248
  321ODE      C 1602   8.733   6.455   3.310 -0.1005 -0.2097 -0.0010
  321ODE      D 1603   8.800   6.215   3.633 -0.1011  0.0592 -0.0189
  321ODE      C 1604   8.628   5.835   3.786  0.1154  0.3019 -0.1659
  321ODE      C 1605   8.538   5.491   3.688 -0.0068  0.1859  0.0352
  322ODE      C 1606   4.511   0.872   5.012 -0.1994  0.0014  0.1493
  322ODE      C 1607   4.435   0.744   4.620 -0.0846 -0.0007 -0.0629
  322ODE      D 1608   4.454   0.494   4.403  0.0770  0.0870 -0.0247
  322ODE      C 1609   4.795   0.510   4.109  0.1334 -0.0427 -0.0119
  322ODE      C 1610   4.760   0.381   3.758  0.1223 -0.2256 -0.0181
  323ODE      C 1611   8.387   2.060   6.090 -0.1926 -0.0254 -0.1752
  323ODE      C 1612   8.814   1.770   6.080  0.1574  0.2241  0.1033
  323ODE      D 1613   9.139   1.962   5.968 -0.2272 -0.2693 -0.2142
  323ODE      C 1614   9.312   2.328   6.194  0.0014 -0.2209 -0.0082
  323ODE      C 1615   9.207   2.761   6.162  0.1533 -0.2207  0.1021
  324ODE      C 1616   3.690   3.240   1.553 -0.2936  0.1609  0.0502
  324ODE      C 1617   3.819   3.649   1.492  0.2512 -0.2705  0.0531
  324ODE      D 1618   3.873   4.037   1.439  0.0148 -0.1447  0.0689
  324ODE      C 1619   3.882   4.373   1.724 -0.2712  0.3873  0.2251
  324ODE      C 1620   3.749   4.738   2.055 -0.1368  0.0004  0.2227
  325ODE      C 1621   2.058   1.600   5.025 -0.0537 -0.2041  0.0646
  325ODE      C 1622   2.386   1.814   5.056 -0.1460  0.0942  0.2592
  325ODE      D 1623   2.817   1.480   5.220 -0.2858 -0.1666 -0.2157
  325ODE      C 1624   3.205   1.672   5.067 -0.2971  0.0209 -0.0567
  325ODE      C 1625   3.374   2.083   5.250  0.0009 -0.1439  0.0181
  326ODE      C 1626   8.393   5.833   6.187 -0.0202  0.1289 -0.3006
  326ODE      C 1627   8.446   5.974   5.806 -0.0578  0.0500  0.0381
  326ODE      D 1628   8.384   6.157   5.469 -0.1915  0.0069 -0.5727
  326ODE      C 1629   8.790   6.239   5.394  0.1061  0.1421  0.0910
  326ODE      C 1630   9.279   6.410   5.470  0.1176  0.0185  0.0686
  327ODE      C 1631   7.015   3.467   4.083 -0.3075 -0.0593  0.1606
  327ODE      C 1632   6.857   3.826   4.038  0.2712 -0.0697 -0.1337
  327ODE      D 1633   6.639   4.017   3.740  0.0303 -0.1071 -0.0088
  327ODE      C 1634   6.311   4.316   3.596  0.1456 -0.1379  0.2048
  327ODE      C 1635   6.093   4.735   3.408 -0.0821  0.0405  0.2886
  328ODE      C 1636   8.698   6.076   2.178 -0.2001  0.2848 -0.1255
  328ODE      C 1637   8.352   6.152   1.860  0.1078  0.1056  0.2914
  328ODE      D 1638   8.152   5.972   1.546 -0.2765 -0.1901  0.0582
  328ODE      C 1639   7.896   5.644   1.580  0.0829  0.0159 -0.1283
  328ODE      C 1640   7.629   5.284   1.392 -0.0439  0.0993 -0.4041
  329ODE      C 1641   1.100   5.630   0.783  0.1738  0.2306 -0.3095
  329ODE      C 1642   0.867   5.728   0.449 -0.0380  0.1742  0.0600
  329ODE      D 1643   0.618   5.728   0.173  0.0720 -0.2722  0.2226
  329ODE      C 1644   0.223   6.007   0.274 -0.1693 -0.1673  0.1023
  329ODE      C 1645  -0.146   6.176   0.166 -0.2799 -0.1422  0.2422
  330ODE      C 1646   0.835   3.234   1.705 -0.1556 -0.5353 -0.2370
  330ODE      C 1647   0.614   3.560   1.612 -0.1261 -0.0233 -0.4552
  330ODE      D 1648   0.550   3.717   1.199 -0.1684 -0.0672  0.0496
  330ODE      C 1649   0.496   4.086   1.185  0.0813 -0.1935  0.1505
  330ODE      C 1650   0.521   4.477   1.467 -0.1984 -0.3019  0.3051
  331ODE      C 1651   4.348   2.277   5.355  0.2275 -0.1152 -0.2474
  331ODE      C 1652   4.553   1.987   5.115 -0.3376 -0.0820  0.0704
  331ODE      D 1653   4.869   1.700   4.931 -0.0091 -0.1553  0.0352
  331ODE      C 1654   5.116   1.541   4.549 -0.1963  0.1391 -0.0359
  331ODE      C 1655   5.279   1.240   4.323  0.2543 -0.1021  0.1779
  332ODE      C 1656   3.064   0.944   0.570  0.0955  0.1014 -0.1778
  332ODE      C 1657   3.068   0.870   1.050  0.1613  0.1362 -0.2906
  332ODE      D 1658   2.737   1.186   1.274  0.2331 -0.0086  0.1238
  332ODE      C 1659   2.212   1.154   1.352 -0.0595  0.0595  0.2207
  332ODE      C 1660   1.820   1.193   1.551  0.2136 -0.1476 -0.0153
  333ODE      C 1661   0.546   6.687   0.528  0.2515 -0.0275  0.1804
  333ODE      C 1662   0.460   6.526   0.181 -0.1092 -0.2461  0.0315
  333ODE      D 1663   0.591   6.157  -0.042  0.1916 -0.0542 -0.0687
  333ODE      C 1664   0.970   6.043   0.028  0.0103 -0.0383 -0.1009
  333ODE      C 1665   1.416   6.133  -0.011 -0.1469  0.2127  0.0744
  334ODE      C 1666   4.759   1.684   0.641  0.1097  0.0850  0.2430
  334ODE      C 1667   4.575   1.777   0.141 -0.1571  0.2728  0.1719
  334ODE      D 1668   4.750   1.979  -0.148  0.1273  0.0336 -0.0342
  334ODE      C 1669   5.221   2.102  -0.061 -0.0992  0.1670  0.0491
  334ODE      C 1670   5.531   2.184   0.330  0.2490  0.1066  0.3298
  335ODE      C 1671   3.814   3.891   6.891 -0.2863  0.0683 -0.0189
  335ODE      C 1672   3.548   3.827   7.192  0.0850 -0.0276 -0.2963
  335ODE      D 1673   3.166   4.064   7.377 -0.1056 -0.0712  0.3635
  335ODE      C 1674   3.162   3.950   7.763  0.0819  0.4018 -0.0886
  335ODE      C 1675   3.066   3.595   8.103  0.2365  0.0074 -0.0532
  336ODE      C 1676   5.197   5.662   4.423  0.0939 -0.1878 -0.1682
  336ODE      C 1677   5.105   6.005   4.101 -0.0023 -0.0796  0.0506
  336ODE      D 1678   5.269   6.408   3.913  0.0429 -0.1174  0.1912
  336ODE      C 1679   5.391   6.742   4.061  0.1209  0.0600  0.0786
  336ODE      C 1680   5.464   7.148   4.325  0.1807 -0.1383  0.0259
  337ODE      C 1681   9.099   1.868   6.925  0.1905 -0.0032  0.3127
  337ODE      C 1682   9.237   1.726   7.288 -0.2824 -0.1035  0.3113
  337ODE      D 1683   9.281   1.685   7.755  0.0251 -0.0999 -0.2025
  337ODE      C 1684   9.726   1.746   7.916 -0.2755 -0.4199  0.1767
  337ODE      C 1685   9.986   2.095   7.760 -0.2890 -0.1874  0.0518
  338ODE      C 1686   5.983   6.157   2.528  0.0980  0.1775 -0.1569
  338ODE      C 1687   6.106   5.905   2.871  0.0527  0.1291 -0.2452
  338ODE      D 1688   6.103   5.700   3.178  0.3537 -0.1329 -0.1988
  338ODE      C 1689   6.365   5.280   3.165 -0.2041  0.1336  0.0181
  338ODE      C 1690   6.536   4.971   3.349 -0.0932  0.0456  0.0609
  339ODE      C 1691   1.909   0.682   3.757  0.4629 -0.1405  0.1073
  339ODE      C 1692   1.624   1.130   3.576 -0.0086  0.0086 -0.0303
  339ODE      D 1693   1.228   1.205   3.506 -0.3246  0.3897 -0.2435
  339ODE      C 1694   1.277   1.571   3.286  0.1510  0.0952 -0.1176
  339ODE      C 1695   1.107   1.993   3.224  0.0437 -0.2258  0.3287
  340ODE      C 1696   9.152   5.506   6.793 -0.0570  0.1644 -0.3193
  340ODE      C 1697   8.899   5.865   6.972  0.3477  0.2169 -0.1265
  340ODE      D 1698   8.782   6.180   6.849 -0.1732  0.3990 -0.0569
  340ODE      C 1699   8.617   6.369   7.197 -0.1200 -0.0358  0.1196
  340ODE      C 1700   8.413   6.270   7.595 -0.0086 -0.3893  0.2708
  341ODE      C 1701   3.989   5.603   2.568 -0.2624  0.2597 -0.3369
  341ODE      C 1702   4.324   5.506   2.313 -0.0333  0.1873  0.4070
  341ODE      D 1703   4.708   5.504   2.062  0.0178 -0.2159 -0.0124
  341ODE      C 1704   4.853   5.900   1.730  0.1054 -0.1368 -0.1337
  341ODE      C 1705   5.124   6.166   1.507  0.0365 -0.4096 -0.0211
  342ODE      C 1706   8.607   1.133   4.403  0.0301  0.0189 -0.0512
  342ODE      C 1707   8.515   0.776   4.125 -0.1737 -0.0881  0.0939
  342ODE      D 1708   8.481   0.756   3.640 -0.0489  0.0628 -0.0469
  342ODE      C 1709   8.519   0.473   3.390  0.0271  0.0168  0.0069
  342ODE      C 1710   8.631   0.226   3.135  0.3431  0.1199 -0.2260
  343ODE      C 1711   4.510   2.875   6.868 -0.1565 -0.2655 -0.1020
  343ODE      C 1712   4.144   2.557   6.852 -0.2380 -0.1776  0.0454
  343ODE      D 1713   3.696   2.669   6.846  0.0779 -0.1024  0.1125
  343ODE      C 1714   3.623   3.042   6.643  0.4259  0.0358  0.2063
  343ODE      C 1715   3.439   2.995   6.106 -0.0899 -0.0735 -0.2531
  344ODE      C 1716   0.030   2.172   7.029  0.0248 -0.0033  0.0094
  344ODE      C 1717  -0.336   2.409   6.814 -0.0484 -0.0012 -0.2540
  344ODE      D 1718  -0.784   2.304   6.870 -0.1115  0.1231 -0.2220
  344ODE      C 1719  -1.049   2.598   7.195 -0.0058 -0.0505 -0.0382
  344ODE      C 1720  -1.180   2.718   7.574 -0.2893  0.1830  0.2773
  345ODE      C 1721   9.006   4.780   2.194 -0.2235  0.0853  0.0388
  345ODE      C 1722   9.153   5.143   2.028 -0.0157  0.1286  0.0155
  345ODE      D 1723   9.101   5.647   2.094 -0.0568 -0.0948 -0.2129
  345ODE      C 1724   9.074   6.051   1.808  0.3071 -0.2338 -0.0554
  345ODE      C 1725   8.837   6.378   1.677 -0.1344  0.2132 -0.1388
  346ODE      C 1726   0.502   4.563   0.626 -0.1314  0.0335 -0.1948
  346ODE      C 1727   0.776   4.732   0.302  0.0064 -0.0096  0.2857
  346ODE      D 1728   0.886   4.797  -0.063  0.1055  0.0855 -0.0610
  346ODE      C 1729   0.716   4.761  -0.411  0.4093  0.2605  0.1526
  346ODE      C 1730   0.392   4.889  -0.650 -0.2033  0.0800  0.2206
  347ODE      C 1731   2.796   6.058   4.847 -0.1062 -0.2467  0.0751
  347ODE      C 1732   3.043   5.787   4.584 -0.2813 -0.0422  0.1267
  347ODE      D 1733   3.132   5.382   4.439  0.0266 -0.0025 -0.0859
  347ODE      C 1734   2.946   4.879   4.506  0.0641  0.0495 -0.1034
  347ODE      C 1735   2.895   4.478   4.671 -0.2848 -0.1058 -0.1991
  348ODE      C 1736   2.523   4.768   3.498  0.2292  0.1560 -0.1851
  348ODE      C 1737   2.678   4.565   3.817  0.3534  0.0817  0.0541
  348ODE      D 1738   2.676   4.202   4.066  0.0768 -0.0811 -0.0674
  348ODE      C 1739   2.887   3.789   4.022 -0.1162 -0.1566  0.2521
  348ODE      C 1740   3.333   3.604   4.171  0.1007  0.0232 -0.3895
  349ODE      C 1741   3.341   0.949   3.955 -0.0620  0.0337  0.1367
  349ODE      C 1742   3.738   0.842   4.059  0.0430 -0.1520  0.0149
  349ODE      D 1743   4.145   0.768   4.073  0.0369 -0.0100  0.0532
  349ODE      C 1744   4.225   0.975   3.741 -0.0871  0.2607  0.1168
  349ODE      C 1745   4.489   1.278   3.518  0.0450  0.2769 -0.0712
  350ODE      C 1746   2.912   6.900   5.579  0.1037  0.0176  0.0173
  350ODE      C 1747   2.479   7.072   5.666  0.2501  0.2899  0.2839
  350ODE      D 1748   2.102   7.046   5.764 -0.1503  0.2076 -0.0755
  350ODE      C 1749   1.924   6.866   6.030 -0.2575  0.0895  0.2500
  350ODE      C 1750   1.728   6.574   6.273 -0.5008 -0.0685 -0.0016
  351ODE      C 1751   5.083   4.734   0.577  0.0059  0.2890 -0.0319
  351ODE      C 1752   4.870   4.952   0.869  0.1906 -0.3865 -0.2125
  351ODE      D 1753   4.882   4.953   1.363 -0.1879  0.1809  0.0595
  351ODE      C 1754   4.815   4.622   1.712  0.0290 -0.1067 -0.1409
  351ODE      C 1755   4.698   4.553   2.089  0.1719 -0.3054  0.1996
  352ODE      C 1756   6.800   3.852   6.401  0.1739 -0.0302 -0.0496
  352ODE      C 1757   6.518   4.228   6.485  0.1702  0.0796  0.3674
  352ODE      D 1758   6.183   4.378   6.505  0.1227  0.1537 -0.5882
  352ODE      C 1759   6.008   4.511   6.996 -0.2578 -0.1274  0.2683
  352ODE      C 1760   6.028   4.876   7.156  0.3375 -0.0528  0.1194
  353ODE      C 1761   5.675   3.401   5.224 -0.2018  0.1052  0.0286
  353ODE      C 1762   5.566   2.972   5.322 -0.1418 -0.0608  0.0316
  353ODE      D 1763   5.472   2.602   5.346 -0.1900  0.2715 -0.1756
  353ODE      C 1764   5.365   2.331   5.057 -0.1880  0.1385 -0.0392
  353ODE      C 1765   5.461   1.932   4.851 -0.0108  0.1072 -0.4973
  354ODE      C 1766   8.465   1.828   6.753  0.1493 -0.0786  0.1106
  354ODE      C 1767   8.560   1.870   7.165  0.0587  0.0754  0.1291
  354ODE      D 1768   8.701   1.711   7.584 -0.1944 -0.1255  0.1141
  354ODE      C 1769   8.336   1.448   7.651 -0.1825  0.3464  0.1203
  354ODE      C 1770   7.915   1.453   7.835  0.0923 -0.2920 -0.1623
  355ODE      C 1771   5.588   0.038   6.949  0.0350  0.0474  0.0067
  355ODE      C 1772   5.148  -0.048   6.857 -0.0522  0.0581  0.0752
  355ODE      D 1773   4.909  -0.161   6.626 -0.1491  0.0672  0.0080
  355ODE      C 1774   4.962  -0.285   6.235  0.1489  0.0294  0.0917
  355ODE      C 1775   5.287  -0.400   6.061  0.0785  0.1760  0.0377
  356ODE      C 1776   5.112   4.992   7.105  0.0090  0.1572 -0.0711
  356ODE      C 1777   5.261   4.963   6.671  0.3623 -0.3727  0.2149
  356ODE      D 1778   5.712   4.774   6.446 -0.1416  0.0767  0.0705
  356ODE      C 1779   5.963   4.691   6.186 -0.0773 -0.0013  0.3135
  356ODE      C 1780   6.471   4.649   6.158 -0.1541  0.1001 -0.0363
  357ODE      C 1781   6.908   0.227   1.095 -0.3379 -0.0430 -0.2975
  357ODE      C 1782   7.090   0.020   1.389 -0.2801 -0.0888 -0.1755
  357ODE      D 1783   7.019  -0.268   1.586  0.1242  0.0104  0.0375
  357ODE      C 1784   6.844  -0.520   1.326 -0.1071  0.0483 -0.0801
  357ODE      C 1785   6.874  -0.515   0.993  0.2668  0.0612 -0.0655
  358ODE      C 1786   2.921   2.837   1.381  0.1217  0.0648 -0.0793
  358ODE      C 1787   2.614   2.586   1.244  0.1836 -0.0521  0.0364
  358ODE      D 1788   2.241   2.313   1.300  0.2817  0.2100  0.1561
  358ODE      C 1789   1.915   2.331   1.097 -0.2028 -0.2927 -0.1046
  358ODE      C 1790   1.816   2.713   0.812  0.2457 -0.2027 -0.1305
  359ODE      C 1791   6.121   2.059   3.999  0.3267 -0.1773 -0.0983
  359ODE      C 1792   5.726   2.082   3.992 -0.0778 -0.0676 -0.0296
  359ODE      D 1793   5.310   2.085   3.743  0.0779  0.0249  0.1196
  359ODE      C 1794   4.941   1.894   3.928  0.1120 -0.2158  0.0504
  359ODE      C 1795   4.600   1.857   3.569 -0.0123 -0.1085  0.0847
  360ODE      C 1796   1.043   0.219   0.278  0.0796  0.2622 -0.1543
  360ODE      C 1797   0.851   0.261  -0.112  0.2210 -0.0862  0.0319
  360ODE      D 1798   1.154   0.245  -0.506 -0.1474  0.0697 -0.1344
  360ODE      C 1799   1.023   0.031  -0.868  0.1990  0.1457 -0.1471
  360ODE      C 1800   0.703  -0.076  -1.205 -0.1973 -0.1604 -0.0295
  361ODE      C 1801   7.372   1.849   2.035 -0.0917 -0.2512  0.0155
  361ODE      C 1802   6.985   1.699   1.919 -0.0243 -0.3534  0.0438
  361ODE      D 1803   6.588   1.748   2.131  0.1319  0.3471  0.0662
  361ODE      C 1804   6.442   2.158   2.099 -0.1604 -0.0175 -0.2015
  361ODE      C 1805   6.503   2.573   2.187  0.0262  0.1194  0.3048
  362ODE      C 1806   3.218   1.237   5.453  0.1425 -0.1598 -0.4044
  362ODE      C 1807   3.003   0.974   5.696 -0.1261 -0.2538  0.1584
  362ODE      D 1808   2.549   0.983   5.888 -0.1384  0.1970  0.0256
  362ODE      C 1809   2.213   0.754   5.654 -0.3538 -0.0828 -0.0908
  362ODE      C 1810   2.104   0.820   5.214 -0.0925 -0.0914 -0.2225
  363ODE      C 1811   4.348   0.869   0.513  0.2044 -0.0482  0.2579
  363ODE      C 1812   4.277   0.744   0.927 -0.0942  0.0504  0.2004
  363ODE      D 1813   4.166   0.572   1.336 -0.0585  0.0004 -0.0100
  363ODE      C 1814   3.977   0.148   1.317 -0.1519 -0.1591 -0.0636
  363ODE      C 1815   3.973  -0.242   1.594  0.0979 -0.1845  0.2032
  364ODE      C 1816   8.085   4.881   7.172 -0.2420 -0.1932 -0.3492
  364ODE      C 1817   7.718   5.240   7.090  0.2200 -0.0475 -0.0228
  364ODE      D 1818   7.806   5.587   7.268 -0.0024  0.4072  0.0608
  364ODE      C 1819   7.763   5.806   6.905 -0.0236 -0.0600 -0.0555
  364ODE      C 1820   7.901   5.836   6.515 -0.2206  0.2763 -0.0728
  365ODE      C 1821   5.857   0.212   6.434 -0.1190  0.1488 -0.0115
  365ODE      C 1822   6.318   0.382   6.508  0.2139 -0.1345 -0.1004
  365ODE      D 1823   6.351   0.772   6.755  0.1187  0.1956  0.0653
  365ODE      C 1824   6.015   1.020   6.993  0.0386 -0.4470  0.2336
  365ODE      C 1825   5.622   0.961   6.880 -0.0935 -0.2079  0.0942
  366ODE      C 1826   6.179   4.841   6.642  0.3361  0.2303  0.1572
  366ODE      C 1827   6.089   5.189   6.451  0.3027 -0.0148  0.2887
  366ODE      D 1828   5.759   5.260   6.215  0.0600 -0.0726 -0.1204
  366ODE      C 1829   5.717   5.630   6.148  0.0205  0.3953 -0.1708
  366ODE      C 1830   5.836   6.091   6.226  0.0163 -0.2625 -0.3823
  367ODE      C 1831   8.465   3.088   2.100  0.1942  0.1451  0.0194
  367ODE      C 1832   8.588   3.367   1.781 -0.3139 -0.0378  0.2426
  367ODE      D 1833   8.694   3.384   1.318 -0.0973 -0.3201 -0.1904
  367ODE      C 1834   8.334   3.391   1.030  0.0944  0.5191 -0.0019
  367ODE      C 1835   7.936   3.562   1.220  0.1268 -0.0497  0.2578
  368ODE      C 1836   3.730   3.362   5.103 -0.0700 -0.0845 -0.1049
  368ODE      C 1837   4.163   3.586   5.220 -0.0444 -0.1328  0.1174
  368ODE      D 1838   4.579   3.839   5.104 -0.1139  0.1055 -0.0219
  368ODE      C 1839   4.624   4.230   5.102 -0.3003  0.2998  0.1769
  368ODE      C 1840   4.665   4.573   5.123  0.0481  0.2637  0.2184
  369ODE      C 1841   0.906   2.345   0.433 -0.0805  0.0610 -0.1781
  369ODE      C 1842   0.945   2.339   0.042  0.1393  0.0253  0.1530
  369ODE      D 1843   0.718   2.754  -0.136  0.0749  0.2347 -0.0761
  369ODE      C 1844   1.110   2.899  -0.233  0.1879  0.0270  0.4386
  369ODE      C 1845   1.434   3.087  -0.099 -0.0323  0.1570  0.0167
  370ODE      C 1846   5.364   1.854   5.310  0.1996  0.1357  0.1608
  370ODE      C 1847   5.504   1.474   5.139  0.2524 -0.0155  0.0878
  370ODE      D 1848   5.617   1.090   5.067 -0.1036  0.1466 -0.0877
  370ODE      C 1849   5.592   0.732   5.325 -0.0329 -0.1368 -0.0313
  370ODE      C 1850   5.714   0.406   5.199  0.2780 -0.2550  0.0342
  371ODE      C 1851   7.002   4.369   1.905 -0.1291 -0.0976 -0.1999
  371ODE      C 1852   6.585   4.585   2.097  0.0126  0.0998  0.3303
  371ODE      D 1853   6.421   4.488   2.506 -0.2198  0.1802 -0.0574
  371ODE      C 1854   6.641   4.313   2.735  0.2536 -0.0937  0.2385
  371ODE      C 1855   7.071   4.178   2.823 -0.1875 -0.3811 -0.3233
  372ODE      C 1856   1.924   4.033   0.407  0.2949 -0.0884 -0.0509
  372ODE      C 1857   1.884   4.396   0.103 -0.1959 -0.0311  0.0325
  372ODE      D 1858   1.514   4.664   0.101 -0.0685  0.1062 -0.0784
  372ODE      C 1859   1.227   4.975   0.237 -0.2827 -0.0454  0.0767
  372ODE      C 1860   1.174   5.412   0.237  0.1927  0.0840 -0.0304
  373ODE      C 1861   9.021   5.442   5.218 -0.1831 -0.2617  0.3183
  373ODE      C 1862   9.252   5.775   5.458  0.2795  0.3434  0.3934
  373ODE      D 1863   9.486   6.016   5.709 -0.0332  0.0981 -0.3293
  373ODE      C 1864   9.766   5.881   6.026 -0.3056  0.2431  0.2523
  373ODE      C 1865  10.031   5.856   6.326 -0.1839 -0.3199  0.0988
  374ODE      C 1866   5.566   1.511   1.963  0.1836  0.1640  0.0560
  374ODE      C 1867   5.340   1.151   1.868 -0.1052 -0.1367 -0.0227
  374ODE      D 1868   5.291   0.790   1.547 -0.3385 -0.2695  0.2815
  374ODE      C 1869   4.934   0.607   1.681 -0.1175 -0.0686  0.1775
  374ODE      C 1870   4.615   0.371   1.524  0.2228  0.1799 -0.0533
  375ODE      C 1871   2.797   4.695   1.414  0.0934  0.1339 -0.3478
  375ODE      C 1872   2.665   4.631   1.000 -0.1578  0.0686  0.0684
  375ODE      D 1873   2.722   4.810   0.609 -0.1420  0.0080  0.2824
  375ODE      C 1874   3.108   5.064   0.439  0.1489  0.1027 -0.0805
  375ODE      C 1875   3.576   5.077   0.377 -0.1999 -0.4195  0.2300
  376ODE      C 1876   2.573   1.951   6.388  0.1655  0.2618  0.1471
  376ODE      C 1877   2.426   2.061   5.998 -0.6116  0.1757  0.0151
  376ODE      D 1878   2.634   2.425   5.836  0.1053  0.3151 -0.2557
  376ODE      C 1879   2.652   2.587   5.417  0.1177 -0.1302  0.0462
  376ODE      C 1880   2.749   2.761   4.985 -0.1493 -0.2190  0.1044
  377ODE      C 1881   9.475   0.675   3.952  0.2261 -0.0804  0.1829
  377ODE      C 1882   9.377   0.549   3.525  0.0604  0.1697  0.3242
  377ODE      D 1883   9.233   0.455   3.025  0.1795  0.0637 -0.0783
  377ODE      C 1884   9.135   0.092   2.825  0.0624 -0.2047  0.2479
  377ODE      C 1885   9.140  -0.392   2.924  0.0374 -0.1070  0.0825
  378ODE      C 1886   0.555   5.478   1.436  0.1786  0.0263 -0.8761
  378ODE      C 1887   1.009   5.338   1.621 -0.1049  0.0841  0.0776
  378ODE      D 1888   1.181   5.004   1.883 -0.0343  0.0607 -0.0152
  378ODE      C 1889   1.249   4.866   2.219  0.0835  0.2603 -0.2235
  378ODE      C 1890   1.556   4.896   2.553 -0.2011 -0.2709 -0.0504
  379ODE      C 1891   1.608   1.681   4.753 -0.0338 -0.0893  0.0111
  379ODE      C 1892   1.720   2.080   4.512  0.2290 -0.2914  0.0630
  379ODE      D 1893   1.583   2.185   4.138 -0.0551  0.2089 -0.1534
  379ODE      C 1894   1.213   1.997   3.915 -0.3544  0.2543 -0.0717
  379ODE      C 1895   0.754   1.848   3.978 -0.4389  0.2535  0.0705
  380ODE      C 1896   9.389   7.153   6.420  0.0009  0.1312 -0.0459
  380ODE      C 1897   9.247   6.989   6.790  0.3247 -0.1025  0.1519
  380ODE      D 1898   9.118   7.074   7.278  0.1701 -0.0646 -0.0372
  380ODE      C 1899   9.390   7.195   7.635  0.1142 -0.1443  0.3075
  380ODE      C 1900   9.805   7.183   7.837  0.4051 -0.3199  0.0124
  381ODE      C 1901   6.696   0.277   1.554 -0.4750  0.2035  0.0657
  381ODE      C 1902   6.856   0.062   1.917  0.0038 -0.0143  0.0448
  381ODE      D 1903   6.690  -0.189   2.191 -0.0985 -0.0419 -0.0192
  381ODE      C 1904   6.306   0.028   2.368 -0.1144  0.0259 -0.1562
  381ODE      C 1905   5.927   0.081   2.219 -0.0022  0.1702  0.0873
  382ODE      C 1906   3.122   5.038   6.850  0.0901  0.1669 -0.0248
  382ODE      C 1907   3.439   5.127   6.522  0.0545 -0.0672 -0.0127
  382ODE      D 1908   3.396   5.152   6.086 -0.1350 -0.0030  0.0613
  382ODE      C 1909   3.068   5.327   5.787 -0.1848 -0.5341  0.0241
  382ODE      C 1910   2.869   5.645   5.585 -0.0564 -0.0570 -0.1950
  383ODE      C 1911   5.212   2.872   0.474 -0.1523 -0.1392 -0.2926
  383ODE      C 1912   5.583   2.577   0.579  0.0193  0.0046  0.2355
  383ODE      D 1913   5.580   2.276   0.896 -0.1544 -0.0336 -0.3351
  383ODE      C 1914   5.692   2.290   1.253 -0.2233 -0.1101 -0.2314
  383ODE      C 1915   5.707   2.598   1.591 -0.0782 -0.0764 -0.2105
  384ODE      C 1916   7.953   5.653   3.092  0.4015  0.1754  0.2110
  384ODE      C 1917   8.016   5.228   2.981  0.0328  0.2128  0.1942
  384ODE      D 1918   7.870   4.892   2.665  0.2335  0.1247 -0.2193
  384ODE      C 1919   7.599   4.983   2.337 -0.0057 -0.1506  0.1498
  384ODE      C 1920   7.313   5.266   2.338  0.0075  0.2170  0.2669
  385ODE      C 1921   4.889   3.142   7.022 -0.1284 -0.2262 -0.1441
  385ODE      C 1922   5.362   3.046   7.103  0.2962  0.0270  0.3338
  385ODE      D 1923   5.621   2.817   7.356 -0.2423 -0.1429 -0.1100
  385ODE      C 1924   6.001   2.719   7.502 -0.2596 -0.1605  0.0025
  385ODE      C 1925   6.042   2.247   7.611  0.2215 -0.0659 -0.0002
  386ODE      C 1926   4.694   1.428   6.129 -0.1803 -0.1414 -0.2411
  386ODE      C 1927   4.497   1.047   6.129  0.0309  0.0121 -0.1777
  386ODE      D 1928   4.181   0.840   6.313  0.2154  0.0883 -0.0658
  386ODE      C 1929   3.805   0.975   6.063 -0.1756 -0.2026  0.1186
  386ODE      C 1930   3.463   0.962   5.920  0.0553 -0.0731 -0.2396
  387ODE      C 1931   2.060   4.697   2.470  0.1583 -0.2874 -0.3125
  387ODE      C 1932   2.194   4.570   2.013 -0.0292 -0.3101  0.0948
  387ODE      D 1933   2.027   4.573   1.540 -0.3292  0.2453 -0.4283
  387ODE      C 1934   1.735   4.781   1.382 -0.1315  0.1775 -0.1121
  387ODE      C 1935   1.304   5.075   1.268 -0.0772  0.0570  0.0890
  388ODE      C 1936   5.768   4.438   2.473 -0.3073 -0.1298  0.2299
  388ODE      C 1937   5.498   4.357   2.815 -0.2908  0.2247 -0.1219
  388ODE      D 1938   5.620   3.905   3.087  0.2085 -0.1520  0.0914
  388ODE      C 1939   5.476   3.429   2.983  0.1904 -0.1855  0.1210
  388ODE      C 1940   5.551   3.017   3.203 -0.1226 -0.1081 -0.3469
  389ODE      C 1941   3.378   6.874   3.300  0.0928  0.1960  0.2170
  389ODE      C 1942   3.026   7.019   3.252  0.1586 -0.1962 -0.1554
  389ODE      D 1943   2.980   6.925   2.815  0.2930  0.1164 -0.3104
  389ODE      C 1944   3.101   6.591   2.577  0.1591  0.1886 -0.2464
  389ODE      C 1945   3.347   6.227   2.440  0.0927 -0.0834 -0.3158
  390ODE      C 1946   6.343   1.164   0.179 -0.0299  0.2557  0.3451
  390ODE      C 1947   6.288   0.720   0.147 -0.0849  0.0260  0.1711
  390ODE      D 1948   6.070   0.309   0.188  0.0471 -0.1268 -0.0591
  390ODE      C 1949   6.031   0.015  -0.042  0.0861 -0.1189  0.1289
  390ODE      C 1950   6.095  -0.198  -0.381  0.0876 -0.1813  0.2696
  391ODE      C 1951   8.914   5.432   1.552  0.0169  0.2368 -0.0901
  391ODE      C 1952   9.177   5.687   1.429  0.0861  0.3303  0.1910
  391ODE      D 1953   9.574   5.927   1.528  0.0292  0.2114 -0.1872
  391ODE      C 1954   9.935   6.006   1.243 -0.0862 -0.3106 -0.0123
  391ODE      C 1955  10.172   5.832   0.869 -0.1234  0.2084  0.2530
  392ODE      C 1956   5.310   7.080   3.559 -0.0298 -0.3592  0.0105
  392ODE      C 1957   5.540   6.699   3.553  0.2734  0.0907 -0.1353
  392ODE      D 1958   5.882   6.467   3.797  0.0952  0.0664 -0.4264
  392ODE      C 1959   5.700   6.390   4.255 -0.0056  0.0508 -0.1680
  392ODE      C 1960   5.763   6.309   4.678 -0.1039  0.0334 -0.0206
  393ODE      C 1961   3.479   0.216   6.462  0.1170  0.0241  0.2313
  393ODE      C 1962   3.077   0.034   6.487 -0.0027  0.0306 -0.1281
  393ODE      D 1963   2.608  -0.121   6.668  0.0207 -0.1102  0.0522
  393ODE      C 1964   2.582  -0.119   7.137  0.2985 -0.5277  0.1176
  393ODE      C 1965   2.723  -0.175   7.547 -0.1886 -0.1523 -0.0937
  394ODE      C 1966   7.175   4.071   1.402 -0.1078 -0.0304  0.1629
  394ODE      C 1967   7.540   4.172   1.171  0.0027  0.1184 -0.4055
  394ODE      D 1968   7.745   4.047   0.884  0.1377 -0.0407 -0.0081
  394ODE      C 1969   7.688   4.152   0.522  0.0937 -0.5404 -0.6037
  394ODE      C 1970   7.802   4.352   0.195  0.3242  0.2063  0.0142
  395ODE      C 1971   3.110   6.874   6.853  0.0515  0.0319 -0.0658
  395ODE      C 1972   3.126   7.023   7.232 -0.0735 -0.1202 -0.1292
  395ODE      D 1973   3.152   6.780   7.643 -0.3082  0.2454 -0.0866
  395ODE      C 1974   2.769   6.590   7.823 -0.3378 -0.1693 -0.2412
  395ODE      C 1975   2.526   6.267   7.880 -0.0390  0.0172 -0.0944
  396ODE      C 1976   4.624   3.328   6.273  0.2941 -0.1717  0.0503
  396ODE      C 1977   4.820   3.094   6.493  0.0429  0.0758 -0.1759
  396ODE      D 1978   5.134   2.805   6.665 -0.2270 -0.2892  0.2373
  396ODE      C 1979   5.104   2.617   7.155  0.3928 -0.2570  0.2700
  396ODE      C 1980   4.895   2.316   7.424  0.0668 -0.2057 -0.2593
  397ODE      C 1981   1.633   4.136   4.370 -0.0062 -0.0075  0.0254
  397ODE      C 1982   1.867   3.846   4.478 -0.0821 -0.0146  0.3564
  397ODE      D 1983   2.074   3.771   4.897 -0.1069  0.0963 -0.0098
  397ODE      C 1984   2.006   3.898   5.341  0.0381 -0.0905  0.1113
  397ODE      C 1985   1.969   3.679   5.704 -0.1504  0.0827 -0.0698
  398ODE      C 1986   1.433   6.234   1.585  0.3788 -0.0326  0.4480
  398ODE      C 1987   1.406   5.885   1.511  0.2249  0.1356  0.1510
  398ODE      D 1988   1.460   5.542   1.206 -0.1474  0.0923 -0.3499
  398ODE      C 1989   1.589   5.736   0.863  0.0070  0.1020  0.2275
  398ODE      C 1990   1.422   5.846   0.455  0.1407  0.3609  0.1230
  399ODE      C 1991   2.229   3.087   4.426  0.2523  0.4025 -0.0207
  399ODE      C 1992   2.546   3.114   4.625 -0.0776 -0.0329  0.0252
  399ODE      D 1993   2.890   3.294   4.823  0.0844  0.2144 -0.2149
  399ODE      C 1994   3.107   3.079   5.175  0.1429 -0.0659  0.2244
  399ODE      C 1995   3.015   2.912   5.485 -0.0502 -0.2669 -0.0356
  400ODE      C 1996   6.305   4.027   0.686 -0.4436  0.0410 -0.1066
  400ODE      C 1997   6.416   4.480   0.651  0.1429  0.2583  0.0879
  400ODE      D 1998   6.189   4.908   0.776  0.1679 -0.3572  0.0325
  400ODE      C 1999   6.243   5.283   0.457  0.0533 -0.1893  0.2119
  400ODE      C 2000   6.075   5.346   0.062 -0.4433  0.2026 -0.0594
  401ODE      C 2001   3.185   6.497   5.419  0.0610 -0.3753  0.2105
  401ODE      C 2002   3.027   6.399   5.811 -0.0934 -0.1271  0.1038
  401ODE      D 2003   2.685   6.276   6.202  0.5644 -0.2239 -0.1274
  401ODE      C 2004   2.375   5.983   6.454  0.2417 -0.0582 -0.3086
  401ODE      C 2005   1.981   5.863   6.418 -0.2872 -0.0353  0.2438
  402ODE      C 2006   1.678   0.648   0.570  0.2493  0.0762  0.2269
  402ODE      C 2007   1.928   0.731   0.217  0.1955 -0.0076  0.1470
  402ODE      D 2008   2.179   0.523  -0.115 -0.1498 -0.3854 -0.3327
  402ODE      C 2009   2.590   0.366   0.036  0.2529 -0.0818 -0.2174
  402ODE      C 2010   2.906   0.255   0.215 -0.0059 -0.0558 -0.2962
  403ODE      C 2011   6.002   5.475   5.527  0.1588 -0.0221 -0.0789
  403ODE      C 2012   6.243   5.021   5.546 -0.2829 -0.0079  0.1320
  403ODE      D 2013   6.174   4.654   5.355 -0.0178  0.0509 -0.3433
  403ODE      C 2014   6.512   4.449   5.086 -0.0013 -0.0476 -0.0991
  403ODE      C 2015   6.746   4.229   4.976  0.0834  0.1734 -0.1798
  404ODE      C 2016   9.478   7.031   3.578  0.0920  0.1459 -0.0127
  404ODE      C 2017   9.727   6.795   3.870  0.0295 -0.2823  0.1456
  404ODE      D 2018  10.124   6.750   4.147  0.0105 -0.1615 -0.0147
  404ODE      C 2019  10.522   6.736   3.969 -0.1038  0.0160 -0.1222
  404ODE      C 2020  10.886   6.581   3.888 -0.2668 -0.0166 -0.1188
  405ODE      C 2021   7.288   2.223   2.577 -0.3918  0.0877  0.0166
  405ODE      C 2022   7.633   2.337   2.682  0.4210  0.0244 -0.1730
  405ODE      D 2023   8.080   2.211   2.672  0.0150 -0.0446  0.2348
  405ODE      C 2024   8.068   1.780   2.644  0.2594  0.0193  0.1732
  405ODE      C 2025   8.031   1.315   2.512  0.2756  0.0408  0.0503
  406ODE      C 2026   5.694   3.754   2.611 -0.2579  0.0680  0.1233
  406ODE      C 2027   5.526   3.935   2.227 -0.0648 -0.1156 -0.1520
  406ODE      D 2028   5.197   4.095   2.013 -0.0329  0.3064  0.4588
  406ODE      C 2029   5.440   4.578   1.909 -0.0373 -0.1153 -0.0660
  406ODE      C 2030   5.311   4.798   1.552  0.1422  0.0734 -0.1769
  407ODE      C 2031   1.126   3.563   3.153 -0.1463 -0.0397  0.2641
  407ODE      C 2032   1.164   4.024   3.005 -0.2051  0.0412 -0.0036
  407ODE      D 2033   1.176   4.260   2.677 -0.1623 -0.1829 -0.0464
  407ODE      C 2034   0.872   4.379   2.483  0.1061 -0.0840 -0.1517
  407ODE      C 2035   0.467   4.303   2.393  0.3933 -0.1794  0.3386
  408ODE      C 2036   7.905   3.559   0.748 -0.0293 -0.0786  0.2643
  408ODE      C 2037   8.304   3.540   0.500  0.0099 -0.2380 -0.0776
  408ODE      D 2038   8.685   3.383   0.363 -0.5432  0.3108  0.0697
  408ODE      C 2039   9.062   3.636   0.459 -0.1113 -0.0995  0.3381
  408ODE      C 2040   9.143   3.991   0.732  0.0104 -0.3277 -0.3264
  409ODE      C 2041   6.316   6.372   2.845 -0.1734 -0.4180  0.0349
  409ODE      C 2042   6.745   6.393   3.077  0.1685 -0.0459 -0.0119
  409ODE      D 2043   6.779   6.466   3.529  0.2703  0.2241  0.2644
  409ODE      C 2044   7.044   6.278   3.800 -0.0019 -0.1606  0.1198
  409ODE      C 2045   7.463   6.277   4.026  0.3694 -0.2681 -0.1293
  410ODE      C 2046   1.606   0.024   5.087  0.0553  0.4722  0.0231
  410ODE      C 2047   1.695   0.378   4.917  0.3988 -0.2605  0.2379
  410ODE      D 2048   1.630   0.821   5.012  0.2037 -0.0147 -0.0764
  410ODE      C 2049   1.569   1.096   4.752 -0.0549 -0.1332 -0.0651
  410ODE      C 2050   1.358   1.019   4.363 -0.0428 -0.1942  0.4240
  411ODE      C 2051   5.587   7.059   0.251 -0.0629 -0.1664 -0.3151
  411ODE      C 2052   5.334   7.385   0.208  0.3202  0.0664 -0.0387
  411ODE      D 2053   5.053   7.612  -0.053 -0.3043  0.1481 -0.3136
  411ODE      C 2054   4.722   7.544  -0.245  0.2314 -0.0427  0.3934
  411ODE      C 2055   4.308   7.701  -0.108  0.0271  0.0795 -0.1757
  412ODE      C 2056   3.611   6.885   0.050  0.0341 -0.2404 -0.2900
  412ODE      C 2057   3.845   7.164   0.267 -0.1237  0.2678 -0.0506
  412ODE      D 2058   4.269   7.214   0.253  0.2051 -0.1908 -0.0575
  412ODE      C 2059   4.619   7.594   0.285  0.1424  0.2042  0.0344
  412ODE      C 2060   4.731   7.967   0.063  0.1639  0.4244 -0.1735
  413ODE      C 2061   0.994   2.895   5.602 -0.0476 -0.0645 -0.0803
  413ODE      C 2062   1.200   3.281   5.383  0.1781 -0.0338  0.2988
  413ODE      D 2063   1.053   3.697   5.139  0.0522 -0.0722 -0.0016
  413ODE      C 2064   0.553   3.659   5.202 -0.0728 -0.0206  0.2342
  413ODE      C 2065   0.198   3.844   5.496  0.2065 -0.3468 -0.2115
  414ODE      C 2066   1.990   1.509   6.765  0.0829 -0.0248  0.0007
  414ODE      C 2067   2.027   1.216   6.577  0.0694  0.1644  0.1025
  414ODE      D 2068   2.071   1.026   6.196  0.0021  0.0146 -0.0695
  414ODE      C 2069   2.326   0.616   6.179  0.4783  0.1803  0.0039
  414ODE      C 2070   2.377   0.354   5.892 -0.0385 -0.2660 -0.1264
  415ODE      C 2071   2.390   3.309   5.884  0.3242  0.1823 -0.0686
  415ODE      C 2072   2.155   3.034   5.683 -0.1462  0.2152 -0.1952
  415ODE      D 2073   1.902   2.841   5.489 -0.0130 -0.0730  0.1261
  415ODE      C 2074   1.669   2.493   5.858 -0.1439 -0.0527 -0.3469
  415ODE      C 2075   1.427   2.173   5.897 -0.2601 -0.1164 -0.0702
  416ODE      C 2076   5.471   1.963   5.848  0.3735 -0.0789  0.0203
  416ODE      C 2077   5.595   2.203   5.607 -0.0549  0.1039  0.0339
  416ODE      D 2078   5.869   2.303   5.190 -0.1268  0.2138  0.1034
  416ODE      C 2079   6.317   2.417   5.138 -0.0124  0.1251  0.0494
  416ODE      C 2080   6.579   2.701   5.297  0.4616  0.1522  0.3223
  417ODE      C 2081   7.362   0.611   6.050 -0.1873 -0.0222 -0.0263
  417ODE      C 2082   7.082   0.853   5.914 -0.4176  0.1673  0.1353
  417ODE      D 2083   6.885   0.886   5.608 -0.0406 -0.0201 -0.1079
  417ODE      C 2084   6.599   0.725   5.670 -0.1580  0.0929  0.0158
  417ODE      C 2085   6.136   0.729   5.672 -0.2301 -0.1937 -0.3557
  418ODE      C 2086   3.853   1.753   3.148 -0.0292 -0.1190 -0.0736
  418ODE      C 2087   4.185   1.433   3.065 -0.2169  0.1401  0.2193
  418ODE      D 2088   4.508   1.102   2.869 -0.0178 -0.0980  0.1782
  418ODE      C 2089   4.890   1.023   2.725  0.0690  0.0470  0.2333
  418ODE      C 2090   5.126   1.342   2.900  0.0302  0.2795  0.1092
  419ODE      C 2091   0.251   0.021   2.117  0.1775  0.0607  0.1897
  419ODE      C 2092   0.275   0.424   2.199 -0.0294 -0.0429  0.2134
  419ODE      D 2093   0.244   0.839   2.102  0.1689  0.1366  0.2241
  419ODE      C 2094  -0.206   0.896   2.078 -0.1270 -0.0347  0.1566
  419ODE      C 2095  -0.348   1.266   2.168  0.0215  0.1552  0.1767
  420ODE      C 2096   5.439   5.995   2.378  0.0072 -0.1970 -0.0222
  420ODE      C 2097   4.948   5.935   2.304 -0.2024 -0.0761  0.1179
  420ODE      D 2098   4.484   5.989   2.200 -0.0853 -0.0427 -0.2110
  420ODE      C 2099   4.039   6.027   2.444 -0.0557  0.2694 -0.2244
  420ODE      C 2100   3.738   6.177   2.199  0.0870  0.0336  0.0389
  421ODE      C 2101   2.667   5.457   4.255 -0.2129  0.1101  0.0553
  421ODE      C 2102   2.373   5.127   4.060  0.1832 -0.0856 -0.4031
  421ODE      D 2103   1.926   4.974   4.142 -0.0590 -0.1501  0.1802
  421ODE      C 2104   1.774   5.181   4.463 -0.0164 -0.2478  0.3083
  421ODE      C 2105   1.707   5.154   4.959  0.0470 -0.3490 -0.0990
  422ODE      C 2106   5.368   0.128   6.385 -0.2044 -0.2173 -0.0578
  422ODE      C 2107   4.896   0.226   6.124 -0.0815  0.1931  0.1931
  422ODE      D 2108   4.624   0.123   5.772  0.0544 -0.0398  0.1512
  422ODE      C 2109   4.840  -0.221   5.616 -0.1750 -0.0529  0.1504
  422ODE      C 2110   5.154  -0.228   5.252  0.0176 -0.0577 -0.2795
  423ODE      C 2111   1.895   0.890   6.957 -0.2224 -0.0465 -0.1655
  423ODE      C 2112   2.241   1.004   7.158 -0.1555 -0.1348  0.0756
  423ODE      D 2113   2.612   1.008   7.058 -0.3930  0.0838  0.1556
  423ODE      C 2114   2.870   0.692   6.831  0.0195  0.0964  0.0428
  423ODE      C 2115   2.951   0.179   6.901 -0.1217  0.1187  0.2981
  424ODE      C 2116   3.982   5.125   1.190  0.0503  0.2003  0.0063
  424ODE      C 2117   4.076   5.388   1.494 -0.2759  0.0590  0.1108
  424ODE      D 2118   4.272   5.716   1.712 -0.0242 -0.2055  0.0009
  424ODE      C 2119   4.043   6.102   1.860 -0.0926  0.1874 -0.1301
  424ODE      C 2120   3.834   6.529   1.763  0.0076 -0.0642  0.4541
  425ODE      C 2121   4.803   3.784   1.351  0.1540 -0.4068  0.1097
  425ODE      C 2122   4.952   3.944   0.956  0.1276  0.1472 -0.2547
  425ODE      D 2123   5.109   4.321   0.918  0.0417  0.0854  0.0691
  425ODE      C 2124   4.767   4.536   1.182  0.1299 -0.1468 -0.2215
  425ODE      C 2125   4.432   4.378   1.392  0.2124  0.2241  0.1417
  426ODE      C 2126   7.362   2.110   4.364  0.0530  0.4056  0.0927
  426ODE      C 2127   7.406   2.522   4.630  0.1726  0.1418 -0.0641
  426ODE      D 2128   7.218   2.920   4.586  0.3261  0.0150  0.4695
  426ODE      C 2129   6.973   2.978   4.929  0.0317  0.0244 -0.0778
  426ODE      C 2130   7.032   3.046   5.320  0.0506 -0.1837 -0.5881
  427ODE      C 2131   6.100   6.844   5.313  0.0811 -0.2041 -0.0276
  427ODE      C 2132   6.181   6.644   5.096 -0.0875  0.3928  0.2446
  427ODE      D 2133   6.536   6.476   5.075  0.2792 -0.0288 -0.0064
  427ODE      C 2134   6.590   6.110   4.633 -0.3294  0.1207 -0.0041
  427ODE      C 2135   6.492   5.929   4.168  0.0025 -0.1662 -0.0665
  428ODE      C 2136   9.206   4.214   1.454  0.3256 -0.1203  0.2987
  428ODE      C 2137   9.526   4.044   1.207 -0.1495  0.2647 -0.0623
  428ODE      D 2138   9.704   4.108   0.781 -0.4381 -0.0921  0.1036
  428ODE      C 2139   9.565   3.896   0.426 -0.0486  0.0172  0.1036
  428ODE      C 2140   9.108   4.066   0.250 -0.0374  0.1348 -0.0717
  429ODE      C 2141   0.934   5.658   6.252 -0.1428 -0.0655  0.2310
  429ODE      C 2142   0.690   5.543   5.861  0.0614  0.0902 -0.3347
  429ODE      D 2143   0.369   5.294   5.818  0.0271 -0.1246 -0.3170
  429ODE      C 2144   0.445   5.069   5.561 -0.0512  0.0763 -0.3682
  429ODE      C 2145   0.293   4.805   5.313 -0.1876  0.0667  0.1791
  430ODE      C 2146   3.909   2.005   4.574  0.0170  0.0966 -0.0247
  430ODE      C 2147   4.267   2.052   4.579  0.1472  0.0853  0.0809
  430ODE      D 2148   4.441   2.454   4.568 -0.0349 -0.0211 -0.1300
  430ODE      C 2149   4.203   2.678   4.565 -0.2111 -0.0329  0.1218
  430ODE      C 2150   3.856   2.825   4.395  0.0538 -0.0956  0.0669
  431ODE      C 2151   5.167   6.230   5.933 -0.0040  0.1291 -0.1002
  431ODE      C 2152   5.260   6.408   6.310  0.0539  0.5174 -0.0533
  431ODE      D 2153   5.378   6.702   6.564  0.2222 -0.0975  0.0177
  431ODE      C 2154   5.763   6.875   6.448 -0.0030 -0.1862  0.1370
  431ODE      C 2155   6.175   6.995   6.272 -0.0751  0.2044  0.0550
  432ODE      C 2156   4.188   1.688   0.468 -0.0899 -0.1942  0.2895
  432ODE      C 2157   4.448   1.329   0.387 -0.0723 -0.3591  0.1731
  432ODE      D 2158   4.584   1.228   0.043 -0.2665 -0.3594  0.3378
  432ODE      C 2159   4.948   1.470  -0.090  0.2382  0.1453 -0.0112
  432ODE      C 2160   5.298   1.317  -0.382  0.1194  0.0101  0.1418
  433ODE      C 2161   1.967   4.427   5.660 -0.0949  0.0503  0.0747
  433ODE      C 2162   1.939   4.868   5.892 -0.0579 -0.0968 -0.1395
  433ODE      D 2163   1.915   5.275   6.124  0.0526 -0.1558 -0.3027
  433ODE      C 2164   2.233   5.569   6.028 -0.0195 -0.0425 -0.0165
  433ODE      C 2165   2.322   5.678   5.620 -0.1246 -0.0117 -0.2587
  434ODE      C 2166   8.930   0.579   2.100  0.0438  0.0391 -0.0407
  434ODE      C 2167   8.702   1.008   2.035 -0.0914 -0.2659  0.0467
  434ODE      D 2168   8.647   1.233   2.332  0.1479  0.2311  0.0361
  434ODE      C 2169   8.595   1.033   2.730  0.0713  0.1755  0.3316
  434ODE      C 2170   8.485   0.934   3.169  0.0426  0.0941 -0.0070
  435ODE      C 2171   2.488   3.197   6.372  0.1984  0.0180 -0.1370
  435ODE      C 2172   2.542   3.362   6.676  0.1438 -0.1548 -0.0384
  435ODE      D 2173   2.597   3.226   7.106  0.0286 -0.1015 -0.0287
  435ODE      C 2174   2.416   3.370   7.370  0.1003  0.0966  0.0363
  435ODE      C 2175   2.233   3.665   7.487  0.0665 -0.1302 -0.1336
  436ODE      C 2176   2.087   5.434   5.186 -0.0414 -0.1727  0.0989
  436ODE      C 2177   2.223   4.994   5.092 -0.1469 -0.1092 -0.1496
  436ODE      D 2178   2.353   4.735   5.479  0.0568 -0.1219  0.0314
  436ODE      C 2179   2.622   4.710   5.897  0.3389 -0.0627  0.1766
  436ODE      C 2180   2.830   4.432   6.023 -0.2214  0.1364 -0.2238
  437ODE      C 2181   2.429   3.174   1.403  0.1117 -0.2521  0.0280
  437ODE      C 2182   2.716   3.036   1.779 -0.3709 -0.1300 -0.0168
  437ODE      D 2183   2.725   3.209   2.144 -0.1031 -0.0284 -0.1623
  437ODE      C 2184   2.696   3.647   2.269 -0.0176  0.0719 -0.1121
  437ODE      C 2185   2.784   3.893   2.666  0.0668  0.3975  0.2992
  438ODE      C 2186   4.303   4.120   7.092 -0.0563 -0.0429 -0.1698
  438ODE      C 2187   3.941   4.205   7.417  0.1204 -0.0043 -0.3495
  438ODE      D 2188   3.567   4.215   7.605  0.1124  0.0763  0.0506
  438ODE      C 2189   3.420   4.234   8.071  0.0443  0.0115 -0.0891
  438ODE      C 2190   3.097   4.386   8.328  0.0105 -0.0940 -0.0171
  439ODE      C 2191   6.157   0.750   4.378  0.3119 -0.3177 -0.1213
  439ODE      C 2192   6.221   0.397   3.906  0.0328 -0.0405  0.0493
  439ODE      D 2193   6.193   0.115   3.565  0.0472 -0.1137  0.0019
  439ODE      C 2194   6.455   0.112   3.203 -0.0038 -0.1283  0.0929
  439ODE      C 2195   6.506   0.163   2.774  0.3259  0.0743 -0.0805
  440ODE      C 2196   8.248   6.054   4.532 -0.1538 -0.2583 -0.1423
  440ODE      C 2197   8.323   6.448   4.408  0.0380  0.3489 -0.3109
  440ODE      D 2198   8.390   6.828   4.593 -0.1763  0.0832 -0.1249
  440ODE      C 2199   8.669   6.779   4.819  0.0895  0.0722  0.0160
  440ODE      C 2200   8.835   6.658   5.120  0.2750 -0.0873 -0.0628
  441ODE      C 2201   8.985   0.334   4.172 -0.1023 -0.1105 -0.1538
  441ODE      C 2202   8.973   0.144   3.755 -0.1709 -0.1058 -0.0138
  441ODE      D 2203   9.083  -0.048   3.322 -0.4514  0.1636  0.1196
  441ODE      C 2204   9.539   0.073   3.122  0.0052 -0.1037  0.1537
  441ODE      C 2205   9.999  -0.018   3.171 -0.4340  0.1476 -0.1525
  442ODE      C 2206   4.269   4.305   6.634 -0.0678 -0.0655 -0.2121
  442ODE      C 2207   4.467   4.219   6.292  0.2198  0.0402 -0.1034
  442ODE      D 2208   4.833   4.256   5.984 -0.0261  0.0656 -0.1847
  442ODE      C 2209   5.078   4.560   5.879 -0.1895  0.1211  0.2592
  442ODE      C 2210   5.252   4.820   6.193 -0.1449  0.1525 -0.5053
  443ODE      C 2211   2.539   5.788   4.565  0.0940 -0.0882  0.0537
  443ODE      C 2212   2.608   6.100   4.407  0.0151  0.1624  0.0661
  443ODE      D 2213   2.326   6.419   4.210 -0.2711  0.0789 -0.2738
  443ODE      C 2214   2.042   6.658   4.486 -0.0061 -0.1574  0.1514
  443ODE      C 2215   1.724   6.773   4.729  0.1907  0.2123  0.0440
  444ODE      C 2216   1.067   6.410   5.212  0.2315 -0.0369 -0.2343
  444ODE      C 2217   1.378   6.464   4.871 -0.2828 -0.0263  0.0942
  444ODE      D 2218   1.326   6.415   4.444  0.0287  0.2893  0.2141
  444ODE      C 2219   1.630   6.453   4.318 -0.3025  0.0430  0.0606
  444ODE      C 2220   1.859   6.596   3.965  0.0788 -0.1131 -0.3456
  445ODE      C 2221   1.982   4.849   4.700 -0.0954  0.0881  0.1584
  445ODE      C 2222   1.666   4.683   4.481 -0.1470  0.1370 -0.0962
  445ODE      D 2223   1.399   4.838   4.149  0.2638 -0.1988  0.2776
  445ODE      C 2224   1.382   5.102   3.849  0.2857 -0.0791  0.1787
  445ODE      C 2225   1.200   5.146   3.593  0.1785  0.3770  0.2408
  446ODE      C 2226   2.069   0.027   3.037  0.1141 -0.1243  0.0083
  446ODE      C 2227   1.898  -0.441   3.184  0.3699 -0.0089  0.2398
  446ODE      D 2228   1.617  -0.639   3.399  0.0289  0.0538 -0.1569
  446ODE      C 2229   1.175  -0.811   3.357 -0.1885 -0.1047 -0.2096
  446ODE      C 2230   0.838  -1.026   3.193 -0.1115 -0.0876 -0.0783
  447ODE      C 2231   7.215   3.833   5.950 -0.3343 -0.1917  0.1612
  447ODE      C 2232   6.970   4.057   5.633  0.0232  0.0271 -0.0172
  447ODE      D 2233   7.015   4.404   5.441  0.0053 -0.0198  0.1354
  447ODE      C 2234   6.809   4.899   5.392  0.3523  0.0885 -0.0188
  447ODE      C 2235   6.512   4.985   5.065 -0.1493  0.0637  0.1199
  448ODE      C 2236   6.723   3.949   0.980 -0.0904 -0.0349 -0.1771
  448ODE      C 2237   6.331   4.274   1.093 -0.1019 -0.3414 -0.1031
  448ODE      D 2238   6.430   4.687   1.148  0.0292 -0.1126  0.0875
  448ODE      C 2239   6.274   4.828   1.469  0.2456  0.3666  0.1566
  448ODE      C 2240   5.878   4.842   1.672 -0.1102  0.2841  0.0409
  449ODE      C 2241   1.708   5.652   5.895  0.3008  0.1509  0.0596
  449ODE      C 2242   1.882   5.403   5.625  0.1161  0.1085  0.4335
  449ODE      D 2243   1.886   4.985   5.428  0.1920 -0.4044  0.1451
  449ODE      C 2244   1.804   4.663   5.177  0.1932 -0.2848 -0.1317
  449ODE      C 2245   1.792   4.319   4.806 -0.0833  0.2448 -0.1413
  450ODE      C 2246   4.290   0.508   6.628 -0.1460 -0.2359 -0.0559
  450ODE      C 2247   3.878   0.465   6.768 -0.0779  0.1108 -0.1389
  450ODE      D 2248   3.803   0.485   7.239 -0.4137 -0.0981 -0.0073
  450ODE      C 2249   3.562   0.779   7.275  0.2092 -0.0744 -0.0406
  450ODE      C 2250   3.352   1.160   7.419  0.1142  0.2659  0.0469
  451ODE      C 2251   0.307   0.440   3.269  0.0451  0.0831 -0.1412
  451ODE      C 2252   0.375   0.263   3.684  0.4309  0.0133 -0.1113
  451ODE      D 2253   0.455   0.013   4.003 -0.0905  0.0929 -0.4121
  451ODE      C 2254   0.795   0.023   4.095  0.0022  0.2903 -0.1017
  451ODE      C 2255   1.280   0.070   4.040  0.3600 -0.1076  0.0454
  452ODE      C 2256   8.385   4.583   0.278  0.0589 -0.0076  0.0532
  452ODE      C 2257   8.601   4.413   0.002 -0.2687  0.1459  0.0632
  452ODE      D 2258   8.975   4.300  -0.194  0.1167  0.2562 -0.0487
  452ODE      C 2259   9.361   4.216  -0.147  0.1597 -0.1028 -0.1505
  452ODE      C 2260   9.742   4.029  -0.057  0.1183 -0.2932 -0.0253
  453ODE      C 2261   6.129   5.845   5.859  0.2113 -0.3704  0.2247
  453ODE      C 2262   6.580   5.704   6.007 -0.0868  0.3483 -0.2371
  453ODE      D 2263   6.919   5.856   6.317  0.0987  0.1001  0.3478
  453ODE      C 2264   6.894   6.257   6.375  0.0833 -0.1930  0.0780
  453ODE      C 2265   6.686   6.620   6.405  0.0861  0.0347 -0.1747
  454ODE      C 2266   7.258   3.997   0.290 -0.0326  0.3867 -0.4062
  454ODE      C 2267   7.323   4.383   0.247 -0.0786  0.3499 -0.2976
  454ODE      D 2268   7.478   4.711  -0.027 -0.1374  0.0681  0.0900
  454ODE      C 2269   7.838   4.530  -0.332 -0.2351  0.1125  0.0406
  454ODE      C 2270   8.044   4.170  -0.244  0.2909  0.3450  0.1753
  455ODE      C 2271   1.052   0.966   2.138 -0.0246  0.1841  0.1342
  455ODE      C 2272   1.309   0.691   2.285  0.2236 -0.1514  0.1959
  455ODE      D 2273   1.510   0.371   2.479 -0.1836  0.1535 -0.1092
  455ODE      C 2274   1.545   0.305   2.946  0.1005 -0.0166 -0.0442
  455ODE      C 2275   1.609  -0.049   3.284 -0.3026  0.1680 -0.3768
  456ODE      C 2276   8.035   1.141   6.052 -0.1132  0.1690 -0.1347
  456ODE      C 2277   8.323   1.078   5.663  0.2319 -0.0608  0.0916
  456ODE      D 2278   8.360   1.457   5.381 -0.1060  0.0623  0.0487
  456ODE      C 2279   8.311   1.774   5.111  0.0313 -0.1315  0.0661
  456ODE      C 2280   8.377   2.208   5.016  0.4737  0.0589  0.0839
  457ODE      C 2281   4.390   4.046   0.527 -0.0546 -0.0626 -0.0268
  457ODE      C 2282   4.019   3.779   0.472 -0.2806  0.0534  0.2727
  457ODE      D 2283   3.647   3.788   0.626  0.2636 -0.0919 -0.1086
  457ODE      C 2284   3.356   3.448   0.333  0.2957 -0.0725 -0.2200
  457ODE      C 2285   3.135   3.161   0.069  0.0713  0.2400 -0.0794
  458ODE      C 2286   3.292   5.771   6.822 -0.0567  0.0145  0.0597
  458ODE      C 2287   2.918   5.889   6.952  0.0498  0.2032  0.2245
  458ODE      D 2288   2.548   6.114   7.044 -0.1580  0.0251 -0.1552
  458ODE      C 2289   2.295   5.844   7.340  0.0345 -0.3363  0.2204
  458ODE      C 2290   2.400   5.776   7.788  0.4883 -0.0712  0.0990
  459ODE      C 2291   5.254   6.286   1.993  0.1154 -0.1469 -0.0750
  459ODE      C 2292   5.548   5.999   1.823 -0.0949  0.0787  0.1188
  459ODE      D 2293   5.617   6.037   1.350  0.0223  0.2721 -0.1481
  459ODE      C 2294   5.888   5.717   1.242  0.0968 -0.1654  0.1771
  459ODE      C 2295   6.180   5.655   0.883  0.1564  0.2039 -0.3058
  460ODE      C 2296   8.750   2.639   4.286  0.1051  0.0834  0.0459
  460ODE      C 2297   9.058   2.662   4.465  0.3096  0.1313 -0.0836
  460ODE      D 2298   9.071   3.059   4.664 -0.0204 -0.0728 -0.0406
  460ODE      C 2299   9.476   3.238   4.803 -0.2303  0.0719  0.1921
  460ODE      C 2300   9.802   3.478   4.768  0.1181  0.1458  0.2382
  461ODE      C 2301   7.844   3.412   4.365 -0.0158 -0.1779 -0.1722
  461ODE      C 2302   7.456   3.447   4.392  0.0902  0.0403 -0.0870
  461ODE      D 2303   6.982   3.409   4.530 -0.0229 -0.0138  0.3136
  461ODE      C 2304   6.678   3.122   4.487 -0.0881 -0.0888 -0.1084
  461ODE      C 2305   6.713   2.783   4.297 -0.0177  0.0647  0.3480
  462ODE      C 2306   6.758   5.115   1.224 -0.1825 -0.1678  0.2991
  462ODE      C 2307   6.408   5.283   1.166 -0.0185  0.0599 -0.3008
  462ODE      D 2308   5.915   5.213   1.098  0.1261  0.0428  0.0760
  462ODE      C 2309   5.712   4.952   0.649 -0.1015  0.1268  0.2705
  462ODE      C 2310   5.438   4.791   0.233  0.0297  0.1208  0.0952
  463ODE      C 2311   5.603   4.144   6.897  0.4377 -0.1226 -0.1709
  463ODE      C 2312   5.668   4.263   6.520  0.2493  0.2976 -0.2897
  463ODE      D 2313   5.817   4.109   6.168 -0.1006  0.0972  0.0603
  463ODE      C 2314   5.593   4.394   5.907  0.2634  0.3198  0.2188
  463ODE      C 2315   5.662   4.419   5.437 -0.1087  0.1753  0.4444
  464ODE      C 2316   8.082   3.201   2.410  0.1798 -0.2944  0.3477
  464ODE      C 2317   8.309   3.159   2.814 -0.0426 -0.0413 -0.1534
  464ODE      D 2318   8.355   3.028   3.207  0.0344  0.4278  0.0886
  464ODE      C 2319   8.158   3.136   3.596  0.1589  0.2202  0.0781
  464ODE      C 2320   7.819   3.287   3.843  0.2188  0.1534  0.1580
  465ODE      C 2321   7.997   2.733   5.199 -0.0968  0.2915 -0.0825
  465ODE      C 2322   8.070   3.060   5.175 -0.1275 -0.3651  0.0432
  465ODE      D 2323   8.220   3.446   5.445 -0.1133  0.1411 -0.0503
  465ODE      C 2324   8.627   3.491   5.660  0.1872  0.1582  0.0508
  465ODE      C 2325   8.823   3.557   6.032 -0.1561 -0.0411 -0.1083
  466ODE      C 2326   6.720   5.948   6.766  0.0107 -0.0079 -0.1564
  466ODE      C 2327   7.040   6.223   6.930 -0.2178 -0.0158 -0.1555
  466ODE      D 2328   7.443   6.530   7.034 -0.1840 -0.0296  0.0953
  466ODE      C 2329   7.249   6.918   7.189 -0.1388  0.0742 -0.0010
  466ODE      C 2330   6.969   7.198   7.035 -0.0678 -0.0882 -0.0394
  467ODE      C 2331   2.017   2.886   1.204 -0.1361  0.0104  0.0557
  467ODE      C 2332   2.306   3.045   0.866 -0.1396  0.0592  0.3312
  467ODE      D 2333   2.479   2.966   0.479  0.1083  0.0700  0.1917
  467ODE      C 2334   2.188   2.672   0.226 -0.4335  0.0142 -0.0438
  467ODE      C 2335   1.757   2.705   0.027 -0.0473  0.3374  0.0970
  468ODE      C 2336   0.301   4.021   1.634  0.1183  0.1260 -0.2038
  468ODE      C 2337   0.132   3.585   1.447 -0.1362  0.1584  0.0496
  468ODE      D 2338  -0.126   3.249   1.356 -0.5867  0.0526  0.2557
  468ODE      C 2339  -0.390   3.203   1.034  0.0428 -0.0406  0.2500
  468ODE      C 2340  -0.469   2.974   0.573  0.0426  0.3872 -0.0420
  469ODE      C 2341   5.942   6.289   1.630 -0.2515  0.0875 -0.1336
  469ODE      C 2342   6.178   6.437   2.055  0.1998  0.1168  0.1750
  469ODE      D 2343   6.379   6.296   2.256 -0.3786 -0.2549 -0.1089
  469ODE      C 2344   6.827   6.532   2.262  0.1558 -0.1201  0.1403
  469ODE      C 2345   7.151   6.834   2.061  0.3730  0.1149 -0.0438
  470ODE      C 2346   9.091   7.005   6.076 -0.2834  0.0281  0.1331
  470ODE      C 2347   9.132   6.649   6.290 -0.0236 -0.1890 -0.1079
  470ODE      D 2348   8.995   6.570   6.641 -0.1076 -0.5478 -0.1173
  470ODE      C 2349   8.793   6.794   7.001  0.2659  0.0166  0.4063
  470ODE      C 2350   8.640   7.171   7.376  0.1169  0.2116 -0.3000
  471ODE      C 2351   5.655   2.007   2.532  0.0771  0.0327  0.1227
  471ODE      C 2352   5.269   2.139   2.326 -0.0977 -0.1770 -0.3170
  471ODE      D 2353   5.010   2.481   2.358  0.2499 -0.0826  0.2444
  471ODE      C 2354   4.699   2.469   2.712 -0.0302  0.1536  0.5153
  471ODE      C 2355   4.569   2.470   3.158  0.1781 -0.0517 -0.4461
  472ODE      C 2356   2.595   5.652   1.588 -0.2089 -0.0677  0.0512
  472ODE      C 2357   2.681   5.985   1.908 -0.2417  0.0995 -0.1494
  472ODE      D 2358   3.077   6.013   2.020 -0.1441 -0.1767  0.2094
  472ODE      C 2359   3.340   5.730   2.264  0.1063 -0.0712  0.3873
  472ODE      C 2360   3.474   5.483   2.464 -0.1925 -0.0128 -0.0358
  473ODE      C 2361   6.784   5.937   1.629 -0.2114 -0.1574  0.4237
  473ODE      C 2362   6.453   6.182   1.703 -0.1391  0.1438 -0.0969
  473ODE      D 2363   6.416   6.570   1.401 -0.1226  0.2350 -0.0751
  473ODE      C 2364   6.545   7.061   1.385  0.1372  0.0629 -0.2224
  473ODE      C 2365   6.409   7.479   1.199  0.0318  0.1639 -0.2209
  474ODE      C 2366   0.075   3.213   2.394  0.2296  0.4244 -0.1524
  474ODE      C 2367   0.402   3.226   2.522 -0.0536  0.1514  0.0341
  474ODE      D 2368   0.561   2.980   2.843  0.1649  0.2051 -0.1658
  474ODE      C 2369   0.231   2.754   3.097 -0.1837  0.1806 -0.2234
  474ODE      C 2370  -0.116   2.680   3.293 -0.3616  0.1856 -0.1357
  475ODE      C 2371   6.717   0.852   7.166 -0.1616 -0.2423  0.5024
  475ODE      C 2372   6.842   1.186   7.482 -0.0155  0.3673 -0.0985
  475ODE      D 2373   6.684   1.375   7.744  0.3760 -0.1531  0.3638
  475ODE      C 2374   6.811   1.838   7.523 -0.1150  0.2096  0.0573
  475ODE      C 2375   7.008   2.164   7.203  0.1335 -0.0872 -0.2887
  476ODE      C 2376   0.739   0.870   0.717 -0.0762  0.0696  0.1295
  476ODE      C 2377   0.646   0.567   0.373 -0.2956  0.3534 -0.0402
  476ODE      D 2378   0.299   0.357   0.256  0.1602  0.0811  0.0700
  476ODE      C 2379  -0.065   0.636   0.013  0.1315 -0.2001  0.1163
  476ODE      C 2380  -0.064   1.060  -0.136  0.2147  0.0643  0.0625
  477ODE      C 2381   4.608   6.871   4.109 -0.2249 -0.2387 -0.0436
  477ODE      C 2382   5.035   6.831   4.386  0.0443  0.0538  0.0274
  477ODE      D 2383   5.414   6.695   4.602 -0.0239 -0.0801  0.0585
  477ODE      C 2384   5.516   6.675   5.022 -0.2612  0.3122 -0.4424
  477ODE      C 2385   5.790   6.402   5.261  0.1067  0.0014  0.3356
  478ODE      C 2386   7.508   0.833   3.817 -0.2471 -0.0870 -0.1490
  478ODE      C 2387   7.259   0.568   3.671 -0.2589  0.0343  0.0477
  478ODE      D 2388   7.001   0.438   3.824  0.4399 -0.1405  0.1663
  478ODE      C 2389   6.678   0.156   3.742 -0.2521  0.0037  0.0648
  478ODE      C 2390   6.441  -0.025   4.004  0.0366  0.0761  0.0113
  479ODE      C 2391   3.371   4.998   2.392  0.0600 -0.1479  0.0578
  479ODE      C 2392   3.640   5.221   1.937  0.4183 -0.1479  0.1973
  479ODE      D 2393   3.624   5.323   1.506 -0.0096 -0.1358 -0.0644
  479ODE      C 2394   3.601   5.754   1.294  0.0245 -0.2290  0.1727
  479ODE      C 2395   3.253   6.007   1.151  0.0585 -0.0354  0.3330
  480ODE      C 2396   4.725   5.885   0.411  0.2027  0.0680 -0.0499
  480ODE      C 2397   5.049   5.724   0.617  0.0692  0.3224  0.1844
  480ODE      D 2398   4.949   5.427   0.942 -0.2154 -0.1877 -0.2817
  480ODE      C 2399   4.800   5.548   1.309  0.2961  0.1159  0.0209
  480ODE      C 2400   4.510   5.898   1.346 -0.1188 -0.2261 -0.0440
  481ODE      C 2401   7.060   5.739   0.910  0.0208  0.0184  0.0319
  481ODE      C 2402   6.756   5.641   1.230 -0.0949  0.2426 -0.1030
  481ODE      D 2403   6.355   5.731   1.470 -0.1076  0.1897  0.0574
  481ODE      C 2404   6.338   5.770   1.894  0.3896 -0.1065  0.0477
  481ODE      C 2405   5.990   5.956   2.070  0.3514 -0.3872 -0.2085
  482ODE      C 2406   3.690   1.277   3.936 -0.2117 -0.0070 -0.0362
  482ODE      C 2407   3.332   1.390   4.140  0.0965 -0.2423  0.1254
  482ODE      D 2408   3.148   1.711   4.369  0.2015 -0.0770  0.0500
  482ODE      C 2409   2.871   1.782   4.694  0.0016 -0.1318 -0.0575
  482ODE      C 2410   2.486   1.732   4.463  0.0918 -0.0681  0.0470
  483ODE      C 2411   3.822   1.595   4.919  0.5893 -0.3584  0.1995
  483ODE      C 2412   3.854   1.942   5.060  0.1982 -0.0528  0.2169
  483ODE      D 2413   3.859   2.146   5.422  0.0872 -0.0474  0.0255
  483ODE      C 2414   4.156   2.165   5.801  0.5511  0.1197  0.1369
  483ODE      C 2415   4.525   2.324   5.984 -0.2138  0.0464 -0.0113
  484ODE      C 2416   4.515   5.079   2.505 -0.0903  0.0314 -0.0187
  484ODE      C 2417   4.305   4.833   2.243  0.3670 -0.0742 -0.0213
  484ODE      D 2418   4.306   4.640   1.810 -0.0466  0.1251  0.0888
  484ODE      C 2419   4.417   4.881   1.499 -0.0810 -0.2124  0.1593
  484ODE      C 2420   4.511   5.213   1.515 -0.0539 -0.0065  0.1612
  485ODE      C 2421   2.944   0.350   3.229  0.0106  0.1605  0.0092
  485ODE      C 2422   3.307   0.566   3.057  0.0131  0.2485  0.0122
  485ODE      D 2423   3.607   0.433   2.756 -0.0258  0.1048 -0.0240
  485ODE      C 2424   3.521   0.321   2.232 -0.0415 -0.0729 -0.1668
  485ODE      C 2425   3.776   0.196   1.838 -0.0060  0.0561  0.0978
  486ODE      C 2426   7.767   2.371   4.185 -0.1223  0.1878 -0.1774
  486ODE      C 2427   7.890   2.715   3.858  0.0047  0.2723 -0.1781
  486ODE      D 2428   8.175   2.663   3.482  0.0722 -0.0923 -0.0663
  486ODE      C 2429   8.156   2.141   3.302  0.1825  0.1539  0.0730
  486ODE      C 2430   8.359   1.944   3.005 -0.1873 -0.0884 -0.0706
  487ODE      C 2431   3.651   4.376   4.612 -0.2232  0.0651  0.0319
  487ODE      C 2432   3.862   4.275   5.043  0.1571  0.1043  0.0725
  487ODE      D 2433   4.093   4.562   5.298  0.0106 -0.3129  0.1814
  487ODE      C 2434   4.117   4.552   5.798 -0.1203 -0.0460 -0.0943
  487ODE      C 2435   3.928   4.426   6.216 -0.1230  0.2014 -0.1088
  488ODE      C 2436   6.033   6.172   0.270 -0.1073  0.1711 -0.1425
  488ODE      C 2437   5.616   6.207  -0.000  0.1280 -0.2040  0.1606
  488ODE      D 2438   5.299   5.801  -0.234 -0.0790  0.2375 -0.0960
  488ODE      C 2439   5.437   5.371  -0.085 -0.0228 -0.1547 -0.0620
  488ODE      C 2440   5.637   5.254   0.263 -0.1778 -0.2525 -0.1158
  489ODE      C 2441   7.029   1.628   0.851  0.1891  0.0014 -0.0054
  489ODE      C 2442   7.220   1.358   1.196  0.0422 -0.0969  0.1148
  489ODE      D 2443   7.434   0.981   1.185 -0.4079 -0.1968  0.0740
  489ODE      C 2444   7.689   0.885   1.503  0.3170 -0.3814 -0.2671
  489ODE      C 2445   7.941   0.500   1.472  0.0369 -0.1016  0.1360
  490ODE      C 2446   1.837   3.343   5.370 -0.1069  0.1625  0.2756
  490ODE      C 2447   1.612   3.536   5.159 -0.0527 -0.1162 -0.0129
  490ODE      D 2448   1.487   3.651   4.836  0.0379 -0.0481  0.2431
  490ODE      C 2449   1.184   3.950   4.728 -0.2665 -0.0360 -0.1642
  490ODE      C 2450   1.014   3.985   4.522  0.1308 -0.0262 -0.1642
  491ODE      C 2451   6.894   2.489   4.740  0.0268  0.2104  0.2833
  491ODE      C 2452   7.071   2.533   5.167 -0.1683 -0.2986  0.1572
  491ODE      D 2453   7.000   2.604   5.605 -0.1914 -0.1738  0.1251
  491ODE      C 2454   6.937   2.366   6.057 -0.0493 -0.0274 -0.2686
  491ODE      C 2455   6.743   2.133   6.343 -0.1769  0.1435 -0.1088
  492ODE      C 2456   9.030   4.039   6.219  0.0773 -0.0589 -0.0897
  492ODE      C 2457   9.021   4.342   6.520  0.1551 -0.0757  0.0599
  492ODE      D 2458   9.180   4.582   6.736 -0.2629  0.1921 -0.0873
  492ODE      C 2459   8.955   4.834   6.986  0.1823 -0.1459  0.0272
  492ODE      C 2460   8.643   4.954   7.228 -0.1874 -0.2493  0.2006
  493ODE      C 2461   3.155   1.004   1.541 -0.1238 -0.1877 -0.0404
  493ODE      C 2462   2.974   1.362   1.663 -0.1179 -0.0212  0.2719
  493ODE      D 2463   2.462   1.403   1.694 -0.0782 -0.2178  0.0750
  493ODE      C 2464   2.236   1.660   2.003  0.0215 -0.2170 -0.0267
  493ODE      C 2465   1.957   2.039   2.019  0.1906  0.0034 -0.2468
  494ODE      C 2466   1.681   5.868   6.796 -0.0069 -0.1200 -0.4175
  494ODE      C 2467   2.130   5.728   6.828  0.1551 -0.0006 -0.0014
  494ODE      D 2468   2.516   5.551   6.971  0.1667  0.0835 -0.0580
  494ODE      C 2469   2.907   5.487   6.707  0.2071 -0.3099  0.2336
  494ODE      C 2470   3.171   5.518   6.314 -0.2217 -0.0837  0.1444
  495ODE      C 2471   2.833   6.452   6.795 -0.2058 -0.0137 -0.1072
  495ODE      C 2472   2.551   6.667   6.871  0.2960 -0.0772  0.0315
  495ODE      D 2473   2.238   6.614   7.133  0.1007 -0.0511  0.1947
  495ODE      C 2474   1.881   6.828   7.334  0.1756  0.1703  0.2592
  495ODE      C 2475   1.465   6.964   7.477 -0.0243 -0.0363  0.1009
  496ODE      C 2476   2.556   0.560   2.709  0.4251  0.0818  0.0756
  496ODE      C 2477   2.809   0.755   2.452 -0.3140  0.1517 -0.1372
  496ODE      D 2478   3.092   1.176   2.357 -0.0438  0.0022  0.1659
  496ODE      C 2479   3.529   1.223   2.523  0.3966 -0.0234 -0.0016
  496ODE      C 2480   3.726   1.402   2.815  0.0526  0.0025  0.0786
  497ODE      C 2481   6.699   0.545   3.362  0.0411  0.0457 -0.1922
  497ODE      C 2482   6.981   0.238   3.354  0.3704 -0.0048  0.2478
  497ODE      D 2483   7.392   0.246   3.168 -0.0886  0.1190  0.0326
  497ODE      C 2484   7.737   0.363   3.515  0.0906  0.0572  0.2050
  497ODE      C 2485   8.162   0.348   3.679 -0.1906 -0.0039  0.2863
  498ODE      C 2486   2.065   0.168   1.838 -0.0660  0.0759 -0.0387
  498ODE      C 2487   2.185   0.320   2.251  0.2988  0.1077 -0.0006
  498ODE      D 2488   1.972   0.283   2.622  0.0914  0.1057  0.1467
  498ODE      C 2489   1.823   0.643   2.762 -0.0838  0.1128 -0.3657
  498ODE      C 2490   1.806   1.165   2.618  0.2058  0.3685 -0.0000
  499ODE      C 2491   1.782   1.763   2.426 -0.1928  0.4629  0.0795
  499ODE      C 2492   1.407   2.057   2.400 -0.1879  0.2230  0.1186
  499ODE      D 2493   1.299   2.449   2.253 -0.2829 -0.0871 -0.1662
  499ODE      C 2494   1.115   2.781   2.561 -0.0128 -0.1029  0.0236
  499ODE      C 2495   1.007   3.223   2.729 -0.0572  0.2546  0.1197
  500ODE      C 2496   4.332   4.782   6.204  0.1621 -0.1610 -0.1721
  500ODE      C 2497   4.689   4.859   6.060 -0.1484 -0.2684  0.1056
  500ODE      D 2498   4.914   5.211   5.908 -0.1573  0.0107 -0.0310
  500ODE      C 2499   5.266   5.285   6.330 -0.0954 -0.1760  0.1056
  500ODE      C 2500   5.090   5.445   6.722 -0.2036  0.1188  0.0869
  501ODE      C 2501   3.611   1.584   4.483 -0.1285  0.0225  0.1216
  501ODE      C 2502   3.580   1.097   4.475  0.0246 -0.1365  0.0591
  501ODE      D 2503   3.360   0.725   4.414  0.0969 -0.0095  0.0577
  501ODE      C 2504   3.375   0.378   4.576 -0.3340  0.1434 -0.2187
  501ODE      C 2505   3.346  -0.008   4.644 -0.0317  0.0797 -0.1493
  502ODE      C 2506   0.831   0.284   3.337  0.3280  0.0375 -0.1357
  502ODE      C 2507   1.172   0.025   3.172 -0.0207  0.0555  0.2643
  502ODE      D 2508   1.312  -0.382   3.027 -0.4390  0.0362  0.2391
  502ODE      C 2509   0.938  -0.763   2.737 -0.0871  0.2418 -0.1014
  502ODE      C 2510   0.507  -0.831   2.507  0.1072 -0.2127  0.1872
  503ODE      C 2511   7.341   2.723   2.366  0.4297 -0.0878 -0.0962
  503ODE      C 2512   7.760   2.685   2.286 -0.1857 -0.1099  0.2737
  503ODE      D 2513   8.220   2.622   2.299 -0.2164 -0.0822  0.3975
  503ODE      C 2514   8.656   2.728   2.438  0.0701 -0.2609  0.0762
  503ODE      C 2515   9.081   2.884   2.446 -0.4584  0.0478  0.0796
  504ODE      C 2516   3.617   4.210   6.544 -0.3244  0.2485  0.0605
  504ODE      C 2517   3.945   3.918   6.431  0.1540  0.1725  0.2369
  504ODE      D 2518   4.410   3.787   6.544 -0.0372  0.0046  0.1713
  504ODE      C 2519   4.641   3.756   6.990  0.1144  0.1764  0.1610
  504ODE      C 2520   4.938   3.639   7.226 -0.1115 -0.2539 -0.1440
  505ODE      C 2521   4.112   5.281   4.783  0.1003  0.1599 -0.0767
  505ODE      C 2522   4.204   5.138   5.149  0.0809 -0.2348  0.2514
  505ODE      D 2523   3.922   5.000   5.534 -0.0902 -0.0818 -0.0643
  505ODE      C 2524   3.699   5.275   5.648 -0.1082 -0.3857  0.1108
  505ODE      C 2525   3.491   5.622   5.854 -0.2027 -0.1234  0.1305
  506ODE      C 2526   1.818   2.248   7.178  0.1853  0.1053 -0.4292
  506ODE      C 2527   2.048   2.448   6.879 -0.3506 -0.0773 -0.0625
  506ODE      D 2528   2.382   2.759   6.954 -0.2958 -0.0158  0.2654
  506ODE      C 2529   2.690   2.895   6.730 -0.1083 -0.0075  0.1881
  506ODE      C 2530   3.000   3.164   6.762  0.0271  0.0950  0.0061
  507ODE      C 2531   8.026   4.715   3.115  0.0316 -0.2187  0.1348
  507ODE      C 2532   7.922   4.801   3.548 -0.0839 -0.1452 -0.0230
  507ODE      D 2533   8.065   5.109   3.856  0.1576  0.1054 -0.1919
  507ODE      C 2534   8.533   5.124   4.093  0.1477 -0.2465 -0.1703
  507ODE      C 2535   8.897   4.878   4.073 -0.1385  0.1467 -0.0978
  508ODE      C 2536   6.149   0.799   5.189  0.2058  0.0460 -0.0626
  508ODE      C 2537   6.337   1.191   5.546 -0.0096  0.1389  0.2756
  508ODE      D 2538   6.354   1.193   5.894  0.1171 -0.2607 -0.1478
  508ODE      C 2539   6.428   1.528   6.126  0.2082  0.6514  0.0520
  508ODE      C 2540   6.292   1.875   6.250  0.1378 -0.0211  0.0795
  509ODE      C 2541   0.734   1.666   0.012 -0.1056  0.3422  0.0695
  509ODE      C 2542   0.978   1.864  -0.256 -0.1694 -0.0327 -0.1197
  509ODE      D 2543   1.197   1.936  -0.648 -0.5093  0.2013  0.2087
  509ODE      C 2544   1.318   1.521  -0.670  0.0477 -0.0162  0.0292
  509ODE      C 2545   1.638   1.380  -0.898 -0.0735  0.1248 -0.0203
  510ODE      C 2546   6.527   1.847   3.090  0.0089  0.2798  0.2839
  510ODE      C 2547   6.006   1.947   3.134  0.1733  0.1866  0.0793
  510ODE      D 2548   5.699   2.040   3.471  0.2888  0.0517  0.2210
  510ODE      C 2549   5.648   1.698   3.618  0.2158  0.0067 -0.2751
  510ODE      C 2550   5.376   1.349   3.832 -0.3378 -0.2765 -0.1674
  511ODE      C 2551   1.778   0.065   0.611  0.0796  0.3594  0.0125
  511ODE      C 2552   1.757  -0.463   0.638 -0.3182 -0.1516 -0.0299
  511ODE      D 2553   1.691  -0.770   0.336 -0.1716 -0.0838  0.2631
  511ODE      C 2554   1.815  -0.831  -0.133 -0.4546  0.2519 -0.1886
  511ODE      C 2555   2.076  -0.891  -0.434  0.3044 -0.0873 -0.0637
  512ODE      C 2556   6.702   6.160   2.626  0.0817 -0.0109  0.0797
  512ODE      C 2557   7.128   6.049   2.857  0.1850  0.1062  0.0992
  512ODE      D 2558   7.508   5.838   2.824  0.0661 -0.0516 -0.1115
  512ODE      C 2559   7.584   5.372   2.826  0.0929  0.0628 -0.0302
  512ODE      C 2560   7.292   4.922   2.832  0.1573 -0.0617 -0.0385
  513ODE      C 2561   1.215   4.072   3.543 -0.0233  0.3154 -0.0215
  513ODE      C 2562   1.498   3.675   3.388 -0.3249  0.2451  0.1593
  513ODE      D 2563   1.796   3.384   3.046 -0.2112  0.3403 -0.2407
  513ODE      C 2564   1.682   3.022   3.332  0.2096 -0.2167  0.0049
  513ODE      C 2565   1.401   2.908   3.644 -0.0718  0.0188 -0.2764
  514ODE      C 2566   1.439   0.263   6.207 -0.0163  0.0984 -0.1480
  514ODE      C 2567   1.612   0.065   6.562  0.3031  0.0959  0.3007
  514ODE      D 2568   1.400  -0.084   7.026 -0.3731 -0.0911  0.1799
  514ODE      C 2569   1.346  -0.482   6.986 -0.2085  0.2153  0.0887
  514ODE      C 2570   1.075  -0.765   6.874  0.0326  0.0109  0.0976
  515ODE      C 2571   6.945   2.946   0.744  0.2219 -0.0260  0.0240
  515ODE      C 2572   6.727   3.064   1.116  0.0374 -0.4050  0.2580
  515ODE      D 2573   6.461   3.131   1.499  0.2041  0.0755 -0.1093
  515ODE      C 2574   6.173   2.791   1.691  0.2996 -0.1308  0.1161
  515ODE      C 2575   5.983   2.809   2.103  0.2174  0.1780 -0.2977
  516ODE      C 2576   0.972   1.353   0.705 -0.0325  0.1420 -0.1793
  516ODE      C 2577   0.734   1.687   0.892 -0.2112 -0.2106  0.1623
  516ODE      D 2578   0.590   2.034   1.315  0.1709  0.0540  0.0027
  516ODE      C 2579   0.237   2.156   1.005  0.0704 -0.0681 -0.1279
  516ODE      C 2580  -0.113   2.152   0.834 -0.2626 -0.1374 -0.0006
  517ODE      C 2581   0.939   4.892   3.971 -0.0961  0.2783 -0.3162
  517ODE      C 2582   0.942   4.733   4.392 -0.2630 -0.0277  0.0514
  517ODE      D 2583   0.674   4.391   4.603  0.0644  0.2287  0.1436
  517ODE      C 2584   0.799   4.133   5.032 -0.1813  0.1684  0.1797
  517ODE      C 2585   0.598   4.115   5.396  0.1254  0.1112 -0.0384
  518ODE      C 2586   5.844   2.525   3.213  0.0572 -0.0927 -0.2468
  518ODE      C 2587   5.976   2.277   2.790 -0.0120 -0.1063 -0.2862
  518ODE      D 2588   6.049   2.300   2.298  0.0835 -0.2157  0.1375
  518ODE      C 2589   6.050   1.859   2.067 -0.1471 -0.2118  0.0012
  518ODE      C 2590   6.092   1.465   1.880 -0.1515  0.2146  0.0963
  519ODE      C 2591   7.590   2.138   1.639 -0.2198 -0.0603  0.2182
  519ODE      C 2592   7.396   2.328   1.272 -0.2725  0.0669 -0.2133
  519ODE      D 2593   7.270   2.109   0.977  0.1697  0.0875 -0.0716
  519ODE      C 2594   7.467   1.751   0.853 -0.2784 -0.0102  0.0427
  519ODE      C 2595   7.507   1.282   0.807  0.1194  0.3000 -0.0523
  520ODE      C 2596   7.190   5.474   0.485  0.3804  0.2906  0.1099
  520ODE      C 2597   7.558   5.463   0.716 -0.1065  0.2250  0.0894
  520ODE      D 2598   7.828   5.188   0.871 -0.0900 -0.1250  0.0103
  520ODE      C 2599   8.347   5.205   0.904 -0.1065 -0.0056  0.0906
  520ODE      C 2600   8.728   5.084   1.157 -0.0442 -0.0440 -0.1403
  521ODE      C 2601   2.292   3.438   2.897 -0.0305 -0.1044  0.1884
  521ODE      C 2602   2.414   3.894   3.137  0.2588  0.0534 -0.0099
  521ODE      D 2603   2.378   4.282   3.443 -0.0617  0.0036 -0.1092
  521ODE      C 2604   2.082   4.431   3.801 -0.0313 -0.3165  0.0002
  521ODE      C 2605   1.623   4.460   4.004 -0.0987  0.0142 -0.0068
  522ODE      C 2606   5.897   5.132   3.211  0.1447 -0.0508 -0.0365
  522ODE      C 2607   5.973   5.358   2.762 -0.2420 -0.1678  0.0243
  522ODE      D 2608   5.773   5.686   2.605 -0.0583 -0.0414 -0.0996
  522ODE      C 2609   5.559   6.047   2.841  0.0539  0.0700 -0.1114
  522ODE      C 2610   5.580   6.408   2.726  0.0684 -0.5145  0.1171
  523ODE      C 2611   1.657   6.347   0.864 -0.0210 -0.2699  0.3008
  523ODE      C 2612   2.047   6.160   0.649  0.1135 -0.2565 -0.1741
  523ODE      D 2613   2.250   6.276   0.263  0.2054  0.0910  0.3699
  523ODE      C 2614   2.721   6.428   0.157 -0.0771 -0.1940 -0.0794
  523ODE      C 2615   3.199   6.485  -0.047 -0.1164  0.0479 -0.0116
  524ODE      C 2616   8.953   6.921   0.709  0.0201 -0.0151 -0.1352
  524ODE      C 2617   8.708   6.441   0.777  0.2657  0.0716 -0.0565
  524ODE      D 2618   8.696   6.098   1.089 -0.2996 -0.3283  0.0045
  524ODE      C 2619   8.795   5.981   1.390 -0.0439 -0.0461  0.1359
  524ODE      C 2620   8.662   5.794   1.708  0.2126 -0.3293  0.1366
  525ODE      C 2621   5.383   3.269   6.574 -0.1691  0.1581 -0.0608
  525ODE      C 2622   5.683   2.864   6.557 -0.3094 -0.1992 -0.1473
  525ODE      D 2623   5.546   2.494   6.415  0.3023  0.0772 -0.3597
  525ODE      C 2624   5.188   2.269   6.182 -0.1575 -0.2210 -0.2080
  525ODE      C 2625   4.786   2.055   6.294  0.0550 -0.0088  0.0878
  526ODE      C 2626   0.808   6.131   2.190  0.2431 -0.0036  0.3163
  526ODE      C 2627   0.951   6.337   1.858 -0.1474  0.0984 -0.1103
  526ODE      D 2628   1.303   6.668   1.877  0.0730 -0.1992 -0.2207
  526ODE      C 2629   1.705   6.486   1.977  0.0339  0.3448  0.1492
  526ODE      C 2630   2.025   6.305   2.179 -0.0501  0.4074 -0.1862
  527ODE      C 2631   6.070   4.276   5.755  0.0135 -0.2055  0.0501
  527ODE      C 2632   6.309   4.098   6.071  0.0772  0.0278  0.0257
  527ODE      D 2633   6.097   3.736   6.142 -0.1125 -0.2061  0.1877
  527ODE      C 2634   6.363   3.472   6.469 -0.1514  0.0649 -0.1547
  527ODE      C 2635   6.296   3.149   6.734 -0.2144  0.1781 -0.3194
  528ODE      C 2636   3.234   3.398   2.289 -0.0183 -0.2545  0.1564
  528ODE      C 2637   3.237   3.746   2.375 -0.1010 -0.2892  0.0186
  528ODE      D 2638   3.009   4.122   2.309 -0.0047  0.2265 -0.2838
  528ODE      C 2639   2.985   4.396   2.657  0.0523 -0.0711 -0.0086
  528ODE      C 2640   2.750   4.589   3.031  0.0637 -0.2643  0.1947
  529ODE      C 2641   6.205   6.869   0.990  0.2425 -0.0794 -0.1638
  529ODE      C 2642   6.218   6.495   0.826 -0.1213  0.0321 -0.0896
  529ODE      D 2643   6.293   6.099   0.661 -0.1101  0.0384 -0.0074
  529ODE      C 2644   6.614   5.861   0.604 -0.0321  0.0278 -0.1754
  529ODE      C 2645   6.719   5.446   0.758 -0.0435  0.1727  0.0599
  530ODE      C 2646   4.400   5.698   4.950 -0.2150 -0.0244  0.0494
  530ODE      C 2647   4.561   6.159   5.053  0.0690 -0.2767 -0.1387
  530ODE      D 2648   4.765   6.501   5.325 -0.0782 -0.2615 -0.1598
  530ODE      C 2649   4.563   6.998   5.193  0.2272 -0.0999  0.3603
  530ODE      C 2650   4.333   7.361   5.384  0.0194 -0.0062 -0.0438
  531ODE      C 2651   3.608   6.381   4.315 -0.0681 -0.0979 -0.0588
  531ODE      C 2652   3.335   6.735   4.396 -0.0628 -0.2914 -0.1895
  531ODE      D 2653   3.008   7.070   4.311  0.1035  0.1018  0.1558
  531ODE      C 2654   3.103   7.541   4.140  0.1773 -0.1792 -0.1151
  531ODE      C 2655   2.731   7.776   4.087 -0.3060 -0.0017  0.3018
  532ODE      C 2656   8.104   4.028   4.035  0.2675  0.0818  0.2251
  532ODE      C 2657   7.763   3.959   4.245  0.0656 -0.3715 -0.2114
  532ODE      D 2658   7.333   3.916   4.115 -0.1554  0.0724 -0.0437
  532ODE      C 2659   7.209   3.946   4.513 -0.1605  0.0528  0.1529
  532ODE      C 2660   7.523   3.790   4.824  0.2018  0.0484  0.1865
  533ODE      C 2661   0.548   2.509   4.521  0.1576  0.0274  0.2215
  533ODE      C 2662   0.676   2.510   4.113  0.0595  0.3293  0.1058
  533ODE      D 2663   0.833   2.344   3.739  0.1918 -0.1790  0.1355
  533ODE      C 2664   1.027   2.497   3.391  0.1486  0.0565  0.0406
  533ODE      C 2665   1.494   2.573   3.222  0.3600  0.1000 -0.2906
  534ODE      C 2666   1.740   3.653   0.677  0.0732  0.2298  0.0383
  534ODE      C 2667   2.182   3.574   0.852  0.1555  0.1266 -0.0880
  534ODE      D 2668   2.603   3.539   0.827  0.2134  0.0066 -0.1759
  534ODE      C 2669   2.791   3.964   0.908  0.2655 -0.1564 -0.0035
  534ODE      C 2670   2.835   4.334   0.610 -0.3426  0.1584 -0.1267
  535ODE      C 2671   6.198   1.429   6.718  0.3764  0.0111  0.0643
  535ODE      C 2672   5.816   1.364   6.508  0.0575  0.4425 -0.1404
  535ODE      D 2673   5.395   1.312   6.296 -0.4518  0.0497  0.2048
  535ODE      C 2674   5.203   0.914   6.410  0.0248  0.1055  0.0238
  535ODE      C 2675   5.097   0.877   6.815  0.2133 -0.0170 -0.1980
  536ODE      C 2676   3.225   0.792   2.654 -0.2529 -0.2518 -0.0048
  536ODE      C 2677   3.224   1.115   2.894  0.5023 -0.2007  0.0655
  536ODE      D 2678   3.058   1.526   2.816 -0.0264  0.1554 -0.1811
  536ODE      C 2679   3.403   1.758   2.740  0.2704  0.0504  0.0220
  536ODE      C 2680   3.625   1.886   2.346 -0.0545  0.1125 -0.2080
  537ODE      C 2681   9.018   4.100   4.749  0.0063 -0.1608  0.0318
  537ODE      C 2682   8.989   4.445   4.975 -0.0538  0.3018  0.2969
  537ODE      D 2683   8.719   4.810   4.811  0.0635  0.0519 -0.1270
  537ODE      C 2684   8.354   4.928   4.557 -0.3013 -0.0012  0.1016
  537ODE      C 2685   8.078   5.215   4.360 -0.0156  0.1412 -0.0926
  538ODE      C 2686   2.048   4.947   3.632  0.3503 -0.0130  0.1802
  538ODE      C 2687   1.951   5.396   3.784  0.0485 -0.3286  0.1052
  538ODE      D 2688   1.588   5.706   3.777 -0.1191  0.0334 -0.0295
  538ODE      C 2689   1.262   5.577   3.832 -0.4148 -0.1310  0.0544
  538ODE      C 2690   0.894   5.386   3.825  0.0489 -0.1059  0.2169
  539ODE      C 2691   1.843   0.315   5.391 -0.1842  0.0413  0.1787
  539ODE      C 2692   1.802   0.283   5.844  0.0163  0.0982 -0.0493
  539ODE      D 2693   1.935   0.193   6.216 -0.1278  0.0920  0.2123
  539ODE      C 2694   1.827   0.540   6.434  0.1978  0.4093  0.0928
  539ODE      C 2695   1.621   0.933   6.520 -0.1557 -0.1756  0.2778
  540ODE      C 2696   8.338   3.132   5.981  0.1050 -0.0570 -0.0312
  540ODE      C 2697   8.737   2.922   5.979  0.0673  0.1760 -0.1743
  540ODE      D 2698   8.857   2.789   5.654 -0.2456  0.2254  0.1554
  540ODE      C 2699   8.847   2.944   5.196  0.1458  0.2251  0.0927
  540ODE      C 2700   8.666   3.315   4.933 -0.1460  0.0716 -0.0975
  541ODE      C 2701   8.318   1.824   0.734 -0.1820 -0.1466 -0.2802
  541ODE      C 2702   8.196   2.191   0.757  0.0249  0.0671 -0.0265
  541ODE      D 2703   8.361   2.542   0.894  0.1136 -0.3329  0.0029
  541ODE      C 2704   8.771   2.427   1.096 -0.1056  0.1601  0.2048
  541ODE      C 2705   9.184   2.669   0.961 -0.0953  0.3288 -0.1731
  542ODE      C 2706   4.122   3.595   7.119 -0.2118 -0.2711 -0.0362
  542ODE      C 2707   4.053   3.389   7.393  0.2952 -0.2589  0.1994
  542ODE      D 2708   4.273   3.062   7.635  0.2945 -0.1628 -0.1595
  542ODE      C 2709   4.224   2.574   7.710  0.0447  0.0018 -0.3122
  542ODE      C 2710   4.066   2.296   7.911  0.1108  0.0807 -0.1284
  543ODE      C 2711   3.780   2.195   6.778 -0.3657 -0.0192  0.1534
  543ODE      C 2712   3.937   2.503   6.423  0.0462 -0.2034  0.0665
  543ODE      D 2713   4.163   2.674   6.027  0.1639 -0.1191 -0.1603
  543ODE      C 2714   4.615   2.879   6.018  0.0855 -0.2328  0.2587
  543ODE      C 2715   5.051   2.913   6.075  0.2413  0.2198  0.2885
  544ODE      C 2716   1.420   3.298   1.940 -0.0509  0.0942 -0.3013
  544ODE      C 2717   1.314   3.420   1.567 -0.0580  0.0711  0.2128
  544ODE      D 2718   1.112   3.819   1.338  0.1927  0.0042  0.2444
  544ODE      C 2719   0.805   4.062   1.557  0.1300  0.0370  0.0410
  544ODE      C 2720   0.645   3.969   1.975  0.1799  0.0939  0.0349
  545ODE      C 2721   3.395   1.504   3.248 -0.0290  0.1606 -0.4061
  545ODE      C 2722   3.172   1.487   3.680  0.0269  0.1430 -0.0477
  545ODE      D 2723   3.086   1.829   3.874 -0.1161  0.0470 -0.1893
  545ODE      C 2724   2.770   1.928   4.079  0.2739 -0.0203 -0.1132
  545ODE      C 2725   2.286   1.927   4.062  0.1301 -0.1507 -0.0553
  546ODE      C 2726   8.513   6.538   1.313 -0.0611  0.0163  0.1271
  546ODE      C 2727   8.642   6.888   1.103 -0.0650  0.0015 -0.0180
  546ODE      D 2728   9.068   7.160   1.153  0.1975 -0.0806 -0.1886
  546ODE      C 2729   9.284   7.365   0.886 -0.2256  0.0689  0.0429
  546ODE      C 2730   9.533   7.660   0.811  0.1984  0.0369 -0.2418
  547ODE      C 2731   6.134   5.691   6.761  0.3538  0.1000 -0.0327
  547ODE      C 2732   6.193   6.073   6.997  0.0433 -0.1237 -0.2860
  547ODE      D 2733   6.111   6.528   7.138 -0.0063  0.4030  0.1831
  547ODE      C 2734   6.275   6.665   7.492  0.1153  0.3655  0.3327
  547ODE      C 2735   6.178   7.053   7.654  0.1219 -0.0991 -0.1281
  548ODE      C 2736   8.306   6.823   5.153 -0.2289  0.3721  0.1937
  548ODE      C 2737   8.505   6.652   5.543 -0.1246  0.1706 -0.0230
  548ODE      D 2738   8.847   6.637   5.792 -0.0583  0.1414  0.1556
  548ODE      C 2739   9.001   6.389   5.855 -0.3002 -0.1921 -0.0895
  548ODE      C 2740   8.959   6.003   5.853 -0.1946  0.2473 -0.0959
  549ODE      C 2741   2.671   5.821   2.935  0.0294 -0.2119 -0.0169
  549ODE      C 2742   2.706   5.486   2.646 -0.0797 -0.0937  0.1262
  549ODE      D 2743   2.988   5.335   2.327 -0.0586  0.5645  0.0557
  549ODE      C 2744   3.055   5.522   1.911  0.2604  0.1836 -0.1997
  549ODE      C 2745   3.138   5.581   1.506  0.1708  0.1532  0.2255
  550ODE      C 2746   1.899   3.387   4.619  0.1823 -0.1179 -0.3349
  550ODE      C 2747   1.766   2.907   4.413 -0.3709 -0.2056  0.3485
  550ODE      D 2748   1.567   2.537   4.641 -0.0060 -0.4572 -0.0366
  550ODE      C 2749   1.172   2.608   4.480  0.0254  0.0482 -0.2807
  550ODE      C 2750   0.802   3.040   4.286 -0.1487  0.2748 -0.1850
  551ODE      C 2751   8.941   3.249   2.104 -0.0005  0.0187  0.0280
  551ODE      C 2752   9.212   3.500   1.826 -0.0744  0.1087 -0.2750
  551ODE      D 2753   9.451   3.835   1.867 -0.0902  0.0174 -0.1703
  551ODE      C 2754   9.652   3.986   2.216 -0.2176  0.2420 -0.2838
  551ODE      C 2755   9.868   3.813   2.596  0.0390  0.2926 -0.0421
  552ODE      C 2756   7.739   2.628   6.484  0.3793 -0.0541  0.1455
  552ODE      C 2757   7.431   2.527   6.219 -0.0756  0.1222 -0.0306
  552ODE      D 2758   7.543   2.511   5.835 -0.2261 -0.1526  0.1536
  552ODE      C 2759   7.458   2.745   5.464 -0.0235 -0.1128  0.1115
  552ODE      C 2760   7.506   3.239   5.484  0.0785 -0.0877  0.0811
  553ODE      C 2761   8.208   6.732   0.779 -0.2628  0.2357  0.1036
  553ODE      C 2762   7.812   6.908   0.694 -0.2511 -0.2464  0.3829
  553ODE      D 2763   7.593   6.986   0.376  0.0275 -0.0091 -0.1859
  553ODE      C 2764   7.785   7.206  -0.057  0.1900 -0.0261  0.1259
  553ODE      C 2765   7.957   7.105  -0.447  0.0834  0.3106  0.3056
  554ODE      C 2766   5.397   1.768   4.166  0.0268 -0.3302  0.0869
  554ODE      C 2767   5.749   1.470   4.165 -0.0694  0.0432  0.0602
  554ODE      D 2768   5.713   1.032   4.124  0.0782  0.0791  0.1983
  554ODE      C 2769   5.598   0.823   4.395  0.2272 -0.1666  0.0844
  554ODE      C 2770   5.474   0.501   4.684  0.1305  0.0849  0.0716
  555ODE      C 2771   7.111   5.189   6.659  0.0408 -0.2802  0.0181
  555ODE      C 2772   7.201   5.187   7.136  0.2559 -0.0646  0.4409
  555ODE      D 2773   7.484   5.166   7.531  0.0597 -0.0128 -0.0234
  555ODE      C 2774   7.901   5.100   7.541  0.1333  0.3151 -0.3900
  555ODE      C 2775   8.094   4.815   7.813 -0.3072  0.1906 -0.1188
  556ODE      C 2776   1.627   0.741   5.543  0.1227  0.0865 -0.0478
  556ODE      C 2777   1.340   0.523   5.265 -0.0557 -0.1661 -0.0883
  556ODE      D 2778   1.126   0.565   4.773  0.0685 -0.0855 -0.0680
  556ODE      C 2779   1.026   0.570   4.272  0.0756 -0.0960 -0.0306
  556ODE      C 2780   0.811   0.489   3.875  0.3094  0.0375  0.0756
  557ODE      C 2781   3.121   3.612   7.041 -0.0168 -0.2574 -0.2578
  557ODE      C 2782   3.467   3.464   6.856 -0.1725 -0.0171  0.1603
  557ODE      D 2783   3.674   3.125   7.120 -0.4180 -0.1494 -0.1258
  557ODE      C 2784   3.390   2.715   7.288 -0.0698  0.0220  0.1182
  557ODE      C 2785   3.413   2.315   7.334 -0.0309  0.2304  0.0300
  558ODE      C 2786   5.232   3.774   0.562 -0.0187 -0.1027  0.0961
  558ODE      C 2787   4.826   3.715   0.469 -0.1610  0.0802 -0.2517
  558ODE      D 2788   4.491   3.552   0.307 -0.1344 -0.0625 -0.0910
  558ODE      C 2789   4.475   3.266  -0.030 -0.0192 -0.0252  0.0174
  558ODE      C 2790   4.476   3.349  -0.439 -0.1113 -0.2892 -0.3446
  559ODE      C 2791   1.471   4.521   5.560  0.2299  0.1470 -0.1700
  559ODE      C 2792   1.076   4.201   5.559 -0.0380 -0.1152  0.1118
  559ODE      D 2793   0.828   3.991   5.992  0.1657 -0.1528 -0.3487
  559ODE      C 2794   0.845   3.594   6.235 -0.3844  0.4375  0.2769
  559ODE      C 2795   0.781   3.248   6.480 -0.1721 -0.0743  0.0707
  560ODE      C 2796   0.184   5.616   5.497 -0.1533 -0.2444 -0.0088
  560ODE      C 2797  -0.039   5.261   5.423 -0.1670 -0.0717  0.4083
  560ODE      D 2798  -0.469   5.141   5.587 -0.0078  0.2967  0.1600
  560ODE      C 2799  -0.521   5.123   6.079 -0.0577  0.1764 -0.0914
  560ODE      C 2800  -0.184   5.237   6.286  0.0302  0.2413 -0.1004
  561ODE      C 2801   8.202   4.219   1.346  0.2069  0.0321  0.1003
  561ODE      C 2802   8.625   4.235   1.471 -0.0589  0.2117  0.0980
  561ODE      D 2803   8.900   4.255   1.870  0.3809  0.3016 -0.2341
  561ODE      C 2804   9.338   4.338   2.015  0.1072  0.2334 -0.0115
  561ODE      C 2805   9.789   4.395   1.918 -0.0247 -0.2559 -0.0444
  562ODE      C 2806   2.367   6.647   6.337  0.1331 -0.0121 -0.2450
  562ODE      C 2807   2.213   6.301   6.087  0.1818  0.3470 -0.0664
  562ODE      D 2808   2.043   5.994   5.891  0.1342  0.1029 -0.0403
  562ODE      C 2809   1.982   5.974   5.367  0.4282  0.0539 -0.2145
  562ODE      C 2810   1.943   5.805   4.911  0.1967 -0.0769 -0.1396
  563ODE      C 2811   5.374   1.363   1.333 -0.0084  0.0854  0.1471
  563ODE      C 2812   5.252   1.661   1.576  0.0429  0.0850  0.0231
  563ODE      D 2813   5.277   2.067   1.740  0.2149  0.3161  0.2217
  563ODE      C 2814   5.650   2.242   1.948  0.3006  0.0143  0.2072
  563ODE      C 2815   6.106   2.281   1.779  0.0502  0.0845  0.0089
  564ODE      C 2816   5.121   4.464   2.326 -0.1265 -0.1114  0.1488
  564ODE      C 2817   4.983   4.901   2.209 -0.0714  0.1687 -0.1204
  564ODE      D 2818   5.035   5.305   2.390 -0.0022  0.0390  0.1922
  564ODE      C 2819   5.238   5.659   2.677 -0.0855  0.0882  0.1473
  564ODE      C 2820   4.983   6.017   2.820 -0.0139  0.0575 -0.0152
  565ODE      C 2821   4.032   1.173   4.764 -0.0189  0.2847  0.1896
  565ODE      C 2822   4.023   1.193   4.316  0.2148  0.1293 -0.0608
  565ODE      D 2823   4.301   1.416   3.950 -0.0495 -0.0122  0.1439
  565ODE      C 2824   4.373   1.821   4.055  0.0813  0.1039 -0.1365
  565ODE      C 2825   4.490   2.199   4.098  0.0704  0.0377 -0.1391
  566ODE      C 2826   3.378   5.762   3.549  0.0744 -0.1744 -0.0618
  566ODE      C 2827   3.549   6.214   3.439 -0.1029 -0.2926 -0.1335
  566ODE      D 2828   3.865   6.140   3.134 -0.2202 -0.2973 -0.0254
  566ODE      C 2829   4.156   5.854   3.103  0.1992  0.1523  0.4009
  566ODE      C 2830   4.331   5.400   2.919 -0.0075 -0.0172  0.1859
  567ODE      C 2831   2.332   3.494   5.430  0.2133  0.3360  0.1148
  567ODE      C 2832   2.457   3.858   5.682  0.2124  0.3178  0.0008
  567ODE      D 2833   2.446   4.265   5.633 -0.0401  0.1454  0.1577
  567ODE      C 2834   2.732   4.452   5.400 -0.0638 -0.2356  0.1190
  567ODE      C 2835   3.094   4.533   5.276 -0.0075  0.0708 -0.1466
  568ODE      C 2836   6.028   1.621   7.138  0.2178 -0.1206 -0.2908
  568ODE      C 2837   5.937   1.979   7.210 -0.2419  0.0514 -0.0112
  568ODE      D 2838   6.100   2.402   7.028 -0.1352  0.2279  0.3456
  568ODE      C 2839   6.023   2.809   6.977  0.0346  0.0090 -0.2111
  568ODE      C 2840   5.831   3.231   6.910  0.1898  0.0732 -0.2574
  569ODE      C 2841   6.146   4.130   4.473 -0.1716  0.1048  0.1830
  569ODE      C 2842   6.342   3.876   4.870  0.2260  0.6400  0.2970
  569ODE      D 2843   6.284   3.620   5.184  0.0613  0.0148  0.1576
  569ODE      C 2844   6.156   3.758   5.584 -0.3248 -0.2849  0.1283
  569ODE      C 2845   5.750   3.896   5.744 -0.0122  0.0690  0.0643
  570ODE      C 2846   2.314   5.135   5.684  0.1415 -0.1725  0.0046
  570ODE      C 2847   2.613   5.259   5.903  0.0947 -0.1196  0.0537
  570ODE      D 2848   2.935   5.107   6.201  0.1315  0.1031  0.0095
  570ODE      C 2849   2.934   4.700   6.418 -0.2186  0.0876  0.2061
  570ODE      C 2850   2.705   4.461   6.576  0.1471 -0.0301  0.0390
  571ODE      C 2851   4.586   0.147   6.529 -0.0592 -0.4957  0.3560
  571ODE      C 2852   4.094   0.087   6.489  0.0933 -0.1829 -0.2021
  571ODE      D 2853   3.856  -0.161   6.211  0.1434  0.2748  0.0214
  571ODE      C 2854   3.734  -0.147   5.753  0.0543  0.0960 -0.0920
  571ODE      C 2855   3.847   0.073   5.384  0.0721 -0.6512 -0.1826
  572ODE      C 2856   1.238   6.007   2.881  0.1618 -0.0780 -0.5542
  572ODE      C 2857   1.250   6.016   2.452  0.1624 -0.1073  0.2100
  572ODE      D 2858   1.377   6.048   2.029  0.0113  0.1839 -0.1512
  572ODE      C 2859   1.797   6.003   1.818 -0.1454  0.1155  0.0114
  572ODE      C 2860   2.183   5.925   1.661 -0.1405  0.3189  0.2230
  573ODE      C 2861   0.128   4.432   6.232  0.0020 -0.1792  0.0267
  573ODE      C 2862  -0.065   4.157   6.493 -0.1537 -0.1093  0.3329
  573ODE      D 2863   0.100   3.872   6.730  0.1822 -0.0761  0.1835
  573ODE      C 2864   0.072   3.444   6.857  0.2768 -0.0678 -0.1467
  573ODE      C 2865  -0.025   3.100   7.166  0.3139 -0.0161 -0.1618
  574ODE      C 2866   1.108   0.729   5.806 -0.1096 -0.0290  0.3303
  574ODE      C 2867   0.705   0.922   5.973  0.0167 -0.1238  0.1215
  574ODE      D 2868   0.523   1.229   6.112  0.2194  0.1656  0.1211
  574ODE      C 2869   0.060   1.146   6.138 -0.1968 -0.4241  0.0586
  574ODE      C 2870  -0.153   0.906   6.184  0.1783  0.2320  0.0111
  575ODE      C 2871   6.012   4.631   0.370 -0.0148  0.2513  0.2865
  575ODE      C 2872   6.159   4.270   0.236 -0.2502 -0.0416 -0.1689
  575ODE      D 2873   6.303   3.880   0.182  0.1288 -0.4415 -0.4221
  575ODE      C 2874   6.415   3.534   0.375  0.1446  0.0532 -0.1445
  575ODE      C 2875   6.317   3.234   0.596 -0.1265 -0.0408 -0.1302
  576ODE      C 2876   4.376   6.588   4.959  0.1186 -0.3640  0.0138
  576ODE      C 2877   4.226   6.562   5.135  0.1962 -0.0612  0.0411
  576ODE      D 2878   4.059   6.856   5.364  0.2868  0.3757  0.0048
  576ODE      C 2879   4.255   6.884   5.788 -0.0309  0.1481  0.1359
  576ODE      C 2880   4.483   7.106   6.153 -0.1196  0.3277 -0.0191
  577ODE      C 2881   2.151   1.410   2.425 -0.0183  0.2479 -0.0128
  577ODE      C 2882   2.585   1.363   2.246 -0.0467 -0.1284  0.2350
  577ODE      D 2883   2.741   1.020   1.977 -0.4278  0.0721  0.1359
  577ODE      C 2884   2.646   0.872   1.653  0.0112 -0.0950  0.1195
  577ODE      C 2885   2.560   0.406   1.515  0.0978 -0.1665 -0.0448
  578ODE      C 2886   6.042   0.104   5.634 -0.0235 -0.0816 -0.1030
  578ODE      C 2887   6.075  -0.330   5.777  0.0543  0.1110 -0.0470
  578ODE      D 2888   6.189  -0.779   5.594 -0.1276  0.2548  0.2726
  578ODE      C 2889   6.049  -1.148   5.452  0.1193  0.1172  0.0467
  578ODE      C 2890   5.839  -1.421   5.121  0.0074  0.0799  0.0922
  579ODE      C 2891   9.444   6.982   5.704 -0.0672 -0.1302 -0.1010
  579ODE      C 2892   9.705   6.986   6.028  0.0206  0.0303 -0.0750
  579ODE      D 2893  10.010   6.840   6.306  0.0219 -0.0697 -0.1429
  579ODE      C 2894  10.353   6.696   6.200  0.2464  0.4610 -0.1213
  579ODE      C 2895  10.676   6.373   6.250 -0.0360  0.0310 -0.4027
  580ODE      C 2896   7.544   3.102   1.929 -0.2222  0.0645  0.1217
  580ODE      C 2897   7.118   3.214   2.097 -0.3486  0.0078 -0.0839
  580ODE      D 2898   7.060   3.576   2.417 -0.2588 -0.3081  0.2136
  580ODE      C 2899   7.301   3.766   2.652 -0.1499  0.0036  0.0455
  580ODE      C 2900   7.582   4.027   2.782  0.1879  0.0527 -0.0367
  581ODE      C 2901   4.809   7.128   0.096  0.1867 -0.0097  0.0309
  581ODE      C 2902   4.890   6.767  -0.147 -0.0295 -0.0981 -0.1968
  581ODE      D 2903   4.791   6.309  -0.018  0.1380  0.0438  0.3045
  581ODE      C 2904   5.091   6.019   0.146 -0.0616  0.0968 -0.0498
  581ODE      C 2905   5.386   5.699   0.271  0.1996  0.3548 -0.3652
  582ODE      C 2906   2.897   1.726   1.150  0.3433 -0.3351 -0.5385
  582ODE      C 2907   3.187   1.375   1.168 -0.0044 -0.1759  0.2154
  582ODE      D 2908   3.495   1.033   1.179  0.0123 -0.0602  0.2735
  582ODE      C 2909   3.890   1.099   1.241  0.0738 -0.1038  0.0506
  582ODE      C 2910   4.090   1.450   1.278 -0.4637  0.0613 -0.1738
  583ODE      C 2911   7.686   3.464   1.632 -0.4496 -0.1159  0.1580
  583ODE      C 2912   7.967   3.459   2.027  0.0575 -0.3112  0.4831
  583ODE      D 2913   8.344   3.619   2.157 -0.0929 -0.1899  0.0257
  583ODE      C 2914   8.596   3.546   2.570  0.1788 -0.0686  0.1033
  583ODE      C 2915   9.043   3.366   2.692  0.2126  0.1699  0.2892
  584ODE      C 2916   6.947   2.501   2.150  0.1821 -0.2059 -0.1821
  584ODE      C 2917   6.955   2.063   2.272  0.4051 -0.1292  0.1172
  584ODE      D 2918   6.727   1.758   2.601  0.4070  0.1562  0.0573
  584ODE      C 2919   6.288   1.794   2.539  0.2652  0.1951 -0.0864
  584ODE      C 2920   5.925   1.574   2.596  0.1787 -0.1609  0.1896
  585ODE      C 2921   8.860   6.485   4.087 -0.0653 -0.1447 -0.0949
  585ODE      C 2922   9.326   6.469   4.069  0.1758  0.0785 -0.1780
  585ODE      D 2923   9.718   6.336   4.280 -0.0829 -0.2141 -0.1579
  585ODE      C 2924   9.915   6.517   4.628 -0.3752 -0.0797 -0.4066
  585ODE      C 2925  10.058   6.464   5.055 -0.1391 -0.1434 -0.6097
  586ODE      C 2926   8.636   7.001   1.617 -0.1352 -0.0638 -0.2989
  586ODE      C 2927   8.491   6.754   1.869 -0.2835 -0.0605 -0.0807
  586ODE      D 2928   8.121   6.888   1.928 -0.0538  0.2306 -0.2909
  586ODE      C 2929   7.948   6.503   2.128  0.1234 -0.3389 -0.0626
  586ODE      C 2930   7.700   6.167   2.352 -0.0904 -0.0255 -0.1406
  587ODE      C 2931   4.081   0.928   0.003 -0.2927 -0.2832 -0.0041
  587ODE      C 2932   4.343   0.968  -0.378  0.2302 -0.0785  0.0848
  587ODE      D 2933   4.692   1.078  -0.590  0.0255  0.0149  0.0385
  587ODE      C 2934   4.720   0.655  -0.870 -0.0835 -0.1730  0.1244
  587ODE      C 2935   4.442   0.538  -1.250  0.0567  0.0443  0.2349
  588ODE      C 2936   8.870   7.177   2.079 -0.0005 -0.0419 -0.2515
  588ODE      C 2937   8.983   6.807   1.998  0.0891  0.0107  0.0851
  588ODE      D 2938   9.133   6.433   2.117 -0.0041  0.1342 -0.0579
  588ODE      C 2939   9.296   6.088   2.291 -0.4936  0.4379 -0.1746
  588ODE      C 2940   9.238   5.898   2.665  0.0797  0.1298 -0.1221
  589ODE      C 2941   1.754   1.568   1.932  0.0034  0.0438  0.1845
  589ODE      C 2942   2.068   1.141   1.987  0.2169 -0.0126  0.1461
  589ODE      D 2943   2.181   0.697   1.825 -0.0752  0.0916 -0.0419
  589ODE      C 2944   2.183   0.662   1.369  0.1118 -0.2182  0.0576
  589ODE      C 2945   2.381   0.716   0.975 -0.4578 -0.0865  0.0457
  590ODE      C 2946   2.005   0.724   4.706  0.2293  0.0450  0.0875
  590ODE      C 2947   2.453   0.775   4.906 -0.0611  0.1938  0.1806
  590ODE      D 2948   2.648   0.746   5.407 -0.2365  0.2027 -0.1616
  590ODE      C 2949   3.141   0.611   5.429  0.2519  0.0966  0.1900
  590ODE      C 2950   3.528   0.706   5.410  0.1969  0.1689  0.0226
  591ODE      C 2951   3.438   4.633   6.625  0.2992  0.1657 -0.1896
  591ODE      C 2952   3.059   4.588   6.887  0.1861 -0.1217  0.0906
  591ODE      D 2953   2.853   4.629   7.325 -0.2066  0.0010 -0.2163
  591ODE      C 2954   2.501   5.002   7.283  0.2539  0.2978  0.2624
  591ODE      C 2955   2.235   5.382   7.489 -0.1463  0.1399 -0.0915
  592ODE      C 2956   6.805   4.112   2.318 -0.0888  0.0678  0.2165
  592ODE      C 2957   7.236   4.074   2.295 -0.0287  0.0296  0.0006
  592ODE      D 2958   7.610   4.237   2.228  0.1182 -0.0006 -0.0949
  592ODE      C 2959   7.924   4.335   2.449 -0.0629 -0.3350  0.0087
  592ODE      C 2960   8.285   4.607   2.537  0.0277  0.2594 -0.0220
  593ODE      C 2961   8.791   0.621   4.591 -0.2344 -0.2221 -0.0071
  593ODE      C 2962   8.505   0.362   4.388 -0.3628 -0.0655  0.3701
  593ODE      D 2963   8.508   0.246   3.989  0.1634  0.0943 -0.1601
  593ODE      C 2964   8.537  -0.038   3.591 -0.0024 -0.4718  0.0331
  593ODE      C 2965   8.205   0.064   3.300  0.3080 -0.0132 -0.0310
  594ODE      C 2966   2.293   2.524   0.800 -0.0280  0.3454 -0.0641
  594ODE      C 2967   2.601   2.295   0.478 -0.0287 -0.1226  0.2749
  594ODE      D 2968   2.653   1.873   0.422  0.1878  0.5254  0.2829
  594ODE      C 2969   2.706   1.704   0.120 -0.0686 -0.1825 -0.2490
  594ODE      C 2970   2.364   1.492  -0.081  0.2968 -0.1712  0.1564
  595ODE      C 2971   7.888   1.734   1.791 -0.2477  0.0613 -0.2471
  595ODE      C 2972   8.137   1.722   2.165 -0.3891  0.2377  0.2159
  595ODE      D 2973   8.415   2.027   2.316 -0.0839 -0.1399 -0.2007
  595ODE      C 2974   8.617   2.328   2.061 -0.1492 -0.2612 -0.0425
  595ODE      C 2975   8.776   2.725   1.982 -0.0435 -0.1628 -0.0525
  596ODE      C 2976   5.544   1.157   2.602  0.1452 -0.0440  0.0273
  596ODE      C 2977   5.330   0.783   2.681  0.0913  0.1619  0.0017
  596ODE      D 2978   5.121   0.410   2.847 -0.4044 -0.0361 -0.3648
  596ODE      C 2979   4.771   0.128   2.714 -0.0582  0.3966 -0.0879
  596ODE      C 2980   4.443  -0.077   2.828  0.1653 -0.1470  0.0214
  597ODE      C 2981   2.660   1.106   0.808  0.0429  0.1017 -0.0026
  597ODE      C 2982   2.232   0.978   0.633  0.2577 -0.1377  0.1704
  597ODE      D 2983   1.890   1.121   0.508  0.3910 -0.1805  0.0006
  597ODE      C 2984   1.842   1.279   0.074 -0.3979 -0.1783  0.0439
  597ODE      C 2985   1.567   1.296  -0.323  0.2092 -0.2472  0.1046
  598ODE      C 2986   7.092   0.889   4.073 -0.0168  0.2123 -0.4082
  598ODE      C 2987   7.172   0.538   4.247 -0.1046 -0.3379 -0.0435
  598ODE      D 2988   7.165   0.206   4.469 -0.0797  0.0073 -0.1469
  598ODE      C 2989   6.876  -0.130   4.309 -0.2005  0.1813  0.2528
  598ODE      C 2990   6.861  -0.384   3.864 -0.0375 -0.0527  0.1939
  599ODE      C 2991   8.492   0.157   6.395  0.2394  0.0074 -0.0415
  599ODE      C 2992   8.058   0.305   6.378 -0.1033  0.2420 -0.0250
  599ODE      D 2993   7.640   0.044   6.283 -0.1721 -0.0814  0.1534
  599ODE      C 2994   7.582  -0.388   6.391 -0.0948 -0.1478  0.4002
  599ODE      C 2995   7.300  -0.659   6.535 -0.0784  0.0721  0.2405
  600ODE      C 2996   7.742   2.730   0.405 -0.0877  0.0418  0.0384
  600ODE      C 2997   7.248   3.010   0.370 -0.2970 -0.2213  0.0573
  600ODE      D 2998   6.813   3.200   0.208  0.0018 -0.2134 -0.2181
  600ODE      C 2999   6.584   2.891   0.440  0.1795  0.0030 -0.0461
  600ODE      C 3000   6.459   2.483   0.521  0.1201  0.1074 -0.0680
  601ODE      C 3001   4.754   1.719   1.621  0.3588  0.1764 -0.0909
  601ODE      C 3002   4.529   1.356   1.460  0.1143  0.0950 -0.2033
  601ODE      D 3003   4.475   1.045   1.262  0.0438 -0.0864  0.3226
  601ODE      C 3004   4.807   0.795   1.231  0.0128 -0.1343  0.1388
  601ODE      C 3005   5.002   0.412   1.262  0.2065  0.1867 -0.0038
  602ODE      C 3006   8.795   5.585   1.066  0.0575 -0.1407  0.6006
  602ODE      C 3007   9.200   5.329   0.950  0.2365  0.1760 -0.2089
  602ODE      D 3008   9.643   5.475   1.138 -0.0215  0.2342  0.2659
  602ODE      C 3009   9.994   5.337   0.936 -0.0420  0.0852 -0.2705
  602ODE      C 3010  10.316   5.012   0.763  0.3410 -0.0351 -0.1252
  603ODE      C 3011   8.597   6.732   0.346  0.2599  0.2622 -0.3257
  603ODE      C 3012   9.021   6.599   0.231 -0.3336  0.1527  0.1022
  603ODE      D 3013   9.233   6.599  -0.121  0.1273  0.2738  0.0526
  603ODE      C 3014   9.649   6.464  -0.190 -0.0072  0.1210  0.1396
  603ODE      C 3015  10.019   6.587  -0.386  0.1066 -0.1262 -0.0370
  604ODE      C 3016   2.299   4.170   1.763  0.1420 -0.2203  0.0436
  604ODE      C 3017   2.051   3.892   1.555  0.2127 -0.1330 -0.0016
  604ODE      D 3018   1.588   3.819   1.414  0.0572 -0.1701  0.3007
  604ODE      C 3019   1.309   4.147   1.528  0.0041  0.1718 -0.0273
  604ODE      C 3020   1.106   4.264   1.937 -0.1067 -0.3008 -0.1001
  605ODE      C 3021   5.812   5.724   7.160  0.3584  0.1033  0.0502
  605ODE      C 3022   5.842   5.718   7.675  0.1325  0.0722 -0.2864
  605ODE      D 3023   5.580   5.533   8.067 -0.1060 -0.0910 -0.0929
  605ODE      C 3024   5.335   5.781   8.183  0.2793  0.0400  0.0655
  605ODE      C 3025   4.900   5.990   8.234  0.0618 -0.0252  0.0037
  606ODE      C 3026   2.099   6.164   4.594  0.1129  0.0297  0.0652
  606ODE      C 3027   1.855   6.051   4.114 -0.0325 -0.2430  0.0551
  606ODE      D 3028   1.712   6.200   3.734 -0.1122  0.1115  0.3351
  606ODE      C 3029   1.243   6.013   3.647  0.1663 -0.0296  0.0030
  606ODE      C 3030   1.105   5.779   3.322 -0.1298  0.0633 -0.1679
  607ODE      C 3031   5.266   4.341   3.255  0.0824 -0.1683  0.1194
  607ODE      C 3032   5.001   4.767   3.316 -0.1941 -0.0490 -0.2184
  607ODE      D 3033   4.753   5.054   3.303  0.1179 -0.1714  0.2385
  607ODE      C 3034   4.970   5.439   3.446 -0.0853 -0.0575  0.0062
  607ODE      C 3035   5.216   5.845   3.280 -0.1674  0.1963  0.1246
  608ODE      C 3036   1.590   7.162   1.501 -0.1108 -0.2820  0.3085
  608ODE      C 3037   1.755   6.898   1.770  0.1401  0.1180 -0.1173
  608ODE      D 3038   2.142   6.915   2.131  0.1159  0.1198 -0.1731
  608ODE      C 3039   2.406   6.627   1.993 -0.0653 -0.2269 -0.1600
  608ODE      C 3040   2.801   6.457   1.866 -0.1132 -0.0288 -0.3602
  609ODE      C 3041   7.376   0.338   7.147  0.0330  0.1640  0.0531
  609ODE      C 3042   7.427  -0.011   6.807 -0.1371  0.2651 -0.1486
  609ODE      D 3043   7.134  -0.194   6.536 -0.0940  0.2507 -0.0104
  609ODE      C 3044   6.949  -0.475   6.834  0.0291  0.2847  0.0732
  609ODE      C 3045   6.580  -0.776   6.948 -0.0686 -0.3086 -0.1683
  610ODE      C 3046   6.723   4.055   4.468 -0.0215  0.0922 -0.0936
  610ODE      C 3047   6.883   3.765   4.827  0.0523 -0.1294  0.2744
  610ODE      D 3048   6.771   3.794   5.281  0.5174 -0.0615 -0.1150
  610ODE      C 3049   6.480   4.123   5.493  0.1502  0.0253  0.0720
  610ODE      C 3050   6.599   4.547   5.649 -0.0138  0.0397  0.2656
  611ODE      C 3051   7.643   4.906   6.694  0.3521 -0.1798  0.0086
  611ODE      C 3052   7.274   4.711   6.730 -0.0585  0.1947  0.1393
  611ODE      D 3053   6.832   4.804   6.474  0.0722  0.0151 -0.2928
  611ODE      C 3054   6.544   5.097   6.381  0.0285  0.3874 -0.0913
  611ODE      C 3055   6.578   5.479   6.554  0.2118  0.1166 -0.0145
  612ODE      C 3056   3.790   0.502   3.352 -0.2748 -0.2980 -0.0972
  612ODE      C 3057   3.794   0.124   3.075 -0.2902  0.0716 -0.1605
  612ODE      D 3058   4.033   0.195   2.679 -0.3964  0.0938 -0.3397
  612ODE      C 3059   3.992   0.404   2.264 -0.0080  0.4197  0.1254
  612ODE      C 3060   4.254   0.537   1.873  0.1955 -0.0988  0.0315
  613ODE      C 3061   3.460   5.905   6.277  0.0480  0.1373  0.2510
  613ODE      C 3062   3.390   6.327   6.128  0.2423 -0.0523 -0.1405
  613ODE      D 3063   3.476   6.583   5.808  0.5223 -0.2190  0.1063
  613ODE      C 3064   3.913   6.459   5.690  0.2003 -0.0003 -0.3596
  613ODE      C 3065   4.296   6.403   5.590  0.2176  0.3023 -0.2395
  614ODE      C 3066   3.255   4.244   5.707  0.0096  0.0537 -0.2359
  614ODE      C 3067   2.930   4.020   5.507 -0.1366  0.4919  0.0252
  614ODE      D 3068   2.810   3.666   5.368  0.1835 -0.1324 -0.0301
  614ODE      C 3069   2.820   3.309   5.702 -0.2499 -0.3087 -0.0504
  614ODE      C 3070   2.629   2.886   5.862  0.2858  0.0781  0.2053
  615ODE      C 3071   1.403   1.658   5.349  0.3889  0.0875 -0.0084
  615ODE      C 3072   1.124   1.912   5.566  0.0539  0.4566 -0.1543
  615ODE      D 3073   0.576   2.092   5.612  0.4268  0.0530 -0.0090
  615ODE      C 3074   0.181   1.991   5.467 -0.0165 -0.0073 -0.3532
  615ODE      C 3075  -0.233   2.080   5.492 -0.1723 -0.1925 -0.1645
  616ODE      C 3076   5.960   5.019   5.081  0.0069 -0.0811 -0.0215
  616ODE      C 3077   5.783   4.988   5.403  0.0031  0.0346  0.2277
  616ODE      D 3078   5.571   5.034   5.800  0.1795  0.2098 -0.0391
  616ODE      C 3079   5.346   5.441   5.846  0.2457  0.0754  0.0911
  616ODE      C 3080   5.089   5.746   5.772  0.1123 -0.0267 -0.2320
  617ODE      C 3081   2.083   5.582   2.102  0.2156 -0.1086  0.0439
  617ODE      C 3082   2.164   5.359   1.789 -0.0796  0.0797 -0.1109
  617ODE      D 3083   2.202   5.399   1.368  0.3158  0.0687  0.2791
  617ODE      C 3084   1.901   5.695   1.330 -0.0183 -0.1071 -0.3648
  617ODE      C 3085   1.771   6.091   1.270 -0.0643  0.0397  0.2499
  618ODE      C 3086   0.471   4.557   2.787 -0.1225 -0.1209 -0.1069
  618ODE      C 3087   0.153   4.175   2.869 -0.1001  0.1355 -0.1104
  618ODE      D 3088  -0.188   4.055   2.625  0.0152 -0.0383 -0.3452
  618ODE      C 3089  -0.347   4.384   2.796 -0.1528  0.1362 -0.0520
  618ODE      C 3090  -0.741   4.599   2.755  0.2954  0.1349 -0.1190
  619ODE      C 3091   4.393   6.374   1.522  0.0770  0.0434 -0.0085
  619ODE      C 3092   3.947   6.466   1.289 -0.1561 -0.2030  0.0926
  619ODE      D 3093   3.738   6.827   1.145 -0.1758  0.2440 -0.2094
  619ODE      C 3094   3.569   6.717   0.741 -0.0632 -0.0865  0.1201
  619ODE      C 3095   3.454   6.400   0.359  0.0430 -0.2521  0.0496
  620ODE      C 3096   2.625   5.186   1.265 -0.0870  0.4385  0.0055
  620ODE      C 3097   2.546   5.631   1.120  0.0069 -0.0348 -0.0196
  620ODE      D 3098   2.825   5.846   0.810  0.0284 -0.1529 -0.0452
  620ODE      C 3099   3.178   5.634   0.841  0.0105  0.2481  0.2358
  620ODE      C 3100   3.417   5.234   0.885 -0.1333 -0.0182 -0.3116
  621ODE      C 3101   3.429   3.584   1.848  0.1856  0.0286  0.4374
  621ODE      C 3102   3.099   3.717   1.867  0.1516  0.2574 -0.0009
  621ODE      D 3103   2.726   3.938   1.878  0.1745  0.5031 -0.0031
  621ODE      C 3104   2.671   4.243   1.434  0.1055 -0.1943  0.2275
  621ODE      C 3105   2.295   4.342   1.148 -0.0833 -0.2552 -0.4577
  622ODE      C 3106   0.321   5.652   4.246  0.0986 -0.1200 -0.1781
  622ODE      C 3107   0.118   5.573   4.618 -0.4501 -0.0281 -0.2962
  622ODE      D 3108   0.022   5.784   5.020  0.1595  0.3063  0.4615
  622ODE      C 3109   0.177   6.134   5.200 -0.1410  0.0430  0.0874
  622ODE      C 3110   0.213   6.579   5.437 -0.0619  0.2001 -0.3185
  623ODE      C 3111   0.791   7.118   2.750  0.1230  0.0884 -0.0698
  623ODE      C 3112   0.485   7.410   2.603 -0.1367  0.2469  0.0576
  623ODE      D 3113   0.055   7.377   2.599 -0.3683  0.0879 -0.2089
  623ODE      C 3114  -0.182   7.700   2.520 -0.1252  0.2679  0.1794
  623ODE      C 3115  -0.534   8.072   2.468 -0.3400  0.2947  0.1962
  624ODE      C 3116   6.601   2.289   5.641  0.0553  0.0310 -0.1157
  624ODE      C 3117   6.734   2.126   5.247  0.2933  0.1761 -0.2289
  624ODE      D 3118   7.107   1.826   5.269 -0.1063  0.1249  0.0760
  624ODE      C 3119   7.487   1.685   4.998  0.3395  0.0963 -0.1352
  624ODE      C 3120   7.791   1.928   5.049  0.0371  0.2054 -0.2331
  625ODE      C 3121   8.567   5.022   1.693  0.2589 -0.0985 -0.0399
  625ODE      C 3122   8.860   4.796   1.732  0.1681  0.0255  0.1356
  625ODE      D 3123   9.295   4.753   1.749  0.0169 -0.0052 -0.1898
  625ODE      C 3124   9.556   4.518   1.443 -0.0165 -0.0424  0.3550
  625ODE      C 3125   9.778   4.575   1.038 -0.1635  0.0292 -0.0431
  626ODE      C 3126   3.339   1.344   0.693  0.0388  0.1953 -0.0012
  626ODE      C 3127   3.330   1.727   0.825  0.1547 -0.3087  0.0127
  626ODE      D 3128   3.481   2.129   0.973  0.0810 -0.1829 -0.3101
  626ODE      C 3129   3.544   2.497   0.660 -0.0471  0.1525  0.1110
  626ODE      C 3130   3.934   2.821   0.800 -0.0797 -0.2971 -0.0494
  627ODE      C 3131   8.823   6.297   2.661  0.2444  0.0624  0.1342
  627ODE      C 3132   8.816   6.633   2.457 -0.2317 -0.0339  0.1175
  627ODE      D 3133   8.457   6.570   2.308  0.2394 -0.2777 -0.0877
  627ODE      C 3134   8.224   6.143   2.484  0.0533 -0.0633  0.0174
  627ODE      C 3135   7.980   6.121   2.914  0.0236 -0.0379 -0.1692
  628ODE      C 3136   5.389   2.393   4.389  0.4321 -0.2498  0.2263
  628ODE      C 3137   5.349   2.829   4.680 -0.1329  0.0510 -0.1771
  628ODE      D 3138   5.230   3.193   4.961  0.0699  0.0102 -0.1256
  628ODE      C 3139   5.427   3.643   4.859 -0.1100 -0.3002 -0.1577
  628ODE      C 3140   5.832   3.812   4.711 -0.1090 -0.1563  0.2188
  629ODE      C 3141   1.658   5.442   1.663 -0.1366  0.4463  0.0380
  629ODE      C 3142   1.376   5.360   2.070 -0.2235 -0.0807  0.0912
  629ODE      D 3143   1.284   5.425   2.448  0.4061 -0.1462  0.1278
  629ODE      C 3144   1.575   5.549   2.731  0.1233  0.0534 -0.0841
  629ODE      C 3145   1.915   5.835   2.994  0.2111  0.0551 -0.3350
  630ODE      C 3146   8.298   1.302   3.550  0.4612  0.2687 -0.2669
  630ODE      C 3147   8.790   1.239   3.595 -0.1554  0.1664 -0.0788
  630ODE      D 3148   8.980   0.817   3.803  0.1328 -0.0485 -0.0653
  630ODE      C 3149   9.091   0.850   4.207 -0.1220  0.0241  0.0843
  630ODE      C 3150   9.076   1.015   4.612 -0.0412  0.0367 -0.0131
  631ODE      C 3151   7.126   4.195   3.714 -0.4305  0.0683  0.1420
  631ODE      C 3152   6.811   4.472   3.692 -0.0109  0.1470  0.3004
  631ODE      D 3153   6.402   4.760   3.787  0.1102 -0.1046 -0.0590
  631ODE      C 3154   6.157   5.000   3.985  0.1782 -0.2715 -0.1321
  631ODE      C 3155   5.882   4.996   4.380 -0.0233 -0.1641 -0.3824
  632ODE      C 3156   7.182   5.087   1.575  0.0169 -0.0218 -0.1172
  632ODE      C 3157   7.345   5.474   1.769 -0.0157 -0.2287  0.0574
  632ODE      D 3158   7.185   5.844   1.901  0.0470  0.0011 -0.2433
  632ODE      C 3159   6.810   5.954   2.092 -0.2377  0.1272 -0.1274
  632ODE      C 3160   6.364   5.832   2.362  0.2516  0.1447 -0.2196
  633ODE      C 3161   8.640   0.228   1.380  0.0236 -0.2383  0.0263
  633ODE      C 3162   8.950   0.211   1.686  0.1923 -0.0123  0.0392
  633ODE      D 3163   9.105  -0.081   1.665  0.0064  0.1526 -0.1674
  633ODE      C 3164   9.046  -0.426   1.487 -0.1943 -0.0267  0.0530
  633ODE      C 3165   9.037  -0.721   1.139  0.3230 -0.0573  0.0336
  634ODE      C 3166   2.981   3.706   4.548 -0.1926 -0.1109 -0.0261
  634ODE      C 3167   2.818   3.397   4.299 -0.2567 -0.1549  0.0630
  634ODE      D 3168   2.647   3.304   3.948 -0.0160  0.0800  0.1509
  634ODE      C 3169   2.449   3.692   3.723 -0.0206 -0.0745 -0.0435
  634ODE      C 3170   2.679   3.893   3.549 -0.1115 -0.1460  0.1693
  635ODE      C 3171   3.258   4.127   2.916  0.1741  0.0597  0.2186
  635ODE      C 3172   2.937   4.018   3.120 -0.0140  0.1338 -0.0657
  635ODE      D 3173   2.891   4.302   3.407 -0.1776 -0.0781  0.0483
  635ODE      C 3174   3.201   4.532   3.242 -0.0436 -0.1437 -0.0851
  635ODE      C 3175   3.428   4.322   3.500 -0.1372  0.0855 -0.0210
  636ODE      C 3176   4.698   5.819   4.507  0.0605 -0.1827 -0.4438
  636ODE      C 3177   4.652   5.430   4.599 -0.0089  0.2139  0.2217
  636ODE      D 3178   4.646   5.252   4.983  0.0707 -0.0352 -0.2215
  636ODE      C 3179   4.990   4.965   4.994  0.0493  0.1763  0.2916
  636ODE      C 3180   5.432   4.962   5.052  0.4230  0.0735 -0.2173
  637ODE      C 3181   7.348   4.788   5.668 -0.0690 -0.1632  0.2556
  637ODE      C 3182   7.400   5.162   5.509  0.2774  0.1164  0.1144
  637ODE      D 3183   7.342   5.546   5.205  0.0379 -0.1357 -0.0787
  637ODE      C 3184   7.072   5.842   5.498 -0.1401 -0.0911  0.2102
  637ODE      C 3185   6.891   6.251   5.550  0.0325 -0.1066  0.0207
  638ODE      C 3186   7.050   2.169   1.714 -0.3557 -0.0169  0.2022
  638ODE      C 3187   7.198   2.671   1.720  0.4026 -0.0840  0.1425
  638ODE      D 3188   7.074   3.115   1.526 -0.0345  0.0682  0.0052
  638ODE      C 3189   7.158   3.570   1.669  0.1575  0.1198 -0.3453
  638ODE      C 3190   7.019   3.847   1.927 -0.0606  0.0349  0.0140
  639ODE      C 3191   4.138   3.664   1.168 -0.0201 -0.1480 -0.0142
  639ODE      C 3192   4.185   3.447   0.767 -0.2689  0.2025  0.0660
  639ODE      D 3193   3.798   3.210   0.577  0.0208  0.0534  0.0203
  639ODE      C 3194   3.755   2.909   0.385  0.2210  0.0853  0.2674
  639ODE      C 3195   3.865   2.494   0.219  0.0413 -0.3006 -0.1218
  640ODE      C 3196   4.519   5.677   0.881 -0.1019 -0.1460 -0.3315
  640ODE      C 3197   4.495   5.229   0.944  0.0693  0.0255 -0.0771
  640ODE      D 3198   4.366   4.822   0.956  0.1264  0.2009 -0.0668
  640ODE      C 3199   4.003   4.613   1.289  0.2166 -0.2464 -0.1597
  640ODE      C 3200   3.814   4.856   1.571 -0.0341  0.1025 -0.0587
  641ODE      C 3201   0.009   0.196   3.971 -0.1684  0.0853 -0.3260
  641ODE      C 3202  -0.283  -0.142   4.048  0.1802  0.3071 -0.1063
  641ODE      D 3203  -0.389  -0.448   4.472  0.3863 -0.0454  0.0634
  641ODE      C 3204  -0.342  -0.272   4.824 -0.0024 -0.2469  0.1159
  641ODE      C 3205  -0.270  -0.247   5.260  0.0884 -0.2072  0.4729
  642ODE      C 3206   7.113   3.816   6.817  0.1210 -0.1288  0.1850
  642ODE      C 3207   7.253   3.642   6.383  0.5955 -0.0969 -0.1700
  642ODE      D 3208   7.044   3.373   6.026 -0.0777  0.0506  0.2629
  642ODE      C 3209   7.052   3.513   5.579 -0.1225 -0.2821 -0.0613
  642ODE      C 3210   7.198   3.472   5.072 -0.2279  0.3063  0.1598
  643ODE      C 3211   4.359   1.804   5.533  0.2982  0.1829 -0.1223
  643ODE      C 3212   4.086   1.580   5.344  0.2445  0.2690  0.1352
  643ODE      D 3213   3.647   1.492   5.377 -0.0060  0.1440  0.0079
  643ODE      C 3214   3.534   1.224   4.987  0.1186 -0.0187  0.0828
  643ODE      C 3215   3.155   1.202   4.655  0.0364 -0.0762 -0.2702
  644ODE      C 3216   5.375   6.309   1.040 -0.0337  0.2815 -0.1982
  644ODE      C 3217   5.215   6.595   0.700 -0.2698 -0.1481 -0.0996
  644ODE      D 3218   5.183   6.515   0.226  0.0196 -0.2793  0.0655
  644ODE      C 3219   5.368   6.753  -0.021 -0.2708 -0.2191  0.0404
  644ODE      C 3220   5.692   6.769  -0.212 -0.0088 -0.2072 -0.0709
  645ODE      C 3221   2.133   4.887   6.779 -0.2230 -0.3535 -0.1742
  645ODE      C 3222   1.987   4.843   7.200 -0.2007  0.1177 -0.0778
  645ODE      D 3223   1.696   5.187   7.415 -0.2213 -0.1282  0.3077
  645ODE      C 3224   1.815   5.468   7.749 -0.1065 -0.1034 -0.1792
  645ODE      C 3225   2.019   5.588   8.072 -0.1634 -0.0357 -0.3114
  646ODE      C 3226   9.308   3.675   7.204  0.2324 -0.0538  0.1018
  646ODE      C 3227   9.784   3.598   7.294 -0.1476  0.1291  0.3326
  646ODE      D 3228  10.175   3.688   7.315 -0.2056  0.2455 -0.1914
  646ODE      C 3229  10.323   3.658   7.663 -0.0692  0.2498 -0.3463
  646ODE      C 3230  10.741   3.740   7.752 -0.1908 -0.0262  0.2443
  647ODE      C 3231   8.794   5.360   0.622 -0.0685  0.0386  0.0028
  647ODE      C 3232   8.622   5.776   0.641  0.6807  0.1525 -0.1001
  647ODE      D 3233   8.253   6.001   0.793 -0.1290 -0.1144  0.0527
  647ODE      C 3234   8.000   6.328   0.621  0.0331 -0.2167  0.0371
  647ODE      C 3235   8.006   6.576   0.290 -0.1218 -0.2715 -0.1035
  648ODE      C 3236   5.816   2.123   4.451 -0.1216 -0.0668 -0.1723
  648ODE      C 3237   6.037   2.499   4.717 -0.2455  0.1382  0.1177
  648ODE      D 3238   5.943   2.882   4.982 -0.0759  0.1933  0.6352
  648ODE      C 3239   6.106   3.037   5.354  0.0945 -0.4873 -0.0406
  648ODE      C 3240   6.334   2.826   5.776  0.1554  0.0073 -0.3097
  649ODE      C 3241   0.265   5.578   2.037  0.0999 -0.0324  0.1664
  649ODE      C 3242   0.038   5.281   2.198 -0.1081 -0.0172 -0.0165
  649ODE      D 3243   0.007   4.870   2.184  0.0280  0.2854  0.1966
  649ODE      C 3244   0.430   4.811   2.186 -0.2539  0.3103 -0.1623
  649ODE      C 3245   0.784   4.671   1.964 -0.2592 -0.0323 -0.0211
  650ODE      C 3246   6.028   3.385   4.889  0.0640 -0.1440 -0.0221
  650ODE      C 3247   6.417   3.275   4.837 -0.2179  0.0786 -0.0768
  650ODE      D 3248   6.717   3.370   5.047 -0.0035 -0.0445 -0.2228
  650ODE      C 3249   6.600   3.281   5.425 -0.4985 -0.1244  0.0987
  650ODE      C 3250   6.791   2.996   5.847  0.1500  0.0535 -0.0527
  651ODE      C 3251   6.829   5.167   0.294 -0.2302  0.1171 -0.2456
  651ODE      C 3252   6.502   4.931   0.184  0.4794 -0.0571 -0.2073
  651ODE      D 3253   6.554   4.583   0.164  0.2094 -0.2603  0.0848
  651ODE      C 3254   6.492   4.320  -0.221  0.0147 -0.3295 -0.0621
  651ODE      C 3255   6.607   3.903  -0.255 -0.1026  0.0196  0.3295
  652ODE      C 3256   7.398   5.811   1.358  0.3014  0.1309  0.0119
  652ODE      C 3257   7.560   6.217   1.378 -0.1341  0.0117  0.0946
  652ODE      D 3258   7.421   6.565   1.486 -0.0674 -0.1774  0.2094
  652ODE      C 3259   7.584   6.787   1.817  0.0526 -0.1265  0.1675
  652ODE      C 3260   7.558   6.705   2.307  0.2281  0.1928 -0.2235
  653ODE      C 3261   7.882   5.719   4.450  0.0340  0.1820 -0.0168
  653ODE      C 3262   7.506   5.886   4.371 -0.3033 -0.1763  0.0402
  653ODE      D 3263   7.177   5.853   4.113 -0.2143  0.1045  0.4931
  653ODE      C 3264   7.196   5.761   3.695 -0.1706 -0.1173 -0.0466
  653ODE      C 3265   7.181   5.640   3.163 -0.0272 -0.0502  0.1388
  654ODE      C 3266   8.846   1.545   6.590  0.2324 -0.0093 -0.1211
  654ODE      C 3267   9.269   1.401   6.674  0.1801  0.0202  0.0673
  654ODE      D 3268   9.604   1.611   6.882  0.1717 -0.0189 -0.1662
  654ODE      C 3269   9.943   1.796   6.805 -0.0692  0.2275  0.2202
  654ODE      C 3270  10.176   1.957   6.484  0.0619  0.0590  0.2402
  655ODE      C 3271   4.003   1.783   2.702  0.0362  0.1703  0.2736
  655ODE      C 3272   4.497   1.665   2.692  0.0141 -0.1333  0.0722
  655ODE      D 3273   4.822   1.458   2.473  0.1340  0.1841  0.0157
  655ODE      C 3274   5.124   1.067   2.303 -0.1745  0.2500  0.2759
  655ODE      C 3275   5.528   0.809   2.235 -0.1198  0.0080  0.0024
  656ODE      C 3276   6.569   1.569   7.191  0.0729 -0.1929 -0.2295
  656ODE      C 3277   6.645   1.260   6.834 -0.2797 -0.0454  0.0609
  656ODE      D 3278   7.180   1.077   6.884 -0.0675 -0.2271 -0.2100
  656ODE      C 3279   7.515   1.333   6.958  0.0540  0.3837 -0.2734
  656ODE      C 3280   7.592   1.638   6.513 -0.2060 -0.2043  0.0748
  657ODE      C 3281   4.863   4.950   2.821 -0.2651  0.0366 -0.0743
  657ODE      C 3282   5.235   4.771   2.762 -0.3323 -0.0705  0.3771
  657ODE      D 3283   5.794   4.742   2.870 -0.3128 -0.0471 -0.2164
  657ODE      C 3284   6.011   4.407   2.993 -0.0177 -0.2615 -0.0863
  657ODE      C 3285   6.158   4.042   3.183 -0.0099 -0.1365  0.3778
  658ODE      C 3286   3.040   0.999   6.202 -0.0944  0.0365 -0.1779
  658ODE      C 3287   3.313   1.164   6.377  0.0386  0.1121  0.0837
  658ODE      D 3288   3.458   1.421   6.669 -0.1564  0.0727 -0.3484
  658ODE      C 3289   3.789   1.724   6.817 -0.1057  0.0536  0.1006
  658ODE      C 3290   3.753   1.935   7.183 -0.2028  0.1429 -0.0473
  659ODE      C 3291   9.493   6.908   1.277 -0.1354  0.1842  0.2324
  659ODE      C 3292   9.514   6.748   0.853 -0.1588  0.2297  0.1867
  659ODE      D 3293   9.511   6.617   0.343 -0.0344  0.4341 -0.1211
  659ODE      C 3294   9.592   6.928   0.065 -0.1672  0.0175  0.2720
  659ODE      C 3295   9.496   7.333  -0.098 -0.1312 -0.1928  0.4479
  660ODE      C 3296   7.082   6.164   1.217 -0.2993 -0.3135 -0.0763
  660ODE      C 3297   6.724   6.211   1.124  0.1814 -0.1106 -0.0793
  660ODE      D 3298   6.238   6.166   1.168  0.2477  0.0653  0.2030
  660ODE      C 3299   5.848   6.087   0.834 -0.1194  0.0880 -0.2369
  660ODE      C 3300   5.563   6.150   0.551 -0.0668 -0.1302 -0.2738
  661ODE      C 3301   5.279   2.601   1.824 -0.3680 -0.1212  0.1462
  661ODE      C 3302   4.819   2.725   1.889 -0.1053  0.3567  0.0561
  661ODE      D 3303   4.527   2.717   2.172  0.2520 -0.1178 -0.1499
  661ODE      C 3304   4.066   2.853   1.822 -0.2045  0.1092  0.1027
  661ODE      C 3305   3.597   2.681   1.587  0.0821  0.1761  0.0470
  662ODE      C 3306   0.901   0.133   4.615  0.0093  0.2005 -0.2117
  662ODE      C 3307   1.369   0.199   4.524  0.0405 -0.0618  0.2123
  662ODE      D 3308   1.648   0.472   4.362 -0.0887 -0.0742 -0.0369
  662ODE      C 3309   1.709   0.272   3.966 -0.2368 -0.0131 -0.2551
  662ODE      C 3310   1.649  -0.156   3.747 -0.1791 -0.0518 -0.1551
  663ODE      C 3311   5.483   4.688   4.132 -0.0462 -0.0881 -0.1703
  663ODE      C 3312   5.629   4.370   4.388 -0.0247 -0.4258 -0.1094
  663ODE      D 3313   5.541   4.230   4.715  0.1128 -0.0568 -0.1917
  663ODE      C 3314   5.952   4.254   4.964 -0.1098 -0.1773 -0.0122
  663ODE      C 3315   6.098   4.151   5.223 -0.1014 -0.1030 -0.0377
  664ODE      C 3316   8.410   6.148   3.161  0.0151 -0.1032  0.0694
  664ODE      C 3317   8.241   5.869   3.476  0.0390 -0.1739 -0.0762
  664ODE      D 3318   8.086   5.712   3.823 -0.0228  0.1528  0.0144
  664ODE      C 3319   8.324   5.618   4.164  0.1356 -0.3008  0.0685
  664ODE      C 3320   8.382   5.618   4.584 -0.1196 -0.1549  0.0989
  665ODE      C 3321   8.122   4.466   5.452  0.2141  0.0343 -0.0106
  665ODE      C 3322   8.314   4.837   5.291 -0.0472 -0.2128  0.0650
  665ODE      D 3323   8.628   5.162   5.231 -0.1009  0.1446 -0.1079
  665ODE      C 3324   8.747   5.341   4.803 -0.0552 -0.1734 -0.0439
  665ODE      C 3325   8.797   5.269   4.474  0.2466  0.1323  0.4062
  666ODE      C 3326   2.910   0.019   1.413 -0.0463  0.1194 -0.0445
  666ODE      C 3327   2.614   0.049   1.189 -0.0965  0.1843 -0.1033
  666ODE      D 3328   2.496   0.248   0.782  0.0470  0.2198 -0.1647
  666ODE      C 3329   2.595   0.574   0.568  0.0461 -0.2753 -0.1509
  666ODE      C 3330   2.539   0.803   0.304  0.2978 -0.1614  0.4001
  667ODE      C 3331   3.401   0.208   0.235 -0.0367  0.1449  0.1070
  667ODE      C 3332   3.212   0.039   0.634  0.0330  0.0587 -0.0808
  667ODE      D 3333   2.882  -0.164   0.835  0.1097 -0.1593 -0.0761
  667ODE      C 3334   3.176  -0.538   0.976  0.2835  0.1117  0.0666
  667ODE      C 3335   3.420  -0.746   1.236 -0.2007  0.1519  0.2452
  668ODE      C 3336   3.331   2.743   4.179 -0.0777  0.1446 -0.1754
  668ODE      C 3337   3.586   2.410   4.456  0.1016  0.1110  0.2069
  668ODE      D 3338   3.617   2.347   4.934  0.1216 -0.0325 -0.0018
  668ODE      C 3339   4.082   2.366   4.975 -0.0198  0.1666  0.0674
  668ODE      C 3340   4.488   2.566   5.007  0.0814  0.2120 -0.1546
  669ODE      C 3341   1.902   3.908   1.064  0.1643 -0.1030 -0.0565
  669ODE      C 3342   1.915   4.257   0.835 -0.1828  0.3038  0.0785
  669ODE      D 3343   1.828   4.583   0.898  0.2684 -0.1743 -0.2011
  669ODE      C 3344   2.149   4.851   1.022  0.1623 -0.2732  0.0928
  669ODE      C 3345   2.391   5.208   0.836  0.0715  0.1620 -0.3567
  670ODE      C 3346   8.049   5.272   2.331 -0.0524 -0.0460 -0.0850
  670ODE      C 3347   7.867   5.198   1.933  0.0015 -0.0434  0.1524
  670ODE      D 3348   8.044   5.108   1.566  0.1215 -0.0494 -0.1752
  670ODE      C 3349   8.045   4.865   1.210 -0.1210  0.1809  0.1110
  670ODE      C 3350   7.931   4.504   1.002  0.1598  0.1830  0.0041
  671ODE      C 3351   4.458   6.432   2.739  0.1323  0.2223 -0.0799
  671ODE      C 3352   4.472   5.937   2.764 -0.1578 -0.0004  0.1604
  671ODE      D 3353   4.687   5.606   2.653 -0.3486 -0.0521  0.3103
  671ODE      C 3354   4.862   5.464   2.936  0.2399 -0.3035  0.0192
  671ODE      C 3355   5.234   5.155   3.090 -0.0110 -0.0921 -0.0295
  672ODE      C 3356   4.202   4.146   3.689 -0.0660 -0.0704 -0.1612
  672ODE      C 3357   3.865   4.048   3.394  0.0335 -0.2863 -0.1471
  672ODE      D 3358   3.790   4.142   3.036  0.0786 -0.1771 -0.1783
  672ODE      C 3359   3.667   4.515   3.011 -0.0405  0.0307  0.2023
  672ODE      C 3360   3.428   4.696   2.780 -0.1406  0.0804  0.1945
  673ODE      C 3361   8.383   5.071   2.652 -0.2024 -0.4973  0.2548
  673ODE      C 3362   8.399   5.484   2.802 -0.1156 -0.2413  0.1759
  673ODE      D 3363   8.519   5.710   3.143  0.0122 -0.0790  0.2173
  673ODE      C 3364   8.751   5.778   3.347 -0.0014 -0.0109  0.0390
  673ODE      C 3365   8.861   5.302   3.401 -0.1126  0.1250 -0.2895
  674ODE      C 3366   2.333   4.005   0.730  0.0436  0.2647  0.4225
  674ODE      C 3367   2.609   3.941   0.367 -0.2368  0.1473 -0.0761
  674ODE      D 3368   2.670   3.749  -0.104 -0.0570  0.2617  0.0841
  674ODE      C 3369   2.200   3.589  -0.212 -0.0286 -0.0566  0.2236
  674ODE      C 3370   1.946   3.326  -0.460 -0.1364  0.2739  0.1106
  675ODE      C 3371   4.244   4.179   4.749 -0.2872  0.0866  0.1099
  675ODE      C 3372   4.338   3.659   4.709 -0.0856  0.1740 -0.0249
  675ODE      D 3373   3.985   3.318   4.659  0.1276 -0.1046  0.0932
  675ODE      C 3374   3.614   3.490   4.564  0.0011  0.1285 -0.1441
  675ODE      C 3375   3.225   3.169   4.440 -0.0349 -0.0137 -0.1684
  676ODE      C 3376   0.812   5.721   4.170  0.0722 -0.4220 -0.0617
  676ODE      C 3377   1.075   5.727   4.531  0.2392  0.0618  0.2027
  676ODE      D 3378   1.473   5.545   4.707 -0.1783  0.0205 -0.0699
  676ODE      C 3379   1.502   5.575   5.064  0.1181  0.1854  0.0951
  676ODE      C 3380   1.451   5.692   5.433 -0.2276 -0.0055 -0.0028
  677ODE      C 3381   8.849   0.720   5.861  0.1048 -0.3080  0.0076
  677ODE      C 3382   8.771   0.411   5.484 -0.1680 -0.0937 -0.1507
  677ODE      D 3383   8.713   0.427   5.066  0.3155 -0.0222 -0.1281
  677ODE      C 3384   8.402   0.094   4.831 -0.0930 -0.2595 -0.0447
  677ODE      C 3385   8.078   0.113   4.642  0.1981  0.2023  0.0619
  678ODE      C 3386   0.382   4.197   5.866  0.1097  0.0664 -0.0478
  678ODE      C 3387  -0.028   4.067   5.915 -0.1051  0.0038  0.2040
  678ODE      D 3388  -0.158   3.651   6.113 -0.2250  0.3433 -0.1129
  678ODE      C 3389  -0.084   3.254   6.298 -0.2841  0.0204  0.1063
  678ODE      C 3390  -0.223   2.963   6.675 -0.1331  0.1572  0.0273
  679ODE      C 3391   0.428   6.771   1.882 -0.0246 -0.3423  0.1287
  679ODE      C 3392   0.579   6.860   1.567 -0.2630 -0.0516 -0.2394
  679ODE      D 3393   0.993   6.754   1.479  0.0569 -0.0008 -0.2585
  679ODE      C 3394   1.192   7.038   1.196  0.2900 -0.0157  0.2148
  679ODE      C 3395   1.309   6.804   0.838 -0.1078  0.1155 -0.0539
  680ODE      C 3396   7.422   7.139   5.318  0.0088 -0.0273  0.1419
  680ODE      C 3397   7.309   7.400   4.956  0.0091  0.1144  0.0219
  680ODE      D 3398   7.252   7.831   4.832 -0.0837  0.1074 -0.0146
  680ODE      C 3399   7.088   8.192   5.047 -0.0447 -0.0829  0.4635
  680ODE      C 3400   7.149   8.555   5.370 -0.1154  0.3229 -0.1148
  681ODE      C 3401   8.103   5.576   1.154  0.3220  0.2145  0.2258
  681ODE      C 3402   8.395   5.496   1.480 -0.1644 -0.2050  0.0262
  681ODE      D 3403   8.312   5.461   1.934 -0.0982 -0.3136  0.0061
  681ODE      C 3404   8.475   5.650   2.299  0.1101  0.1092 -0.0036
  681ODE      C 3405   8.603   5.893   2.650 -0.1957  0.0482  0.0634
  682ODE      C 3406   4.497   2.702   1.495 -0.1513  0.1557 -0.2651
  682ODE      C 3407   4.621   3.089   1.635 -0.0707  0.1617 -0.4058
  682ODE      D 3408   4.830   3.201   1.980  0.1411  0.1617  0.2347
  682ODE      C 3409   4.767   3.149   2.369  0.2741  0.0084 -0.0521
  682ODE      C 3410   4.869   3.441   2.696 -0.2184  0.0435 -0.1584
  683ODE      C 3411   7.307   2.472   4.007  0.1360  0.2316  0.0452
  683ODE      C 3412   7.318   2.294   3.536 -0.3002 -0.0910  0.1431
  683ODE      D 3413   7.283   2.088   3.149 -0.1570  0.0523 -0.2810
  683ODE      C 3414   6.904   2.107   2.911 -0.0955  0.1553 -0.0064
  683ODE      C 3415   6.556   2.256   2.601 -0.0329 -0.0328  0.1440
  684ODE      C 3416   7.480   7.101   2.626  0.0212 -0.1190  0.0397
  684ODE      C 3417   7.704   7.064   2.975  0.4764  0.3341  0.1638
  684ODE      D 3418   7.901   7.514   3.035  0.1431 -0.1556 -0.0676
  684ODE      C 3419   8.056   7.853   3.215  0.1464 -0.2235 -0.1665
  684ODE      C 3420   7.991   8.028   3.555 -0.0373  0.1230  0.1094
  685ODE      C 3421   8.440   5.246   6.225  0.2125 -0.0828  0.1242
  685ODE      C 3422   8.109   5.401   6.068 -0.0202  0.3525 -0.3131
  685ODE      D 3423   7.705   5.489   5.846  0.1895  0.0848  0.1820
  685ODE      C 3424   7.454   5.649   5.771  0.1265 -0.0853  0.0699
  685ODE      C 3425   7.203   6.087   5.955  0.1591  0.1242 -0.0625
  686ODE      C 3426   4.992   6.642   4.912  0.2999  0.0774 -0.3486
  686ODE      C 3427   4.854   6.402   4.647 -0.1371  0.0573  0.0321
  686ODE      D 3428   4.420   6.236   4.570 -0.1382 -0.1092 -0.0977
  686ODE      C 3429   4.116   6.089   4.948 -0.2347 -0.0321  0.1535
  686ODE      C 3430   4.254   5.936   5.342  0.2485 -0.0962  0.2032
  687ODE      C 3431   0.568   4.987   3.620 -0.0133 -0.2757  0.4039
  687ODE      C 3432   0.871   4.727   3.497 -0.2015  0.2104 -0.0368
  687ODE      D 3433   1.197   4.589   3.641  0.1080  0.1478  0.1585
  687ODE      C 3434   1.590   4.735   3.536 -0.1107 -0.0256  0.0912
  687ODE      C 3435   1.629   5.062   3.373  0.0467 -0.3495 -0.2080
  688ODE      C 3436   1.882   2.255   2.469 -0.0189  0.3818  0.0466
  688ODE      C 3437   2.144   2.568   2.596  0.0754 -0.3509 -0.2118
  688ODE      D 3438   2.344   2.977   2.558 -0.1695 -0.3987 -0.0608
  688ODE      C 3439   2.280   3.337   2.369  0.2645  0.1731  0.0928
  688ODE      C 3440   2.250   3.813   2.570 -0.1968 -0.0473  0.4417
  689ODE      C 3441   1.723   2.801   2.461 -0.1967  0.0886 -0.0402
  689ODE      C 3442   1.541   2.546   2.693  0.1128  0.0747 -0.2703
  689ODE      D 3443   1.142   2.399   2.854  0.0257  0.1307  0.1310
  689ODE      C 3444   0.714   2.515   2.862  0.1598 -0.2580  0.1459
  689ODE      C 3445   0.391   2.354   2.872  0.0139 -0.0753  0.5071
  690ODE      C 3446   1.846   3.911   3.022 -0.0654  0.0928  0.0492
  690ODE      C 3447   1.517   3.711   2.807 -0.3928 -0.0518 -0.2050
  690ODE      D 3448   1.118   3.723   2.639 -0.0507  0.0417  0.1082
  690ODE      C 3449   0.987   3.938   2.285 -0.0853 -0.0450  0.1658
  690ODE      C 3450   1.138   3.788   1.877 -0.0969 -0.1054 -0.0747
  691ODE      C 3451   1.896   2.285   0.502  0.1442 -0.1180  0.0779
  691ODE      C 3452   2.166   2.009   0.704 -0.0285 -0.2110 -0.1573
  691ODE      D 3453   2.140   1.592   0.469  0.3340  0.0942  0.0482
  691ODE      C 3454   2.509   1.328   0.393  0.0221  0.1040  0.5154
  691ODE      C 3455   2.875   1.269   0.169 -0.3118  0.1556  0.2037
  692ODE      C 3456   1.936   5.103   2.839 -0.1034  0.1919  0.2702
  692ODE      C 3457   1.667   4.696   2.996  0.4821  0.0649 -0.2120
  692ODE      D 3458   1.473   4.429   3.145 -0.2828  0.0240  0.0743
  692ODE      C 3459   1.697   4.211   3.518  0.0396  0.0985 -0.0677
  692ODE      C 3460   1.656   3.960   3.901 -0.3044  0.0018 -0.2550
  693ODE      C 3461   5.764   1.382   0.908  0.1490  0.1182  0.1499
  693ODE      C 3462   5.661   1.030   0.680  0.0622  0.0125 -0.1079
  693ODE      D 3463   6.031   0.703   0.680 -0.0374 -0.1898  0.2040
  693ODE      C 3464   6.452   0.466   0.652 -0.0785 -0.0914 -0.0708
  693ODE      C 3465   6.652   0.000   0.684  0.2781 -0.0224  0.0702
  694ODE      C 3466   1.854   0.773   2.300  0.4005 -0.1155  0.0190
  694ODE      C 3467   1.683   0.631   1.959  0.3449  0.2919 -0.0193
  694ODE      D 3468   1.472   0.418   1.766  0.1486  0.1376  0.2242
  694ODE      C 3469   1.099   0.567   1.711 -0.1072  0.1200 -0.2121
  694ODE      C 3470   0.699   0.584   2.001  0.2320  0.3134  0.2662
  695ODE      C 3471   1.744   0.447   1.370 -0.0502  0.0180  0.0362
  695ODE      C 3472   1.480   0.650   1.145 -0.2094  0.2162  0.2924
  695ODE      D 3473   1.176   0.878   1.137 -0.1010 -0.2690 -0.0570
  695ODE      C 3474   1.072   1.342   1.205  0.2718  0.5551  0.0757
  695ODE      C 3475   1.073   1.803   1.308  0.1316 -0.4745  0.2811
  696ODE      C 3476   7.690   4.078   3.738 -0.0234 -0.1614  0.1730
  696ODE      C 3477   7.470   3.775   3.638 -0.2584 -0.0616 -0.1766
  696ODE      D 3478   7.128   3.360   3.623 -0.0421 -0.2563 -0.2446
  696ODE      C 3479   6.813   3.017   3.641  0.0890 -0.1232  0.0036
  696ODE      C 3480   6.887   2.623   3.793  0.2625 -0.2332 -0.2538
  697ODE      C 3481   5.261   5.776   6.283 -0.0984  0.1183 -0.0960
  697ODE      C 3482   4.963   5.971   6.599  0.0754  0.0324 -0.2157
  697ODE      D 3483   4.558   5.986   6.609 -0.4516 -0.2966 -0.1350
  697ODE      C 3484   4.501   6.319   6.204  0.2131 -0.0424  0.0491
  697ODE      C 3485   4.685   6.602   5.903  0.0732 -0.1108 -0.1390
  698ODE      C 3486   1.737   2.308   3.611  0.0553 -0.0684 -0.1852
  698ODE      C 3487   1.397   2.413   3.742  0.3963  0.3484 -0.0921
  698ODE      D 3488   1.147   2.563   4.028  0.1620 -0.1721 -0.0109
  698ODE      C 3489   0.965   2.179   4.312  0.1640  0.0922  0.0632
  698ODE      C 3490   0.728   1.823   4.536 -0.4860 -0.3644 -0.0008
  699ODE      C 3491   3.726   5.486   6.300  0.0375  0.2367 -0.0656
  699ODE      C 3492   3.884   5.420   6.694 -0.1760 -0.2493 -0.2530
  699ODE      D 3493   4.196   5.309   6.938 -0.1688 -0.0805  0.1469
  699ODE      C 3494   3.955   5.296   7.286  0.1772  0.1607 -0.1514
  699ODE      C 3495   3.833   5.608   7.583 -0.0935  0.0108  0.1378
  700ODE      C 3496   8.802   7.147   5.710  0.0647 -0.0023  0.0812
  700ODE      C 3497   8.439   7.039   5.835 -0.1468  0.0564  0.5879
  700ODE      D 3498   8.023   7.011   5.544 -0.1402 -0.0477 -0.2160
  700ODE      C 3499   7.616   6.931   5.772  0.0127 -0.1579 -0.0342
  700ODE      C 3500   7.239   6.918   6.084 -0.0999 -0.3110 -0.1090
  701ODE      C 3501   4.440   2.766   0.930  0.0319  0.2493 -0.2705
  701ODE      C 3502   4.272   2.466   1.113 -0.1633 -0.0582  0.2862
  701ODE      D 3503   4.503   2.158   1.352 -0.0170  0.0740  0.1932
  701ODE      C 3504   4.272   1.876   1.653  0.4128  0.0417 -0.1018
  701ODE      C 3505   4.303   1.502   1.869 -0.2465  0.0336 -0.1109
  702ODE      C 3506   8.386   2.121   1.194  0.2194 -0.0680  0.1373
  702ODE      C 3507   8.015   2.300   1.434 -0.0673 -0.1247 -0.1613
  702ODE      D 3508   7.970   2.748   1.395 -0.0029 -0.0746  0.0921
  702ODE      C 3509   8.037   2.939   1.023  0.0320  0.2629  0.0022
  702ODE      C 3510   8.091   3.086   0.599 -0.0764 -0.1321  0.1184
  703ODE      C 3511   7.935   0.959   4.862  0.0616 -0.2414 -0.2722
  703ODE      C 3512   8.200   1.011   5.161 -0.3379 -0.2129 -0.1113
  703ODE      D 3513   8.361   0.646   5.352 -0.1333 -0.0212 -0.1684
  703ODE      C 3514   8.061   0.347   5.650  0.2520  0.1180 -0.0684
  703ODE      C 3515   8.007   0.103   5.922 -0.0200  0.2375 -0.0911
  704ODE      C 3516   4.187   1.336   6.347  0.0403 -0.1912  0.2462
  704ODE      C 3517   3.888   1.177   6.570  0.2846 -0.1355 -0.2328
  704ODE      D 3518   3.671   0.944   6.801 -0.2512  0.0790 -0.0031
  704ODE      C 3519   3.205   1.005   6.942  0.1194 -0.0626 -0.1450
  704ODE      C 3520   2.993   1.234   6.699  0.3635 -0.0473 -0.1685
  705ODE      C 3521   6.080   2.326   5.743  0.2284  0.2799 -0.1433
  705ODE      C 3522   5.943   2.248   6.155 -0.0067 -0.2835 -0.0606
  705ODE      D 3523   6.071   2.434   6.544 -0.1105 -0.2342  0.1911
  705ODE      C 3524   6.481   2.643   6.663 -0.2774 -0.0101 -0.0665
  705ODE      C 3525   6.853   2.478   6.827  0.3942 -0.0466  0.1534
  706ODE      C 3526   0.720   4.026   2.806  0.0499  0.4787  0.0382
  706ODE      C 3527   0.654   4.265   3.256 -0.0427  0.2121 -0.0674
  706ODE      D 3528   0.417   4.503   3.302 -0.0035 -0.0695 -0.0162
  706ODE      C 3529  -0.049   4.531   3.207 -0.0140  0.0839  0.0180
  706ODE      C 3530  -0.210   5.028   3.101  0.2586  0.0705  0.0482
  707ODE      C 3531   0.164   6.936   4.326 -0.0776 -0.4188 -0.3732
  707ODE      C 3532   0.314   7.133   4.637  0.0284  0.2218  0.0904
  707ODE      D 3533   0.257   7.586   4.781 -0.2024  0.2679 -0.3625
  707ODE      C 3534   0.550   7.877   4.687 -0.0750  0.2834  0.1075
  707ODE      C 3535   0.913   8.169   4.636 -0.1031  0.1392 -0.0914
  708ODE      C 3536   7.205   0.920   1.652 -0.0434  0.1074  0.0393
  708ODE      C 3537   6.976   1.264   1.659  0.0123 -0.2087 -0.1373
  708ODE      D 3538   6.549   1.385   1.747 -0.0817  0.0501  0.1201
  708ODE      C 3539   6.256   1.081   1.479 -0.0067 -0.0326  0.0695
  708ODE      C 3540   6.355   0.848   1.184  0.1046  0.0683  0.1718
  709ODE      C 3541   8.982   2.606   2.831  0.4028 -0.3703  0.0398
  709ODE      C 3542   8.762   2.999   2.836 -0.0471 -0.1100  0.2445
  709ODE      D 3543   8.698   3.392   3.033  0.0739 -0.1753  0.0147
  709ODE      C 3544   8.252   3.671   3.075 -0.2250  0.2660 -0.0768
  709ODE      C 3545   7.826   3.493   2.909 -0.0779  0.1513  0.0051
  710ODE      C 3546   7.853   2.456   0.990 -0.0691 -0.1366  0.0816
  710ODE      C 3547   7.848   1.958   1.111  0.1173  0.3879  0.0574
  710ODE      D 3548   7.836   1.429   1.118 -0.1676  0.1668  0.0660
  710ODE      C 3549   8.076   1.198   1.370 -0.2511  0.0743 -0.1999
  710ODE      C 3550   8.357   0.806   1.188 -0.1146  0.0834  0.2734
  711ODE      C 3551   6.781   0.762   4.624 -0.2953  0.3516 -0.0593
  711ODE      C 3552   6.606   0.942   4.271 -0.4362 -0.1062  0.2736
  711ODE      D 3553   6.744   1.224   3.923 -0.0360  0.2368  0.2239
  711ODE      C 3554   6.994   0.991   3.595 -0.0558 -0.1961 -0.1650
  711ODE      C 3555   7.292   1.255   3.322 -0.0050 -0.3597  0.1060
  712ODE      C 3556   7.785   6.367   4.422  0.1038 -0.0308 -0.0765
  712ODE      C 3557   7.388   6.312   4.646 -0.0426 -0.2535 -0.3131
  712ODE      D 3558   6.963   6.383   4.864  0.1966  0.0206 -0.1654
  712ODE      C 3559   6.740   5.893   5.109  0.2091 -0.3876  0.1895
  712ODE      C 3560   6.531   5.846   5.503 -0.3336  0.0851  0.0051
  713ODE      C 3561   4.079   0.222   5.891  0.3143 -0.2164  0.0274
  713ODE      C 3562   3.867   0.501   6.213 -0.0468 -0.1614  0.1671
  713ODE      D 3563   3.450   0.695   6.415 -0.2279  0.1236 -0.1542
  713ODE      C 3564   3.077   0.583   6.438  0.1349  0.0009 -0.2690
  713ODE      C 3565   2.678   0.395   6.390  0.1311 -0.3614 -0.0566
  714ODE      C 3566   3.970   7.035   4.044  0.1317 -0.0343  0.1984
  714ODE      C 3567   4.136   6.622   4.004 -0.0655 -0.1040  0.5050
  714ODE      D 3568   4.072   6.177   4.082  0.2981  0.4026 -0.0488
  714ODE      C 3569   4.479   5.929   3.968  0.0335  0.0224 -0.1917
  714ODE      C 3570   4.737   5.844   3.706  0.0207  0.3572  0.1038
  715ODE      C 3571   6.343   5.487   5.160 -0.0616 -0.2187 -0.0667
  715ODE      C 3572   6.252   5.205   4.687 -0.2807 -0.1168  0.0936
  715ODE      D 3573   6.390   5.399   4.337 -0.1194 -0.1233 -0.1136
  715ODE      C 3574   6.156   5.555   4.037  0.3400  0.0655 -0.0661
  715ODE      C 3575   5.997   5.497   3.627 -0.3292  0.1230 -0.0143
  716ODE      C 3576   0.883   4.825   6.284 -0.3590 -0.1875 -0.1241
  716ODE      C 3577   0.673   5.157   6.212  0.2557 -0.1863  0.1070
  716ODE      D 3578   0.337   5.408   6.313  0.4378 -0.0577 -0.0816
  716ODE      C 3579   0.094   5.309   6.760 -0.0250  0.0594  0.3075
  716ODE      C 3580  -0.070   5.022   6.773  0.0909  0.0203  0.0614
  717ODE      C 3581   5.547   3.109   5.922 -0.0396  0.1045  0.2333
  717ODE      C 3582   5.992   3.267   5.777  0.0857  0.0466  0.1774
  717ODE      D 3583   6.423   3.456   5.932  0.2172  0.3344  0.1926
  717ODE      C 3584   6.650   3.812   5.907 -0.1733 -0.1497  0.1093
  717ODE      C 3585   6.796   4.209   6.041  0.0702  0.1560 -0.3906
  718ODE      C 3586   2.602   6.765   1.093  0.1221  0.0662 -0.0496
  718ODE      C 3587   2.469   6.475   1.441  0.0443 -0.0560  0.0986
  718ODE      D 3588   2.057   6.399   1.607 -0.2167  0.1042  0.0582
  718ODE      C 3589   1.825   6.552   1.428  0.1229  0.1824  0.1659
  718ODE      C 3590   1.409   6.643   1.317  0.0193 -0.0267  0.0162
  719ODE      C 3591   7.039   6.746   2.707  0.3068  0.1319  0.0802
  719ODE      C 3592   7.215   6.366   2.540  0.0771 -0.0379 -0.1433
  719ODE      D 3593   7.267   5.931   2.366  0.3845  0.0221 -0.1385
  719ODE      C 3594   7.592   5.698   2.311 -0.2533 -0.0342 -0.0785
  719ODE      C 3595   7.940   5.751   2.598 -0.3346  0.0584 -0.0654
  720ODE      C 3596   0.880   1.834   2.227 -0.1515 -0.1640  0.0464
  720ODE      C 3597   0.879   2.279   2.263 -0.3194  0.0379 -0.1619
  720ODE      D 3598   0.642   2.670   2.350  0.2001 -0.0408 -0.0527
  720ODE      C 3599   0.166   2.744   2.567  0.1144 -0.2702  0.3302
  720ODE      C 3600  -0.093   2.462   2.768 -0.1909 -0.2582  0.1989
  721ODE      C 3601   0.631   2.753   1.715 -0.1793  0.0263 -0.1411
  721ODE      C 3602   0.524   2.307   1.756 -0.0605 -0.0822 -0.0912
  721ODE      D 3603   0.522   1.864   1.838  0.0650 -0.4491 -0.0138
  721ODE      C 3604   0.757   1.510   1.538  0.1323  0.0081  0.0397
  721ODE      C 3605   0.569   1.196   1.276 -0.0623  0.1773 -0.0426
  722ODE      C 3606   3.727   0.780   2.392  0.0053 -0.0825 -0.1804
  722ODE      C 3607   3.700   0.660   1.904 -0.1082 -0.1546  0.0299
  722ODE      D 3608   3.600   0.692   1.528  0.3477  0.4440 -0.1244
  722ODE      C 3609   3.469   0.262   1.310  0.0677 -0.1007  0.0668
  722ODE      C 3610   3.321  -0.024   1.125 -0.0386 -0.0441 -0.0496
  723ODE      C 3611   1.405   3.956   0.936  0.1654  0.0760  0.3434
  723ODE      C 3612   1.423   3.545   1.095 -0.1533  0.2934 -0.2125
  723ODE      D 3613   1.794   3.390   1.326  0.0969 -0.0506  0.2010
  723ODE      C 3614   1.660   3.082   1.557 -0.2372  0.0986 -0.0351
  723ODE      C 3615   1.656   2.824   1.955 -0.0409 -0.0413  0.1216
  724ODE      C 3616   6.273   0.261   5.986 -0.1626 -0.1173  0.0085
  724ODE      C 3617   6.490  -0.036   5.776 -0.0964 -0.0246 -0.1411
  724ODE      D 3618   6.929  -0.257   5.737 -0.1905  0.2073  0.0536
  724ODE      C 3619   6.960  -0.698   5.962 -0.1176  0.0710 -0.2954
  724ODE      C 3620   6.586  -1.005   5.965  0.3015  0.0128  0.0168
  725ODE      C 3621   5.553   3.321   0.353 -0.1637  0.2069  0.0307
  725ODE      C 3622   5.970   3.255   0.220  0.1888  0.2988 -0.0196
  725ODE      D 3623   6.350   3.099   0.069  0.1157 -0.0790 -0.2090
  725ODE      C 3624   6.467   2.686   0.023  0.1150  0.0911 -0.1370
  725ODE      C 3625   6.467   2.162   0.092 -0.1182  0.1183  0.1298
  726ODE      C 3626   2.552   2.748   3.527 -0.0001 -0.0962  0.0194
  726ODE      C 3627   2.991   2.748   3.762 -0.2334  0.3178  0.0786
  726ODE      D 3628   3.354   2.850   3.681  0.1520  0.0654  0.2302
  726ODE      C 3629   3.643   3.115   3.992  0.1362 -0.0676 -0.2797
  726ODE      C 3630   3.938   3.429   4.164 -0.1015  0.0878  0.1210
  727ODE      C 3631   5.864   2.694   2.637  0.1875 -0.1851  0.4129
  727ODE      C 3632   5.774   3.124   2.678  0.1576 -0.1405 -0.0471
  727ODE      D 3633   5.699   3.390   2.200 -0.0984 -0.1154 -0.2137
  727ODE      C 3634   5.458   3.573   1.901  0.1765 -0.1815 -0.2049
  727ODE      C 3635   5.212   3.822   1.625  0.1756 -0.2582 -0.1658
  728ODE      C 3636   5.214   6.884   1.872 -0.2553 -0.0413  0.1293
  728ODE      C 3637   5.106   7.277   1.608 -0.0854 -0.2507  0.0258
  728ODE      D 3638   5.476   7.514   1.464  0.1442  0.1036 -0.2609
  728ODE      C 3639   5.532   7.448   1.047 -0.0809 -0.0042  0.1089
  728ODE      C 3640   5.532   7.085   0.914  0.1868  0.0878  0.0098
  729ODE      C 3641   6.746   2.966   6.952 -0.3027 -0.1185  0.2232
  729ODE      C 3642   6.943   2.740   7.281  0.1211 -0.0723 -0.0706
  729ODE      D 3643   6.928   2.463   7.603 -0.0187 -0.2072  0.1730
  729ODE      C 3644   7.219   2.544   7.988  0.3140  0.0896 -0.0313
  729ODE      C 3645   7.552   2.886   8.049  0.0404  0.1165 -0.2943
  730ODE      C 3646   2.814   0.601   5.989 -0.2172  0.0705  0.2614
  730ODE      C 3647   3.218   0.515   5.973  0.1581  0.3143  0.0488
  730ODE      D 3648   3.603   0.354   5.734  0.1063 -0.0603  0.2627
  730ODE      C 3649   3.999   0.666   5.712 -0.2449  0.2214  0.0950
  730ODE      C 3650   4.312   0.942   5.604 -0.1426 -0.3524  0.2224
  731ODE      C 3651   0.274   3.095   6.619 -0.1810 -0.1761  0.0958
  731ODE      C 3652   0.573   2.751   6.536 -0.0654  0.2857  0.1027
  731ODE      D 3653   0.983   2.519   6.290  0.3577  0.0049 -0.0497
  731ODE      C 3654   1.194   2.695   6.038 -0.0579 -0.0489  0.0884
  731ODE      C 3655   1.470   2.932   5.750 -0.0655  0.0912 -0.2630
  732ODE      C 3656   0.397   0.845   3.615 -0.1276 -0.0152  0.0780
  732ODE      C 3657   0.669   1.038   3.776 -0.2575 -0.2083 -0.0506
  732ODE      D 3658   1.033   1.030   4.014  0.0088 -0.4076 -0.0362
  732ODE      C 3659   1.384   0.717   3.808  0.2644 -0.3241 -0.2727
  732ODE      C 3660   1.297   0.278   3.549 -0.4228  0.0874 -0.0445
  733ODE      C 3661   2.220   6.326   3.702 -0.2566 -0.1769  0.0372
  733ODE      C 3662   2.150   6.295   3.224 -0.2135 -0.3276 -0.0049
  733ODE      D 3663   2.288   6.234   2.819 -0.0438 -0.0507  0.0259
  733ODE      C 3664   2.340   5.923   2.397 -0.3490 -0.1005 -0.1485
  733ODE      C 3665   2.592   5.618   2.194  0.0438 -0.3594 -0.0689
  734ODE      C 3666   3.261   1.760   1.533  0.0857  0.1832  0.1516
  734ODE      C 3667   3.632   1.693   1.264  0.0738 -0.2740 -0.1584
  734ODE      D 3668   3.859   1.581   0.894 -0.2365 -0.0398 -0.0883
  734ODE      C 3669   4.215   1.281   0.842  0.2175  0.1673  0.0403
  734ODE      C 3670   4.606   1.169   0.831  0.0596  0.0485 -0.1070
  735ODE      C 3671   0.877   1.571   3.582  0.2061 -0.2203 -0.0275
  735ODE      C 3672   1.154   1.504   3.945  0.0013  0.2293 -0.1202
  735ODE      D 3673   1.505   1.299   4.012  0.4778  0.0470  0.1762
  735ODE      C 3674   1.743   1.317   4.374 -0.2280  0.2270 -0.1919
  735ODE      C 3675   2.035   1.252   4.671 -0.1596  0.2073 -0.3334
  736ODE      C 3676   3.385   2.948   1.163 -0.2489  0.0953  0.1277
  736ODE      C 3677   3.277   2.570   1.217 -0.0240  0.0323 -0.0947
  736ODE      D 3678   2.982   2.240   1.303  0.2172 -0.0514  0.3656
  736ODE      C 3679   2.651   2.142   1.038  0.0889  0.0153  0.1392
  736ODE      C 3680   2.364   1.833   1.197  0.2934  0.1595 -0.0735
  737ODE      C 3681   4.007   3.469   6.624 -0.0012  0.0929  0.2779
  737ODE      C 3682   4.073   3.068   6.817 -0.0458 -0.0479 -0.2013
  737ODE      D 3683   4.122   2.897   7.205  0.0555 -0.4696 -0.0000
  737ODE      C 3684   4.529   2.821   7.350  0.2508  0.0509 -0.1189
  737ODE      C 3685   4.725   2.696   7.725 -0.1951  0.1432 -0.2499
  738ODE      C 3686   4.228   0.332   0.659 -0.3698 -0.2389 -0.4016
  738ODE      C 3687   3.892   0.489   0.496  0.0637  0.2307 -0.2663
  738ODE      D 3688   3.484   0.638   0.595 -0.1589 -0.0217  0.3759
  738ODE      C 3689   3.327   0.439   0.879  0.0556 -0.2401 -0.0011
  738ODE      C 3690   2.960   0.351   0.975 -0.0163  0.0636  0.0473
  739ODE      C 3691   6.403   2.435   6.165  0.0729 -0.0148  0.0544
  739ODE      C 3692   6.011   2.829   6.114  0.2191  0.1264 -0.0456
  739ODE      D 3693   5.917   3.192   6.251  0.3734 -0.0348  0.2106
  739ODE      C 3694   5.667   3.512   6.141  0.2904 -0.1044 -0.0359
  739ODE      C 3695   5.146   3.487   6.147  0.1446 -0.3853 -0.0021
  740ODE      C 3696   1.047   3.597   5.749  0.0599  0.0942  0.0258
  740ODE      C 3697   1.038   3.187   6.063 -0.0319  0.2238  0.0954
  740ODE      D 3698   1.208   2.915   6.484  0.0824  0.2368 -0.0138
  740ODE      C 3699   1.613   2.900   6.694  0.3196 -0.0918  0.2098
  740ODE      C 3700   2.099   2.860   6.589  0.0811  0.1793  0.2038
  741ODE      C 3701   3.113   5.083   1.428 -0.2275 -0.2184 -0.0668
  741ODE      C 3702   3.428   4.900   1.276  0.0640  0.0724  0.3266
  741ODE      D 3703   3.608   4.786   0.963  0.0576  0.2997  0.1882
  741ODE      C 3704   3.380   4.624   0.560  0.2677 -0.4828 -0.1329
  741ODE      C 3705   3.323   4.746   0.111  0.0110  0.1141 -0.0146
  742ODE      C 3706   7.241   1.586   2.571 -0.1043  0.1175  0.1661
  742ODE      C 3707   6.937   1.405   2.321 -0.0128 -0.0980 -0.3288
  742ODE      D 3708   6.884   1.017   2.164  0.1244 -0.1570  0.0649
  742ODE      C 3709   7.143   0.787   2.468 -0.1184 -0.3175  0.1562
  742ODE      C 3710   7.152   0.417   2.717  0.2764 -0.1114 -0.1574
  743ODE      C 3711   3.642   4.808   3.692  0.3880 -0.3143  0.0874
  743ODE      C 3712   3.851   4.535   3.536  0.3046  0.2051 -0.1678
  743ODE      D 3713   4.168   4.489   3.261  0.1005 -0.0616 -0.0558
  743ODE      C 3714   4.520   4.516   3.555 -0.0567 -0.0464 -0.0830
  743ODE      C 3715   4.493   4.498   4.023  0.2002 -0.2546  0.0650
  744ODE      C 3716   3.688   7.158   2.494  0.0044  0.0510  0.1459
  744ODE      C 3717   3.260   7.103   2.426  0.0492 -0.1981 -0.1774
  744ODE      D 3718   3.004   7.497   2.267 -0.2727  0.1288  0.0751
  744ODE      C 3719   3.270   7.943   2.116 -0.0476  0.1065  0.1199
  744ODE      C 3720   3.389   8.240   1.963  0.0637  0.1324 -0.2146
  745ODE      C 3721   7.459   3.149   6.477  0.0402  0.1689 -0.0253
  745ODE      C 3722   7.854   3.012   6.710  0.0698  0.1313 -0.2294
  745ODE      D 3723   8.117   3.061   7.181  0.3035 -0.4835  0.1939
  745ODE      C 3724   8.461   3.074   7.143 -0.0753  0.2369 -0.0210
  745ODE      C 3725   8.761   2.828   6.839  0.0616 -0.1518  0.2614
  746ODE      C 3726   8.428   3.010   5.469  0.2180  0.0024 -0.2602
  746ODE      C 3727   8.484   2.595   5.337 -0.1031 -0.3074 -0.1802
  746ODE      D 3728   8.881   2.334   5.362  0.0008  0.1523 -0.2589
  746ODE      C 3729   8.984   2.092   5.079 -0.2616  0.2356  0.3730
  746ODE      C 3730   9.107   2.126   4.665  0.0031  0.2691 -0.2041
  747ODE      C 3731   6.564   6.820   2.914  0.0758  0.0367  0.0674
  747ODE      C 3732   6.208   6.950   2.903 -0.0697  0.1332  0.2432
  747ODE      D 3733   5.811   6.900   2.991  0.1489 -0.1652 -0.0989
  747ODE      C 3734   5.405   6.779   3.097 -0.1070 -0.0788  0.0585
  747ODE      C 3735   5.321   6.378   3.127  0.0876 -0.2763  0.0140
  748ODE      C 3736   5.315   4.829   1.061  0.0052 -0.2045  0.1471
  748ODE      C 3737   5.276   5.158   0.705 -0.1018  0.3901 -0.1549
  748ODE      D 3738   5.105   5.237   0.402  0.1518  0.3246  0.1185
  748ODE      C 3739   4.987   5.506   0.092 -0.0406 -0.2661 -0.1612
  748ODE      C 3740   4.751   5.736  -0.246  0.0976 -0.0037  0.1644
  749ODE      C 3741   8.794   4.692   5.436  0.2698 -0.0065 -0.2144
  749ODE      C 3742   8.565   4.313   5.354 -0.1329 -0.0343 -0.1187
  749ODE      D 3743   8.556   4.152   4.909 -0.1073 -0.1588 -0.1311
  749ODE      C 3744   8.441   4.408   4.605  0.0306  0.0798 -0.2542
  749ODE      C 3745   8.079   4.370   4.402 -0.1355  0.1005  0.2761
  750ODE      C 3746   5.063   2.711   5.075 -0.2728 -0.2235  0.3557
  750ODE      C 3747   4.715   2.940   4.825  0.1613  0.0225  0.3025
  750ODE      D 3748   4.353   3.109   4.936 -0.3939  0.3116 -0.1279
  750ODE      C 3749   3.899   2.848   4.951 -0.0693  0.1603 -0.0799
  750ODE      C 3750   3.474   2.981   4.818 -0.1701 -0.3571 -0.4112
  751ODE      C 3751   4.362   1.753   0.956  0.0284 -0.2521 -0.2146
  751ODE      C 3752   3.992   2.035   1.273 -0.0489 -0.4114 -0.1799
  751ODE      D 3753   4.093   2.358   1.564  0.1274  0.0347  0.1156
  751ODE      C 3754   4.065   2.833   1.352 -0.1174 -0.3642 -0.1172
  751ODE      C 3755   4.387   3.229   1.175  0.0420  0.0860  0.0032
  752ODE      C 3756   7.464   2.108   5.462 -0.0484  0.1529  0.0840
  752ODE      C 3757   7.063   2.107   5.623 -0.0626 -0.2171  0.0729
  752ODE      D 3758   6.711   1.825   5.795 -0.1391  0.3407 -0.3275
  752ODE      C 3759   6.613   1.605   5.433  0.0976 -0.0690 -0.2089
  752ODE      C 3760   6.661   1.238   5.185 -0.0587 -0.0906  0.0133
  753ODE      C 3761   7.083   1.542   0.016  0.0302  0.2148  0.2221
  753ODE      C 3762   7.350   1.837  -0.290  0.1878 -0.2461 -0.1270
  753ODE      D 3763   7.706   2.073  -0.476  0.0171 -0.3646 -0.3654
  753ODE      C 3764   7.781   2.113  -0.889  0.0676  0.4418 -0.2157
  753ODE      C 3765   7.959   2.283  -1.172  0.1979  0.1251  0.1204
  754ODE      C 3766   1.488   4.043   5.171  0.0103 -0.0107  0.3187
  754ODE      C 3767   1.502   3.846   5.540  0.3653  0.2052 -0.3318
  754ODE      D 3768   1.629   4.134   5.868 -0.4593 -0.1144 -0.4187
  754ODE      C 3769   2.123   4.029   6.044 -0.2352  0.0199 -0.0670
  754ODE      C 3770   2.472   4.107   6.232  0.0410 -0.0512  0.2084
  755ODE      C 3771   6.383   3.167   2.083 -0.1252  0.2469 -0.5120
  755ODE      C 3772   6.701   3.436   1.917 -0.0562 -0.0303 -0.1362
  755ODE      D 3773   6.759   3.576   1.449  0.0803 -0.2555 -0.0414
  755ODE      C 3774   6.986   3.545   1.051  0.0076 -0.0044 -0.0982
  755ODE      C 3775   6.877   3.477   0.627 -0.0761 -0.1018  0.0104
  756ODE      C 3776   7.884   1.416   0.133 -0.1114 -0.0067  0.0668
  756ODE      C 3777   7.741   1.860   0.038  0.1025 -0.2029  0.1315
  756ODE      D 3778   7.511   2.292  -0.045 -0.2681 -0.1102  0.2935
  756ODE      C 3779   7.838   2.607  -0.185  0.1551  0.2070 -0.0097
  756ODE      C 3780   8.251   2.686  -0.427 -0.2867  0.0030 -0.1050
  757ODE      C 3781   3.607   1.349   1.667 -0.3296 -0.2368  0.0536
  757ODE      C 3782   3.361   1.518   2.013  0.2261 -0.0397 -0.1020
  757ODE      D 3783   3.041   1.690   2.322  0.0181 -0.1024  0.3482
  757ODE      C 3784   2.671   1.916   2.266  0.0402  0.1371 -0.2973
  757ODE      C 3785   2.385   2.185   2.132 -0.1520  0.0637 -0.0547
  758ODE      C 3786   8.093   1.680   6.300 -0.2400 -0.0787 -0.1077
  758ODE      C 3787   8.373   1.407   6.393  0.3248 -0.0489 -0.0170
  758ODE      D 3788   8.536   1.170   6.586 -0.3414 -0.1793 -0.3785
  758ODE      C 3789   8.836   1.061   6.921 -0.1001 -0.3526 -0.0260
  758ODE      C 3790   8.967   1.345   7.259  0.0433 -0.1444  0.0076
  759ODE      C 3791   4.369   0.161   4.058 -0.0476  0.0474 -0.0381
  759ODE      C 3792   4.302  -0.024   4.408 -0.3896  0.2901 -0.0626
  759ODE      D 3793   4.139  -0.189   4.869 -0.2487 -0.0038  0.0450
  759ODE      C 3794   3.742  -0.222   4.990  0.2308 -0.0022  0.0124
  759ODE      C 3795   3.525  -0.321   5.369 -0.3371 -0.1086 -0.2444
  760ODE      C 3796   8.734   1.476   1.858 -0.0415  0.3760 -0.0849
  760ODE      C 3797   8.297   1.349   1.834  0.0818  0.0333 -0.1051
  760ODE      D 3798   7.868   1.153   1.885  0.3487  0.1450 -0.0806
  760ODE      C 3799   7.572   1.401   1.680 -0.1787 -0.0347  0.0676
  760ODE      C 3800   7.332   1.826   1.379 -0.1578 -0.1093 -0.2254
  761ODE      C 3801   5.524   4.659   6.948 -0.0683  0.2968 -0.1434
  761ODE      C 3802   5.203   4.466   6.676 -0.1477 -0.2135 -0.2022
  761ODE      D 3803   5.117   4.303   6.396 -0.1973  0.2008 -0.0252
  761ODE      C 3804   5.248   4.018   6.051  0.0929  0.1802  0.0673
  761ODE      C 3805   5.111   3.894   5.761  0.0129  0.0177  0.1786
  762ODE      C 3806   0.972   0.503   6.214 -0.0336 -0.0931 -0.0644
  762ODE      C 3807   1.240   0.672   6.465 -0.2697  0.2958  0.1903
  762ODE      D 3808   1.356   0.646   6.899  0.2688 -0.1004  0.0883
  762ODE      C 3809   1.699   0.444   6.954  0.1989  0.1831  0.2650
  762ODE      C 3810   1.978   0.098   7.076 -0.0670 -0.3942 -0.1170
  763ODE      C 3811   1.177   4.833   6.710  0.3517 -0.3599 -0.0044
  763ODE      C 3812   1.365   4.642   6.406  0.0285  0.0891 -0.0479
  763ODE      D 3813   1.724   4.250   6.342  0.4023  0.2111 -0.2144
  763ODE      C 3814   1.930   3.925   6.648 -0.0003  0.1813  0.0368
  763ODE      C 3815   1.854   3.857   7.139 -0.1217 -0.2410  0.2568
  764ODE      C 3816   8.077   6.553   6.463  0.0915 -0.4833  0.2229
  764ODE      C 3817   8.023   6.606   6.882 -0.0565 -0.3147 -0.2957
  764ODE      D 3818   8.254   6.872   7.135 -0.1531 -0.1380 -0.2664
  764ODE      C 3819   8.380   7.312   6.947  0.2130 -0.0368  0.1546
  764ODE      C 3820   8.550   7.710   6.920  0.1672  0.0665 -0.0815
  765ODE      C 3821   7.911   2.841   2.696 -0.0422  0.1723  0.1089
  765ODE      C 3822   8.310   2.647   2.829  0.0780  0.2139  0.2096
  765ODE      D 3823   8.585   2.264   2.700  0.3741  0.0710  0.1307
  765ODE      C 3824   8.913   2.243   2.491  0.3770 -0.0320  0.2113
  765ODE      C 3825   9.330   2.012   2.541  0.0449 -0.0555 -0.3495
  766ODE      C 3826   8.725   1.734   1.421  0.3086 -0.1437 -0.2271
  766ODE      C 3827   8.636   1.603   1.047 -0.2499  0.1817  0.1184
  766ODE      D 3828   8.765   2.024   0.834 -0.3094  0.1667  0.0772
  766ODE      C 3829   9.040   2.141   0.469  0.0576  0.0491 -0.1176
  766ODE      C 3830   9.101   2.194   0.091 -0.0112  0.1989  0.1237
  767ODE      C 3831   6.384   0.104   4.625 -0.0254 -0.0456  0.0228
  767ODE      C 3832   5.955   0.343   4.666  0.2759  0.1502  0.0420
  767ODE      D 3833   5.858   0.742   4.808 -0.0066  0.0040  0.0172
  767ODE      C 3834   5.893   1.139   4.651  0.0006 -0.1658  0.1803
  767ODE      C 3835   5.678   1.528   4.694 -0.1880  0.1278 -0.3742
  768ODE      C 3836   9.113   3.754   1.235 -0.0165 -0.2059  0.0489
  768ODE      C 3837   8.869   3.801   1.611 -0.2390 -0.0833  0.0769
  768ODE      D 3838   8.563   3.862   1.836  0.2001 -0.1386 -0.0456
  768ODE      C 3839   8.361   4.259   1.900  0.0948  0.0106  0.1376
  768ODE      C 3840   8.249   4.639   1.669 -0.1913  0.0417 -0.0777
  769ODE      C 3841   1.334   0.748   2.790  0.2111 -0.0037  0.2041
  769ODE      C 3842   1.320   1.111   2.560  0.1634  0.0429 -0.0576
  769ODE      D 3843   1.358   1.570   2.771  0.1066  0.1944  0.2424
  769ODE      C 3844   1.034   1.899   2.740  0.0708 -0.1263 -0.0684
  769ODE      C 3845   0.715   2.054   2.692  0.0610  0.0261 -0.2606
  770ODE      C 3846   6.947   4.749   4.892  0.0443  0.0617  0.3290
  770ODE      C 3847   7.056   5.094   5.014  0.1097 -0.0137  0.0336
  770ODE      D 3848   6.813   5.404   5.214  0.1665  0.2443 -0.1455
  770ODE      C 3849   6.856   5.398   5.662 -0.0957 -0.1971 -0.3834
  770ODE      C 3850   6.953   5.279   6.157 -0.1984 -0.1572  0.1312
  771ODE      C 3851   8.404   0.087   5.394 -0.1874  0.1602  0.0649
  771ODE      C 3852   8.791  -0.055   5.176 -0.0330  0.0750  0.1261
  771ODE      D 3853   9.189   0.281   5.030 -0.2763 -0.2318  0.2713
  771ODE      C 3854   9.501   0.102   5.040 -0.1999 -0.1649  0.0670
  771ODE      C 3855   9.936   0.048   5.176  0.0085  0.0956  0.1580
  772ODE      C 3856   4.791   0.688   0.770  0.0626  0.2191  0.0721
  772ODE      C 3857   4.665   0.210   0.832  0.0143  0.0283 -0.0201
  772ODE      D 3858   4.379  -0.065   0.947 -0.1670  0.0339 -0.1679
  772ODE      C 3859   3.953  -0.160   0.706 -0.0443  0.1689 -0.2576
  772ODE      C 3860   3.738   0.070   0.855 -0.0101  0.0542  0.2192
  773ODE      C 3861   0.335   5.038   7.073  0.0584 -0.0684 -0.1607
  773ODE      C 3862   0.275   5.429   7.245  0.4651  0.0579 -0.2171
  773ODE      D 3863   0.111   5.771   7.067  0.3395 -0.0149  0.1100
  773ODE      C 3864   0.351   6.090   6.749  0.1660  0.2006  0.3384
  773ODE      C 3865   0.323   6.357   6.402 -0.0327 -0.0024 -0.1776
  774ODE      C 3866   5.119   1.689   3.441  0.0003 -0.1504  0.2340
  774ODE      C 3867   5.452   1.374   3.272  0.0147 -0.2447 -0.0606
  774ODE      D 3868   5.848   1.219   3.100  0.0731  0.2690 -0.0592
  774ODE      C 3869   6.246   1.395   3.263  0.0294 -0.0409 -0.1101
  774ODE      C 3870   6.565   1.614   3.545 -0.0265 -0.2538 -0.0432
  775ODE      C 3871   0.853   2.344   6.723 -0.2459  0.3470  0.0766
  775ODE      C 3872   0.528   2.301   6.981  0.0180  0.0461  0.2202
  775ODE      D 3873   0.419   2.422   7.378 -0.0727  0.0420  0.2615
  775ODE      C 3874   0.432   2.913   7.492 -0.0568 -0.0461  0.1907
  775ODE      C 3875   0.469   3.320   7.615  0.0302  0.0375 -0.0495
  776ODE      C 3876   3.124   2.498   3.349 -0.1244 -0.0375 -0.0345
  776ODE      C 3877   2.877   2.244   3.600  0.3531 -0.0321  0.0856
  776ODE      D 3878   2.653   1.838   3.620 -0.0335 -0.0855 -0.1803
  776ODE      C 3879   2.653   1.733   3.280  0.1209  0.0880 -0.0392
  776ODE      C 3880   2.866   1.300   3.216 -0.0818  0.1904 -0.1465
  777ODE      C 3881   2.623   5.345   4.778  0.1433 -0.0901  0.0660
  777ODE      C 3882   2.227   5.314   4.642 -0.0070 -0.3092 -0.0570
  777ODE      D 3883   2.167   5.552   4.240  0.3284  0.2383 -0.2614
  777ODE      C 3884   1.717   5.660   4.306 -0.1516  0.2243  0.2906
  777ODE      C 3885   1.352   5.412   4.271 -0.4375  0.1073  0.0558
  778ODE      C 3886   7.386   5.593   6.328  0.0260  0.1097 -0.0314
  778ODE      C 3887   7.587   5.396   6.517  0.1718 -0.1004 -0.3073
  778ODE      D 3888   8.042   5.389   6.702  0.0212  0.0573 -0.3967
  778ODE      C 3889   8.259   4.999   6.729  0.5404 -0.3455  0.0505
  778ODE      C 3890   8.536   4.672   6.793 -0.2682  0.2528  0.3265
  779ODE      C 3891   8.876   6.058   0.340 -0.2370 -0.0894 -0.1946
  779ODE      C 3892   8.658   5.742   0.147  0.1020 -0.0095 -0.3721
  779ODE      D 3893   8.849   5.359  -0.051  0.1508  0.2115 -0.0199
  779ODE      C 3894   8.760   5.207  -0.459  0.0502  0.1441 -0.0169
  779ODE      C 3895   8.878   4.814  -0.736 -0.0469  0.1279  0.5107
  780ODE      C 3896   2.733   6.856   2.314 -0.0968  0.0070  0.1785
  780ODE      C 3897   2.967   6.921   1.986 -0.3289 -0.3563 -0.3842
  780ODE      D 3898   3.244   7.249   1.886  0.0101  0.0533 -0.1003
  780ODE      C 3899   3.138   7.667   1.675 -0.0056  0.0567 -0.1816
  780ODE      C 3900   2.999   7.765   1.421 -0.0215  0.2664 -0.0756
  781ODE      C 3901   7.267   6.870   3.189  0.0528 -0.0829 -0.2831
  781ODE      C 3902   7.644   6.963   3.502 -0.2510  0.0095 -0.0218
  781ODE      D 3903   7.964   7.101   3.754 -0.0071  0.1790  0.0395
  781ODE      C 3904   7.973   7.414   4.096  0.1234  0.0141 -0.3108
  781ODE      C 3905   7.987   7.769   4.230  0.1620  0.1643  0.0279
  782ODE      C 3906   2.845   5.874   6.027  0.0915  0.1111 -0.1571
  782ODE      C 3907   2.685   5.601   6.266  0.2050 -0.1424  0.0829
  782ODE      D 3908   2.342   5.415   6.473 -0.1514  0.2009  0.1821
  782ODE      C 3909   2.439   4.996   6.300 -0.2435 -0.0953 -0.0777
  782ODE      C 3910   2.261   4.534   6.175  0.1913  0.0818  0.4442
  783ODE      C 3911   7.271   5.505   4.577 -0.0223  0.0563 -0.1421
  783ODE      C 3912   7.589   5.305   4.635 -0.0702  0.1573 -0.0926
  783ODE      D 3913   7.661   5.113   5.096 -0.0171 -0.4032  0.0996
  783ODE      C 3914   7.916   5.325   5.400 -0.1068  0.0556  0.2419
  783ODE      C 3915   8.148   5.633   5.570  0.0055 -0.0999  0.0190
  784ODE      C 3916   3.386   1.986   4.747 -0.0554 -0.1198  0.3053
  784ODE      C 3917   2.923   2.149   5.054  0.0299 -0.0214  0.2237
  784ODE      D 3918   2.558   2.299   4.927 -0.3324  0.0869  0.1617
  784ODE      C 3919   2.353   2.171   4.569 -0.2584  0.0209 -0.0868
  784ODE      C 3920   2.078   2.418   4.305 -0.0042 -0.1740 -0.0509
  785ODE      C 3921   8.152   2.652   6.234 -0.0021  0.0206  0.2681
  785ODE      C 3922   8.506   2.984   6.422 -0.0096 -0.1400 -0.1869
  785ODE      D 3923   8.877   3.229   6.351 -0.0549  0.0803 -0.2689
  785ODE      C 3924   9.169   3.518   6.607  0.1775  0.2320  0.2661
  785ODE      C 3925   9.041   3.867   6.853  0.3244 -0.1008 -0.2909
  786ODE      C 3926   6.989   0.596   0.663 -0.0587 -0.5021 -0.0821
  786ODE      C 3927   7.378   0.569   0.936 -0.1648  0.2846  0.0345
  786ODE      D 3928   7.819   0.674   1.004 -0.2507 -0.0681 -0.1695
  786ODE      C 3929   7.955   0.991   0.922 -0.1876  0.1739 -0.5577
  786ODE      C 3930   8.300   1.195   0.859  0.1598  0.1986  0.1013
  787ODE      C 3931   7.561   4.921   3.216  0.0759 -0.0421  0.1421
  787ODE      C 3932   7.486   5.114   3.702 -0.1557  0.0588 -0.0359
  787ODE      D 3933   7.194   5.284   4.011 -0.1952  0.0943  0.1092
  787ODE      C 3934   6.811   5.449   4.036 -0.2280 -0.2872 -0.0592
  787ODE      C 3935   6.492   5.275   3.732  0.0591  0.1291  0.2130
  788ODE      C 3936   5.651   5.071   2.119 -0.1945  0.1693 -0.1534
  788ODE      C 3937   5.387   5.158   1.870  0.0765 -0.0167 -0.2762
  788ODE      D 3938   4.962   5.273   1.718 -0.0506 -0.1517 -0.4875
  788ODE      C 3939   4.605   5.051   1.980  0.1417 -0.2459 -0.0108
  788ODE      C 3940   4.167   5.136   1.901  0.0667 -0.1048 -0.0902
  789ODE      C 3941   9.136   2.116   1.335 -0.2848 -0.1931 -0.0239
  789ODE      C 3942   9.190   1.749   1.141  0.0859 -0.0111 -0.4380
  789ODE      D 3943   9.247   1.329   0.923 -0.0515 -0.2783  0.0145
  789ODE      C 3944   8.901   1.334   0.633 -0.0542 -0.3642  0.1529
  789ODE      C 3945   8.586   1.010   0.422  0.0873 -0.0715 -0.2175
  790ODE      C 3946   7.918   2.319   4.676  0.1249  0.2422  0.0350
  790ODE      C 3947   7.835   1.883   4.573  0.1669 -0.1231  0.0539
  790ODE      D 3948   7.520   1.672   4.333  0.1220 -0.0380 -0.0983
  790ODE      C 3949   7.209   1.646   4.594  0.1293  0.1494  0.0223
  790ODE      C 3950   7.030   1.469   4.925 -0.0334 -0.1916  0.1810
  791ODE      C 3951   1.352   0.991   1.572  0.0607  0.0251 -0.1700
  791ODE      C 3952   0.919   1.036   1.589 -0.0136 -0.0595  0.2455
  791ODE      D 3953   0.470   0.978   1.686 -0.1826  0.0209  0.0086
  791ODE      C 3954   0.310   1.359   1.901  0.0196 -0.0327 -0.0993
  791ODE      C 3955   0.101   1.733   2.123  0.1469 -0.0921 -0.1677
  792ODE      C 3956   6.803   1.321   5.841 -0.3311 -0.1219 -0.0684
  792ODE      C 3957   7.184   1.621   5.772 -0.1034 -0.0630 -0.0322
  792ODE      D 3958   7.547   1.601   5.520  0.0789  0.1398  0.0258
  792ODE      C 3959   7.851   1.247   5.560 -0.0019  0.1786  0.1137
  792ODE      C 3960   7.926   0.812   5.485  0.2013 -0.0715 -0.1901
  793ODE      C 3961   2.274   6.059   1.106  0.2029  0.3647 -0.1116
  793ODE      C 3962   2.209   6.464   1.016 -0.0212 -0.2135  0.0097
  793ODE      D 3963   2.262   6.682   0.627  0.2300 -0.3928  0.1723
  793ODE      C 3964   2.239   7.111   0.441  0.1898 -0.0362 -0.0233
  793ODE      C 3965   2.170   7.542   0.447  0.0002 -0.0477 -0.1019
  794ODE      C 3966   8.183   1.992   4.180  0.0701  0.1882 -0.3114
  794ODE      C 3967   8.355   1.870   3.754  0.0033 -0.0042 -0.0695
  794ODE      D 3968   8.559   1.705   3.415  0.3731 -0.1980 -0.3645
  794ODE      C 3969   8.666   2.073   3.363 -0.0705  0.1304  0.0601
  794ODE      C 3970   9.038   2.335   3.236 -0.0448 -0.2192 -0.2630
  795ODE      C 3971   5.423   6.999   1.350  0.0756  0.3284 -0.0172
  795ODE      C 3972   5.606   7.131   1.736  0.1387  0.4175 -0.1418
  795ODE      D 3973   5.556   7.519   2.021 -0.0591  0.0874  0.1151
  795ODE      C 3974   5.768   7.839   1.869  0.2922 -0.1126  0.2302
  795ODE      C 3975   5.803   8.239   1.790 -0.1766  0.1745 -0.0535
  796ODE      C 3976   5.554   6.014   5.560 -0.0184  0.1724 -0.0787
  796ODE      C 3977   5.697   6.326   5.792  0.2359 -0.1608 -0.2016
  796ODE      D 3978   5.732   6.590   6.057  0.0276  0.0226  0.4675
  796ODE      C 3979   6.136   6.476   6.110  0.2671 -0.2600  0.1895
  796ODE      C 3980   6.467   6.667   5.970  0.1529  0.1187 -0.0378
  797ODE      C 3981   8.616   6.934   3.197 -0.3310 -0.0680  0.2329
  797ODE      C 3982   8.677   7.029   2.766 -0.3398  0.0702  0.0450
  797ODE      D 3983   8.464   7.152   2.446 -0.0195  0.2182 -0.1286
  797ODE      C 3984   8.409   7.278   2.020  0.2513 -0.3491  0.0038
  797ODE      C 3985   8.427   7.612   1.782 -0.0077  0.0398 -0.1679
  798ODE      C 3986   0.485   6.336   1.685 -0.3237  0.1891  0.1505
  798ODE      C 3987   0.381   6.042   1.962 -0.3182  0.1151  0.2400
  798ODE      D 3988   0.349   5.932   2.390  0.1239 -0.2869  0.0105
  798ODE      C 3989   0.220   5.734   2.560 -0.1392  0.3905  0.0275
  798ODE      C 3990  -0.066   5.437   2.700 -0.1933  0.0839 -0.4205
  799ODE      C 3991   3.629   3.477   6.186  0.0232  0.1142 -0.0603
  799ODE      C 3992   3.694   3.626   5.841 -0.2345 -0.5936  0.0877
  799ODE      D 3993   3.761   3.899   5.383 -0.1160  0.0476  0.0685
  799ODE      C 3994   3.372   4.118   5.180 -0.0400 -0.3539 -0.1884
  799ODE      C 3995   2.961   4.094   4.973  0.1566  0.1909  0.0265
  800ODE      C 3996   1.527   6.158   5.719  0.0826 -0.0168 -0.1225
  800ODE      C 3997   1.622   6.072   6.160 -0.0892  0.0341  0.1029
  800ODE      D 3998   1.564   6.355   6.657  0.0660  0.0541  0.2798
  800ODE      C 3999   1.834   6.760   6.808  0.0450  0.2393 -0.1239
  800ODE      C 4000   2.108   6.987   6.686 -0.1906 -0.2232 -0.3364
  801ODE      C 4001   0.287   2.761   2.078  0.1089  0.1989  0.1097
  801ODE      C 4002   0.146   2.823   1.609 -0.4150  0.0600  0.1083
  801ODE      D 4003  -0.036   2.532   1.423 -0.2592 -0.1808  0.2012
  801ODE      C 4004  -0.412   2.418   1.736 -0.0806 -0.1437 -0.1347
  801ODE      C 4005  -0.647   1.957   1.850 -0.1238  0.1644  0.4639
  802ODE      C 4006   5.079   2.929   3.877  0.3167  0.0011 -0.2201
  802ODE      C 4007   4.872   2.672   3.578 -0.0935  0.1556 -0.0877
  802ODE      D 4008   4.905   2.227   3.451  0.0361 -0.1329 -0.2777
  802ODE      C 4009   5.164   2.156   3.193  0.0213 -0.2938 -0.0159
  802ODE      C 4010   5.442   2.313   2.913 -0.2317  0.1300 -0.3203
  803ODE      C 4011   7.796   0.179   0.538  0.2231  0.2585  0.0860
  803ODE      C 4012   7.722   0.180   1.096  0.0117  0.3328  0.3397
  803ODE      D 4013   7.538  -0.043   1.477 -0.1687 -0.3231  0.3634
  803ODE      C 4014   7.351   0.070   1.837  0.0271 -0.0756 -0.2863
  803ODE      C 4015   7.354   0.306   2.206  0.1622  0.1395 -0.5174
  804ODE      C 4016   5.055   4.435   4.771  0.0036  0.0349 -0.3572
  804ODE      C 4017   4.739   4.529   4.616 -0.1302 -0.0631  0.1466
  804ODE      D 4018   4.539   4.902   4.612 -0.0145  0.2867 -0.0955
  804ODE      C 4019   4.505   4.949   4.259  0.2298  0.1465  0.1964
  804ODE      C 4020   4.597   4.948   3.788 -0.0345  0.2479 -0.2778
  805ODE      C 4021   1.006   3.049   3.232  0.0266  0.2048 -0.3858
  805ODE      C 4022   0.641   2.812   3.397  0.3235  0.0075 -0.0266
  805ODE      D 4023   0.247   2.559   3.569 -0.0052  0.1300 -0.0156
  805ODE      C 4024   0.358   2.141   3.769  0.2480  0.0315 -0.1731
  805ODE      C 4025   0.204   1.812   3.948 -0.1989 -0.0458 -0.0673
  806ODE      C 4026   4.928   6.414   2.466  0.3427  0.2623 -0.0097
  806ODE      C 4027   5.240   6.702   2.591  0.1063  0.1626 -0.2392
  806ODE      D 4028   5.229   7.139   2.775  0.0390  0.1775  0.3731
  806ODE      C 4029   5.494   7.324   3.082  0.1181  0.3705 -0.0631
  806ODE      C 4030   5.694   7.404   3.401 -0.0214  0.1399  0.0204
  807ODE      C 4031   7.515   4.508   3.664 -0.1098 -0.0037 -0.4107
  807ODE      C 4032   7.833   4.298   3.350  0.1473 -0.0307 -0.2083
  807ODE      D 4033   7.851   3.873   3.267  0.2356  0.1255 -0.1717
  807ODE      C 4034   8.126   3.647   3.639  0.0869  0.0373  0.0664
  807ODE      C 4035   8.517   3.518   3.592 -0.0464  0.1285  0.0077
  808ODE      C 4036   2.608   0.063   3.004  0.4433  0.1352 -0.1423
  808ODE      C 4037   2.950   0.206   2.732 -0.0800  0.4506  0.1558
  808ODE      D 4038   3.394  -0.024   2.905  0.2542 -0.1594  0.0995
  808ODE      C 4039   3.559  -0.436   2.845  0.0704  0.2329 -0.1725
  808ODE      C 4040   3.861  -0.803   2.723  0.2285  0.0994 -0.1637
  809ODE      C 4041   8.770   3.147   4.278 -0.0436 -0.1482  0.0109
  809ODE      C 4042   8.424   3.292   4.516 -0.1709  0.0585 -0.0352
  809ODE      D 4043   8.102   3.465   4.793 -0.0439  0.2815 -0.1881
  809ODE      C 4044   7.713   3.263   4.842 -0.2205 -0.0584  0.1724
  809ODE      C 4045   7.526   2.898   5.004  0.1044  0.0677 -0.0287
  810ODE      C 4046   4.666   6.244   3.179 -0.2279  0.1536 -0.0767
  810ODE      C 4047   4.369   6.211   3.399  0.1635  0.2028 -0.2769
  810ODE      D 4048   4.141   5.877   3.625  0.2644  0.4578  0.1447
  810ODE      C 4049   3.760   5.966   3.785 -0.1703  0.4893  0.2572
  810ODE      C 4050   3.394   6.057   3.951 -0.3869  0.1035  0.2060
  811ODE      C 4051   0.378   1.402   3.587 -0.0977 -0.3413  0.2706
  811ODE      C 4052   0.667   1.234   3.277  0.0420 -0.1001  0.2753
  811ODE      D 4053   1.035   1.106   3.047  0.1227 -0.0039 -0.2362
  811ODE      C 4054   1.549   1.073   3.085 -0.0209  0.0383  0.2925
  811ODE      C 4055   1.950   0.919   3.231  0.0859 -0.1226  0.1658
  812ODE      C 4056   8.890   2.099   6.418  0.1109  0.1950  0.3582
  812ODE      C 4057   9.276   1.933   6.455 -0.0175 -0.0896 -0.0702
  812ODE      D 4058   9.254   1.522   6.237  0.1763 -0.0215  0.3188
  812ODE      C 4059   8.931   1.235   6.118 -0.1412 -0.3065 -0.1328
  812ODE      C 4060   8.523   1.067   6.060  0.0196 -0.4313 -0.2502
  813ODE      C 4061   6.075   4.029   6.992  0.1273 -0.0521  0.1115
  813ODE      C 4062   5.856   3.807   6.634 -0.1749 -0.4635  0.0356
  813ODE      D 4063   5.441   3.797   6.524  0.1225 -0.0795  0.2128
  813ODE      C 4064   5.124   3.958   6.831 -0.0165  0.1280  0.2774
  813ODE      C 4065   5.327   3.964   7.259 -0.0229  0.0319  0.1764
  814ODE      C 4066   7.502   2.910   7.172 -0.3132  0.2300 -0.0934
  814ODE      C 4067   7.341   2.654   6.893  0.1492  0.0381 -0.0719
  814ODE      D 4068   7.128   2.784   6.496 -0.3579 -0.1071 -0.3410
  814ODE      C 4069   6.806   2.763   6.319 -0.0544  0.2568  0.0982
  814ODE      C 4070   6.486   3.035   6.262 -0.2202 -0.1138 -0.0302
  815ODE      C 4071   4.134   5.749   4.532 -0.0435  0.3781 -0.2325
  815ODE      C 4072   4.052   5.669   4.139 -0.1782 -0.1274 -0.2052
  815ODE      D 4073   4.240   5.303   3.924  0.0752 -0.0229 -0.0371
  815ODE      C 4074   4.452   5.415   3.534  0.2778  0.2015  0.1209
  815ODE      C 4075   4.556   5.698   3.297  0.0815  0.0228  0.1727
  816ODE      C 4076   3.091   4.898   0.912 -0.3292 -0.0304 -0.1206
  816ODE      C 4077   2.892   5.233   0.822 -0.0478 -0.0902 -0.0375
  816ODE      D 4078   2.749   5.403   0.378  0.0969 -0.1519 -0.0580
  816ODE      C 4079   3.059   5.347   0.013 -0.0994 -0.6363  0.1898
  816ODE      C 4080   3.513   5.249  -0.138  0.1761 -0.2303  0.0290
  817ODE      C 4081   5.037   3.308   0.336 -0.0076 -0.1887  0.0826
  817ODE      C 4082   4.718   3.156   0.627  0.2065 -0.0456  0.1893
  817ODE      D 4083   5.002   2.953   0.922  0.1770  0.2040 -0.0049
  817ODE      C 4084   5.143   2.452   0.754  0.1964  0.0138  0.3609
  817ODE      C 4085   5.162   2.064   0.643  0.0388  0.1317  0.1404
  818ODE      C 4086   5.770   4.542   3.682  0.0423  0.0390  0.3017
  818ODE      C 4087   5.729   4.112   3.517  0.0667  0.2054 -0.2952
  818ODE      D 4088   6.202   3.847   3.636 -0.0735 -0.0242  0.1583
  818ODE      C 4089   6.328   3.705   4.076  0.1730 -0.1677  0.2620
  818ODE      C 4090   6.488   3.632   4.448 -0.0576 -0.2883 -0.3045
  819ODE      C 4091   4.097   6.596   6.206 -0.3560 -0.1224  0.0959
  819ODE      C 4092   3.960   6.271   6.109 -0.1234  0.0310 -0.1472
  819ODE      D 4093   3.840   5.975   5.889  0.2480  0.2175  0.3753
  819ODE      C 4094   3.394   6.070   5.628  0.1534 -0.0540 -0.4543
  819ODE      C 4095   2.951   6.085   5.428  0.1836  0.0984  0.1300
  820ODE      C 4096   4.966   1.142   1.560  0.1590 -0.0856 -0.0497
  820ODE      C 4097   4.523   0.987   1.790 -0.3731  0.1940  0.0867
  820ODE      D 4098   4.096   1.023   1.652 -0.0020 -0.1817 -0.1684
  820ODE      C 4099   3.938   1.150   2.033  0.0782  0.3360 -0.2155
  820ODE      C 4100   4.018   1.492   2.304  0.3540 -0.2398 -0.1123
  821ODE      C 4101   8.799   1.031   0.955 -0.3522 -0.1829 -0.0314
  821ODE      C 4102   8.721   0.611   0.811 -0.1567 -0.2153  0.0744
  821ODE      D 4103   8.735   0.191   0.811  0.0401  0.2020  0.0148
  821ODE      C 4104   8.362   0.019   0.667 -0.0586  0.1685 -0.0668
  821ODE      C 4105   8.154  -0.105   0.355  0.1081  0.2287  0.1008
  822ODE      C 4106   8.719   1.898   5.596 -0.1165 -0.3751 -0.1243
  822ODE      C 4107   8.385   2.086   5.548  0.5015  0.2059 -0.2839
  822ODE      D 4108   8.027   2.299   5.385 -0.1166  0.0856 -0.0653
  822ODE      C 4109   7.574   2.436   5.090 -0.2456  0.1079  0.0895
  822ODE      C 4110   7.231   2.082   4.867 -0.2477 -0.0760  0.0338
  823ODE      C 4111   2.821   6.305   2.906 -0.1670 -0.0483  0.1848
  823ODE      C 4112   3.067   6.519   3.225 -0.0334  0.1898  0.2675
  823ODE      D 4113   3.231   6.576   3.719  0.1482  0.0185 -0.0847
  823ODE      C 4114   3.626   6.539   3.826  0.0538  0.0076 -0.0650
  823ODE      C 4115   3.961   6.436   3.570 -0.0101 -0.0675  0.0393
  824ODE      C 4116   9.368   3.020   2.824  0.0815 -0.0744  0.0643
  824ODE      C 4117   9.192   3.201   3.139 -0.0019  0.0991 -0.0345
  824ODE      D 4118   9.235   3.575   3.301 -0.0851 -0.0580  0.2282
  824ODE      C 4119   9.533   3.654   3.635  0.0990 -0.0213  0.0020
  824ODE      C 4120   9.933   3.398   3.808 -0.0688  0.0379 -0.1801
  825ODE      C 4121   1.276   0.891   0.610 -0.1551  0.4539  0.0307
  825ODE      C 4122   1.182   0.547   0.764  0.1608  0.1516  0.0898
  825ODE      D 4123   1.119   0.331   1.247 -0.0467  0.2383  0.2003
  825ODE      C 4124   0.764   0.141   1.310  0.1137  0.1636  0.0373
  825ODE      C 4125   0.378   0.159   1.225 -0.2516 -0.3214 -0.0252
  826ODE      C 4126   6.611   0.408   4.218  0.0496 -0.1378 -0.4063
  826ODE      C 4127   6.627   0.722   3.875  0.0323 -0.1526  0.0467
  826ODE      D 4128   6.487   0.984   3.506  0.2018 -0.0596 -0.1395
  826ODE      C 4129   6.731   1.275   3.245  0.0622 -0.0437 -0.2190
  826ODE      C 4130   7.006   1.659   3.013 -0.1362 -0.1085  0.2994
  827ODE      C 4131   8.545   0.696   6.442 -0.0545  0.0158  0.0467
  827ODE      C 4132   8.950   0.800   6.544 -0.1315 -0.1148  0.1921
  827ODE      D 4133   9.323   0.730   6.686 -0.0431  0.1817 -0.0535
  827ODE      C 4134   9.567   0.375   6.596  0.0384  0.1096 -0.2530
  827ODE      C 4135  10.027   0.254   6.494 -0.2992  0.2933  0.1721
  828ODE      C 4136   5.723   5.503   1.720  0.0591  0.2457 -0.2301
  828ODE      C 4137   6.148   5.343   1.664  0.2622 -0.2692  0.0423
  828ODE      D 4138   6.647   5.426   1.752 -0.1720 -0.0672 -0.1495
  828ODE      C 4139   6.951   5.231   2.004 -0.3192 -0.0137 -0.3394
  828ODE      C 4140   7.074   4.880   2.099  0.0901  0.0116  0.4694
  829ODE      C 4141   5.231   0.741   4.059  0.2984  0.0053  0.1511
  829ODE      C 4142   5.684   0.611   3.774 -0.0364  0.3495  0.1130
  829ODE      D 4143   6.065   0.829   3.735  0.2646  0.1623 -0.0300
  829ODE      C 4144   6.175   1.200   4.010  0.0656  0.2300 -0.1292
  829ODE      C 4145   6.223   1.310   4.355  0.3006 -0.3718 -0.2176
  830ODE      C 4146   2.011   2.090   4.936  0.0569  0.2371 -0.1422
  830ODE      C 4147   1.771   2.483   5.130 -0.3998  0.0988 -0.1419
  830ODE      D 4148   1.360   2.756   5.024  0.0659  0.0923 -0.2899
  830ODE      C 4149   1.025   2.604   5.240 -0.0680  0.0067  0.2433
  830ODE      C 4150   0.885   2.164   5.235  0.0881 -0.0571  0.3712
  831ODE      C 4151   4.779   4.165   1.709  0.1365 -0.2199 -0.2454
  831ODE      C 4152   5.122   4.243   1.428  0.2585  0.1854 -0.0860
  831ODE      D 4153   5.550   4.343   1.320 -0.2996 -0.0947 -0.2931
  831ODE      C 4154   5.621   4.141   1.698  0.2338  0.0497 -0.0895
  831ODE      C 4155   5.921   3.896   1.884 -0.1970  0.3305 -0.3319
  832ODE      C 4156   5.582   2.548   6.942 -0.3128  0.0103 -0.0085
  832ODE      C 4157   5.596   2.124   6.778 -0.1714 -0.0116  0.0194
  832ODE      D 4158   5.595   1.695   6.845  0.1421 -0.1215 -0.0560
  832ODE      C 4159   5.394   1.550   7.309 -0.0554 -0.1246  0.1598
  832ODE      C 4160   5.096   1.719   7.449  0.3480 -0.3977 -0.0029
  833ODE      C 4161   0.302   5.213   5.057 -0.0118 -0.1097 -0.5738
  833ODE      C 4162   0.634   5.494   5.285  0.1466  0.2013  0.0972
  833ODE      D 4163   0.977   5.670   5.155 -0.2153 -0.0870 -0.2005
  833ODE      C 4164   1.094   5.301   4.883  0.2766 -0.0011 -0.0438
  833ODE      C 4165   1.319   5.013   4.606  0.1700 -0.3210  0.0791
  834ODE      C 4166   0.512   2.324   6.147  0.0356 -0.1456 -0.0886
  834ODE      C 4167   0.149   2.365   5.833  0.0542 -0.1021 -0.0199
  834ODE      D 4168  -0.293   2.521   5.704 -0.3650 -0.0547  0.1191
  834ODE      C 4169  -0.678   2.331   5.869 -0.1852 -0.0119  0.3115
  834ODE      C 4170  -1.090   2.510   5.843  0.2212  0.0357 -0.2236
  835ODE      C 4171   2.097   0.826   4.215 -0.2477  0.0118  0.0594
  835ODE      C 4172   2.401   0.913   4.442 -0.1088  0.0354 -0.0811
  835ODE      D 4173   2.558   1.261   4.700 -0.0401  0.0248  0.2312
  835ODE      C 4174   2.381   1.204   5.123  0.0126 -0.1919  0.2291
  835ODE      C 4175   2.243   1.239   5.505 -0.0499 -0.0717  0.3262
  836ODE      C 4176   6.677   2.576   1.063  0.1474  0.0313 -0.2438
  836ODE      C 4177   7.050   2.699   1.232  0.0420  0.0254 -0.1358
  836ODE      D 4178   7.484   2.797   1.338  0.0132 -0.1275 -0.0385
  836ODE      C 4179   7.542   3.209   1.256  0.0978  0.1420 -0.0082
  836ODE      C 4180   7.436   3.672   1.153 -0.2112  0.0840 -0.1350
  837ODE      C 4181   1.570   1.109   2.068  0.0134  0.0572 -0.0121
  837ODE      C 4182   1.315   1.535   2.273 -0.1802 -0.0365 -0.3967
  837ODE      D 4183   1.359   1.858   1.939  0.4268 -0.4256  0.0913
  837ODE      C 4184   1.093   2.074   1.823  0.0830  0.1630 -0.0374
  837ODE      C 4185   0.972   2.377   1.493 -0.1082 -0.1296 -0.0622
  838ODE      C 4186   7.019   0.589   1.974  0.0791  0.1700 -0.0422
  838ODE      C 4187   6.714   0.768   1.672 -0.0542  0.3298  0.1387
  838ODE      D 4188   6.382   0.933   1.911  0.2061 -0.0378 -0.1074
  838ODE      C 4189   6.080   0.714   2.266 -0.0140  0.0770 -0.0000
  838ODE      C 4190   6.262   0.496   2.577 -0.0198 -0.1828  0.2080
  839ODE      C 4191   6.119   3.617   2.271 -0.1022  0.0655 -0.0307
  839ODE      C 4192   6.438   3.611   2.486  0.1854  0.0554 -0.1487
  839ODE      D 4193   6.673   3.773   2.816  0.0889  0.1471  0.2461
  839ODE      C 4194   6.947   3.473   2.945  0.0500 -0.1453  0.0861
  839ODE      C 4195   6.997   3.128   3.173  0.1185  0.1196 -0.0742
  840ODE      C 4196   6.426   5.249   2.580  0.1478  0.0572 -0.0453
  840ODE      C 4197   6.671   4.972   2.479  0.0599  0.3642 -0.1893
  840ODE      D 4198   6.954   4.550   2.474 -0.3210  0.0661 -0.0426
  840ODE      C 4199   7.318   4.500   2.521  0.0205  0.1456 -0.0125
  840ODE      C 4200   7.584   4.528   2.881 -0.0665 -0.0302 -0.0111
  841ODE      C 4201   5.757   6.987   4.693  0.2065 -0.1934 -0.1911
  841ODE      C 4202   6.002   6.728   4.578  0.0504  0.1285  0.1348
  841ODE      D 4203   6.212   6.348   4.395  0.1240 -0.3946 -0.3061
  841ODE      C 4204   6.004   6.087   4.100  0.1195  0.1220  0.0073
  841ODE      C 4205   6.037   5.960   3.714  0.2052 -0.2143 -0.1299
  842ODE      C 4206   7.355   5.011   6.240 -0.0852 -0.0103 -0.1879
  842ODE      C 4207   7.332   4.607   6.252  0.2290 -0.1805  0.1919
  842ODE      D 4208   7.210   4.231   6.413  0.0911 -0.0438 -0.1075
  842ODE      C 4209   6.927   4.372   6.745  0.1111 -0.5720 -0.1236
  842ODE      C 4210   6.902   4.238   7.207  0.1290  0.0195  0.1023
  843ODE      C 4211   0.707   0.451   5.182 -0.0637  0.0607  0.1712
  843ODE      C 4212   0.976   0.816   5.216 -0.0537  0.0346  0.3995
  843ODE      D 4213   0.887   1.296   5.136 -0.0702  0.2815 -0.0484
  843ODE      C 4214   1.044   1.647   4.890 -0.1150  0.0579 -0.2351
  843ODE      C 4215   1.182   1.691   4.416  0.1661  0.1576  0.3515
  844ODE      C 4216   8.113   3.953   6.575  0.1708  0.4289  0.1108
  844ODE      C 4217   8.187   4.061   6.202  0.3391  0.1096  0.0780
  844ODE      D 4218   8.195   4.386   5.951 -0.2457 -0.0425  0.2721
  844ODE      C 4219   8.232   4.803   5.808  0.0451  0.0049 -0.1313
  844ODE      C 4220   8.375   5.150   5.708 -0.0448  0.2251  0.0571
  845ODE      C 4221   0.522   3.265   6.027  0.3132 -0.0165 -0.0903
  845ODE      C 4222   0.205   3.386   5.716 -0.2747  0.2702 -0.1871
  845ODE      D 4223   0.013   3.470   5.235  0.2011  0.2569 -0.0958
  845ODE      C 4224  -0.200   2.966   5.209  0.0150 -0.0729 -0.1117
  845ODE      C 4225  -0.330   2.629   5.032 -0.3330 -0.0820 -0.0510
  846ODE      C 4226   0.143   3.324   3.118 -0.0145  0.1097 -0.0053
  846ODE      C 4227  -0.010   3.517   2.775 -0.1103  0.0178  0.0375
  846ODE      D 4228  -0.157   3.626   2.333 -0.0522 -0.1008 -0.1221
  846ODE      C 4229  -0.550   3.899   2.284  0.2362 -0.0922 -0.0891
  846ODE      C 4230  -0.646   4.263   2.407  0.0921 -0.1194  0.2670
  847ODE      C 4231   9.186   5.062   2.605  0.2186  0.0169 -0.3032
  847ODE      C 4232   8.830   5.104   2.926  0.2363 -0.4151 -0.0201
  847ODE      D 4233   8.479   4.871   3.172 -0.0754 -0.1120  0.0293
  847ODE      C 4234   8.631   4.848   3.620  0.1975 -0.3179 -0.1498
  847ODE      C 4235   8.533   4.562   4.025 -0.1671 -0.1137 -0.0477
  848ODE      C 4236   6.381   0.799   6.250  0.1033 -0.0460 -0.1978
  848ODE      C 4237   6.746   1.088   6.247  0.0473 -0.3142  0.0813
  848ODE      D 4238   7.176   1.370   6.202 -0.0308  0.3271 -0.0324
  848ODE      C 4239   7.155   1.818   6.221  0.1451  0.0649  0.1071
  848ODE      C 4240   7.173   2.175   6.519  0.0683  0.0039 -0.2828
  849ODE      C 4241   6.614   4.579   4.594 -0.0357 -0.0167 -0.0816
  849ODE      C 4242   6.547   4.898   4.322 -0.1690  0.0385  0.4725
  849ODE      D 4243   6.876   4.924   3.966  0.1133  0.0959  0.0577
  849ODE      C 4244   7.263   4.743   3.999  0.0563  0.1054 -0.3871
  849ODE      C 4245   7.469   4.347   4.204 -0.1150 -0.0167  0.0046
  850ODE      C 4246   0.708   4.374   4.076 -0.0620  0.0641  0.2752
  850ODE      C 4247   0.423   4.131   3.728  0.3948 -0.2053  0.2996
  850ODE      D 4248   0.201   4.094   3.400  0.0183  0.0372  0.0331
  850ODE      C 4249   0.335   3.829   3.106  0.1137 -0.3248  0.0286
  850ODE      C 4250   0.657   3.526   2.896  0.1977 -0.2406  0.1052
  851ODE      C 4251   3.224   3.452   5.891  0.2619 -0.2906  0.1831
  851ODE      C 4252   3.237   3.802   6.004 -0.2811 -0.0303  0.1230
  851ODE      D 4253   3.612   4.037   6.063 -0.1779  0.0775  0.1012
  851ODE      C 4254   4.056   4.040   5.905 -0.2650 -0.0970  0.1642
  851ODE      C 4255   4.195   4.088   5.403  0.0663 -0.2555  0.0279
  852ODE      C 4256   4.876   4.392   2.774 -0.0007  0.0358 -0.3619
  852ODE      C 4257   4.542   4.544   2.938  0.2130 -0.1692 -0.1623
  852ODE      D 4258   4.339   4.904   2.989 -0.1875 -0.2811 -0.2405
  852ODE      C 4259   4.117   4.871   2.793  0.1194 -0.3467 -0.1685
  852ODE      C 4260   3.865   4.623   2.596  0.2775  0.2435  0.1334
  853ODE      C 4261   3.874   4.987   4.203  0.0142 -0.0990 -0.1775
  853ODE      C 4262   4.128   4.814   3.917 -0.0818 -0.2449  0.3119
  853ODE      D 4263   4.209   4.949   3.482  0.0855 -0.3224 -0.0574
  853ODE      C 4264   3.981   5.224   3.269 -0.2358 -0.3873 -0.0719
  853ODE      C 4265   3.829   5.546   3.371 -0.2183  0.1959  0.0803
  854ODE      C 4266   7.637   0.360   2.622  0.1159 -0.0091  0.1350
  854ODE      C 4267   7.783   0.700   2.768  0.3099  0.0405 -0.3226
  854ODE      D 4268   8.138   0.993   2.878  0.0182 -0.1228  0.0762
  854ODE      C 4269   7.891   1.232   3.161  0.1264 -0.0177  0.3000
  854ODE      C 4270   7.689   1.252   3.607 -0.3676 -0.1943  0.0278
  855ODE      C 4271   9.295   6.077   6.897 -0.0798  0.0730  0.0146
  855ODE      C 4272   9.409   6.303   6.651 -0.0259  0.1577 -0.0772
  855ODE      D 4273   9.573   6.720   6.524 -0.0130 -0.0648  0.0277
  855ODE      C 4274   9.759   7.032   6.736  0.2170 -0.0661  0.2121
  855ODE      C 4275   9.975   7.185   6.975 -0.1445  0.1240 -0.0364
  856ODE      C 4276   3.905   5.635   5.016 -0.0853 -0.1252  0.1042
  856ODE      C 4277   3.704   5.302   5.101  0.0883 -0.2257 -0.1238
  856ODE      D 4278   3.259   5.186   4.902 -0.3328  0.1792  0.0521
  856ODE      C 4279   3.514   4.941   4.549  0.0314 -0.0336  0.0648
  856ODE      C 4280   3.467   4.569   4.201  0.0880 -0.1075 -0.4193
  857ODE      C 4281   0.544   6.810   2.419 -0.0885  0.0275 -0.0887
  857ODE      C 4282   0.951   6.729   2.290 -0.0434 -0.1767 -0.0050
  857ODE      D 4283   1.404   6.535   2.403 -0.0238 -0.2403 -0.0335
  857ODE      C 4284   1.680   6.884   2.308 -0.4631 -0.0294 -0.0971
  857ODE      C 4285   1.738   7.273   2.194  0.3620 -0.0465  0.1220
  858ODE      C 4286   6.014   0.219   3.012  0.2315 -0.0226 -0.1302
  858ODE      C 4287   6.184   0.600   3.257  0.2228  0.1975  0.5170
  858ODE      D 4288   6.324   0.880   3.039  0.1824 -0.1093 -0.1256
  858ODE      C 4289   6.167   1.054   2.688  0.1134 -0.0099 -0.0739
  858ODE      C 4290   5.931   1.170   2.299 -0.2158 -0.2127  0.2713
  859ODE      C 4291   3.876   6.636   0.342 -0.1074  0.1464  0.0739
  859ODE      C 4292   4.061   6.723  -0.024  0.2631 -0.1822 -0.1530
  859ODE      D 4293   4.365   6.547  -0.169  0.0089 -0.0138  0.1031
  859ODE      C 4294   4.177   6.328  -0.483 -0.0414 -0.0237 -0.2043
  859ODE      C 4295   3.801   6.098  -0.606 -0.1128 -0.1236 -0.0287
  860ODE      C 4296   5.142   0.440   6.674  0.0748  0.0684  0.1681
  860ODE      C 4297   5.450   0.506   6.819  0.1119 -0.1858 -0.2217
  860ODE      D 4298   5.594   0.566   7.265  0.1993  0.1288 -0.0163
  860ODE      C 4299   5.851   0.836   7.457 -0.1500 -0.4674  0.0361
  860ODE      C 4300   5.840   1.315   7.498 -0.0389  0.0925 -0.1216
  861ODE      C 4301   0.522   3.102   1.350 -0.1610 -0.1485 -0.0296
  861ODE      C 4302   0.566   3.223   0.900 -0.2163  0.1192  0.0704
  861ODE      D 4303   0.967   3.209   0.626 -0.1091  0.1827 -0.0184
  861ODE      C 4304   1.315   3.295   0.537 -0.1583 -0.2589 -0.1198
  861ODE      C 4305   1.576   3.001   0.375  0.0136  0.3630 -0.0280
  862ODE      C 4306   3.182   5.124   2.852  0.2917 -0.1554 -0.3211
  862ODE      C 4307   2.918   4.892   2.679  0.3012 -0.2860 -0.1688
  862ODE      D 4308   2.474   5.032   2.701  0.0711 -0.0713  0.3498
  862ODE      C 4309   2.271   4.874   3.071  0.4776  0.0816  0.0196
  862ODE      C 4310   2.003   4.553   3.327  0.0841 -0.1033  0.2237
  863ODE      C 4311   0.880   1.024   0.253 -0.0236  0.1064  0.0339
  863ODE      C 4312   0.732   0.751  -0.134 -0.0864 -0.2988  0.1338
  863ODE      D 4313   0.791   0.627  -0.455  0.1253 -0.1031  0.0320
  863ODE      C 4314   0.628   0.849  -0.763 -0.0241  0.2318  0.0368
  863ODE      C 4315   0.318   0.716  -0.920  0.0135  0.1430 -0.0609
  864ODE      C 4316   1.375   1.653   0.893  0.0479  0.0729 -0.0311
  864ODE      C 4317   1.443   1.334   0.490 -0.1547  0.4133 -0.0210
  864ODE      D 4318   1.415   1.023   0.112 -0.0050  0.3203 -0.0082
  864ODE      C 4319   1.325   0.659   0.164  0.0244 -0.2879 -0.0543
  864ODE      C 4320   1.592   0.235   0.187  0.0612 -0.1230 -0.0267
  865ODE      C 4321   0.117   2.701   6.822 -0.0616 -0.1224  0.0721
  865ODE      C 4322   0.104   2.660   6.307  0.0363 -0.0676 -0.1476
  865ODE      D 4323   0.179   2.837   5.924 -0.2537 -0.2265 -0.0740
  865ODE      C 4324  -0.095   3.009   5.690 -0.1283 -0.4472  0.0622
  865ODE      C 4325  -0.387   3.259   5.732  0.2754 -0.0017 -0.3535
  866ODE      C 4326   9.030   4.546   0.231  0.1904 -0.1679  0.1011
  866ODE      C 4327   8.816   4.305   0.583  0.0543 -0.2295  0.0217
  866ODE      D 4328   8.600   3.941   0.487 -0.2562  0.2001  0.0040
  866ODE      C 4329   8.646   3.930   0.043  0.2045  0.0563  0.1469
  866ODE      C 4330   8.360   3.753  -0.185  0.3052 -0.0819  0.0042
  867ODE      C 4331   6.540   0.444   2.039 -0.1521  0.2912 -0.0812
  867ODE      C 4332   6.718   0.365   2.398  0.0783  0.1301  0.0642
  867ODE      D 4333   7.015   0.031   2.522  0.4809  0.2397 -0.0773
  867ODE      C 4334   6.952   0.007   2.927 -0.2282 -0.1440 -0.1108
  867ODE      C 4335   6.789  -0.290   3.362 -0.1564 -0.0883 -0.0631
  868ODE      C 4336   8.782   0.305   2.462 -0.1182 -0.0181 -0.0028
  868ODE      C 4337   8.457   0.573   2.262  0.0340 -0.1790  0.1127
  868ODE      D 4338   8.222   0.881   2.359 -0.0377  0.0983 -0.0577
  868ODE      C 4339   7.756   0.839   2.289 -0.3732 -0.1363  0.1781
  868ODE      C 4340   7.411   1.089   2.135  0.0205  0.2344 -0.3111
  869ODE      C 4341   2.571   4.482   2.529 -0.0292  0.0135  0.1804
  869ODE      C 4342   2.356   4.201   2.309  0.0032 -0.0967 -0.1528
  869ODE      D 4343   1.947   4.208   2.151 -0.1540 -0.0826  0.2296
  869ODE      C 4344   1.739   4.151   1.849  0.1763  0.0083 -0.1258
  869ODE      C 4345   1.458   4.549   1.718  0.0516  0.1246 -0.1956
  870ODE      C 4346   5.719   2.948   3.735 -0.4084 -0.0619  0.0432
  870ODE      C 4347   6.001   2.972   3.439 -0.0432  0.1231 -0.2318
  870ODE      D 4348   6.217   3.032   3.081  0.0275  0.1016  0.0302
  870ODE      C 4349   6.558   2.805   3.199  0.1547 -0.0620 -0.0963
  870ODE      C 4350   6.961   2.614   3.272  0.4529 -0.1648  0.1585
  871ODE      C 4351   0.965   2.393   5.690  0.1910  0.2159 -0.0659
  871ODE      C 4352   0.979   2.078   6.056 -0.2065 -0.2036  0.0348
  871ODE      D 4353   1.225   1.691   6.070 -0.0250  0.2304 -0.0235
  871ODE      C 4354   1.566   1.514   5.824 -0.4474  0.3172 -0.0276
  871ODE      C 4355   1.835   1.142   5.711  0.0092  0.3657 -0.4688
  872ODE      C 4356   2.124   6.990   3.759 -0.2062 -0.0010  0.2644
  872ODE      C 4357   1.953   7.409   3.538  0.0431 -0.2294 -0.0341
  872ODE      D 4358   1.704   7.737   3.349  0.0848  0.1026  0.0965
  872ODE      C 4359   1.262   7.893   3.281 -0.0649  0.1719 -0.1108
  872ODE      C 4360   0.897   7.960   3.476  0.1408  0.0971 -0.1187
  873ODE      C 4361   5.668   2.770   1.113 -0.2791  0.2768 -0.1397
  873ODE      C 4362   5.352   2.749   1.255  0.1131  0.2276 -0.0618
  873ODE      D 4363   5.065   2.906   1.430  0.1970  0.1525 -0.1320
  873ODE      C 4364   5.038   3.346   1.499 -0.0910 -0.1701 -0.2426
  873ODE      C 4365   4.815   3.628   1.877  0.2468  0.0448  0.4154
  874ODE      C 4366   7.595   6.505   2.768 -0.0153 -0.1448  0.1108
  874ODE      C 4367   7.941   6.661   2.612 -0.1786 -0.2068  0.0952
  874ODE      D 4368   7.983   6.994   2.393 -0.3311 -0.2423 -0.0833
  874ODE      C 4369   7.752   7.215   2.118 -0.2331 -0.2706 -0.0184
  874ODE      C 4370   7.977   7.288   1.716  0.1402 -0.0365  0.2206
  875ODE      C 4371   4.621   4.494   5.635 -0.0100  0.0036 -0.3511
  875ODE      C 4372   4.664   4.030   5.561  0.3240  0.0145  0.2093
  875ODE      D 4373   4.526   3.625   5.608  0.1554  0.0750 -0.0748
  875ODE      C 4374   4.858   3.412   5.779  0.0650 -0.1280  0.0442
  875ODE      C 4375   5.077   3.008   5.562  0.1288 -0.1011  0.0499
  876ODE      C 4376   5.100   4.999   3.918 -0.1329 -0.1937 -0.0133
  876ODE      C 4377   4.956   4.694   4.192  0.0499  0.0729  0.1119
  876ODE      D 4378   5.088   4.360   4.202  0.3105  0.3311 -0.3131
  876ODE      C 4379   5.479   4.234   3.950 -0.0825  0.3052 -0.2073
  876ODE      C 4380   5.960   4.222   3.985  0.1537 -0.1702  0.1486
  877ODE      C 4381   7.646   0.509   5.181  0.1707 -0.1438 -0.3394
  877ODE      C 4382   7.582   0.404   5.599  0.1167  0.1389 -0.1028
  877ODE      D 4383   7.389   0.195   5.864  0.0418  0.0579 -0.1013
  877ODE      C 4384   6.942   0.267   5.871 -0.0541 -0.0042 -0.1927
  877ODE      C 4385   6.778   0.492   6.193  0.0844  0.2027  0.0262
  878ODE      C 4386   1.207   2.608   0.795 -0.3307 -0.1663  0.1818
  878ODE      C 4387   1.347   3.002   0.944 -0.1834  0.1630  0.0134
  878ODE      D 4388   1.728   3.213   0.856 -0.0225  0.1191 -0.3457
  878ODE      C 4389   1.979   3.274   0.424 -0.0444 -0.0860  0.0642
  878ODE      C 4390   1.971   3.222   0.024 -0.0461 -0.3533 -0.0781
  879ODE      C 4391   2.879   2.894   4.319  0.0931  0.1228 -0.1023
  879ODE      C 4392   2.573   2.620   4.507 -0.0524 -0.1489 -0.0021
  879ODE      D 4393   2.198   2.713   4.742 -0.1867  0.0450  0.2930
  879ODE      C 4394   2.303   2.829   5.162 -0.0960  0.0528 -0.0136
  879ODE      C 4395   2.614   3.156   5.283  0.2786  0.0912  0.1695
  880ODE      C 4396   2.462   6.144   5.598 -0.2652 -0.3293 -0.1083
  880ODE      C 4397   2.073   6.469   5.628 -0.0844 -0.0999  0.0220
  880ODE      D 4398   1.622   6.660   5.616  0.1630 -0.1810  0.0580
  880ODE      C 4399   1.548   7.062   5.718  0.1738  0.1838 -0.1949
  880ODE      C 4400   1.323   7.485   5.751  0.1604  0.0243  0.0017
  881ODE      C 4401   7.616   1.900   2.474  0.3173  0.2505  0.1080
  881ODE      C 4402   7.842   2.070   2.253  0.2393 -0.0705  0.0175
  881ODE      D 4403   8.056   2.233   1.943  0.3461 -0.1807  0.0609
  881ODE      C 4404   8.321   1.986   1.746 -0.1807  0.2197  0.3139
  881ODE      C 4405   8.258   1.655   1.464  0.1059  0.2163  0.3597
  882ODE      C 4406   1.911   4.978   1.863  0.2456  0.0419  0.0644
  882ODE      C 4407   1.766   4.744   2.066  0.3461  0.0573 -0.1370
  882ODE      D 4408   1.505   4.375   2.298 -0.4795  0.0432  0.0052
  882ODE      C 4409   1.620   4.158   2.642 -0.2199 -0.0422  0.1776
  882ODE      C 4410   2.102   4.255   2.734  0.1181 -0.0261  0.0440
  883ODE      C 4411   3.985   3.117   6.284  0.2475 -0.0980 -0.3165
  883ODE      C 4412   4.321   2.934   6.392 -0.1843  0.0435  0.0940
  883ODE      D 4413   4.456   2.554   6.402  0.0999 -0.0665 -0.3096
  883ODE      C 4414   4.737   2.397   6.728  0.1175  0.0357 -0.1339
  883ODE      C 4415   5.134   2.274   6.676 -0.1598  0.0444 -0.4205
  884ODE      C 4416   7.686   0.407   4.644  0.2008 -0.1682  0.2239
  884ODE      C 4417   7.603   0.848   4.423  0.1308 -0.1044  0.0717
  884ODE      D 4418   7.640   1.160   4.126  0.4101 -0.2884  0.1994
  884ODE      C 4419   7.198   1.378   3.993 -0.0909 -0.1153  0.0989
  884ODE      C 4420   6.907   1.779   4.228  0.1639  0.2336  0.0835
  885ODE      C 4421   5.703   7.147   5.320 -0.0997 -0.0221 -0.1543
  885ODE      C 4422   5.642   6.814   5.548  0.4541  0.1371 -0.2302
  885ODE      D 4423   5.277   6.531   5.523  0.3016 -0.1092 -0.2373
  885ODE      C 4424   5.212   6.251   5.079 -0.0421 -0.0308  0.0507
  885ODE      C 4425   5.446   5.888   4.873  0.1797  0.2910 -0.0989
  886ODE      C 4426   3.070   6.623   6.424 -0.1625  0.1517  0.0119
  886ODE      C 4427   2.854   6.848   6.144  0.0268  0.2954  0.0383
  886ODE      D 4428   2.544   6.562   5.837 -0.0846  0.1378  0.2779
  886ODE      C 4429   2.478   6.634   5.426 -0.0087 -0.0621 -0.1419
  886ODE      C 4430   2.708   6.570   5.171 -0.0768 -0.2684  0.3235
  887ODE      C 4431   3.668   1.002   3.095 -0.1183 -0.0909 -0.0700
  887ODE      C 4432   4.110   0.955   3.288 -0.0055 -0.2641 -0.2753
  887ODE      D 4433   4.583   0.811   3.338 -0.2596 -0.1117 -0.1179
  887ODE      C 4434   4.727   0.891   3.727  0.0471 -0.1574  0.1210
  887ODE      C 4435   4.648   0.987   4.148 -0.0731  0.1884 -0.1661
  888ODE      C 4436   0.457   4.788   4.093  0.0077  0.0135  0.0858
  888ODE      C 4437   0.229   4.709   4.570  0.1461 -0.0047  0.2855
  888ODE      D 4438   0.049   4.922   4.777 -0.0620 -0.1485  0.2393
  888ODE      C 4439  -0.339   4.873   4.584  0.2344  0.0100 -0.2063
  888ODE      C 4440  -0.599   4.551   4.440 -0.0768  0.0599  0.2093
  889ODE      C 4441   0.043   3.489   0.904 -0.0670  0.2269 -0.1451
  889ODE      C 4442   0.395   3.648   0.714 -0.3018  0.1183 -0.1830
  889ODE      D 4443   0.505   4.039   0.426 -0.1927 -0.0303 -0.1010
  889ODE      C 4444   0.928   4.139   0.283 -0.1985 -0.0684 -0.1797
  889ODE      C 4445   1.160   4.403  -0.042 -0.2074 -0.0655  0.0666
  890ODE      C 4446   7.068   2.987   4.087  0.0242 -0.2804 -0.1627
  890ODE      C 4447   7.531   2.987   4.186  0.0429 -0.0850 -0.1370
  890ODE      D 4448   7.716   2.860   4.450  0.1240 -0.1086 -0.1186
  890ODE      C 4449   8.124   2.858   4.726 -0.0536  0.0602 -0.1537
  890ODE      C 4450   8.553   2.860   4.648 -0.1589 -0.0112  0.1732
  891ODE      C 4451   6.719   2.177   3.420  0.1695  0.3421 -0.0422
  891ODE      C 4452   6.525   2.201   3.795 -0.1461  0.0422  0.0224
  891ODE      D 4453   6.450   2.442   4.119  0.1505 -0.1216  0.0204
  891ODE      C 4454   6.451   2.287   4.499 -0.3097  0.3106 -0.1045
  891ODE      C 4455   6.772   1.998   4.684 -0.1024  0.0826 -0.0021
  892ODE      C 4456   1.800   1.246   5.186 -0.1876 -0.0724 -0.0783
  892ODE      C 4457   1.379   1.149   5.278 -0.1112 -0.0287 -0.0890
  892ODE      D 4458   1.169   1.143   5.597 -0.0080  0.1097 -0.2203
  892ODE      C 4459   0.885   1.490   5.703 -0.2898  0.1841 -0.0827
  892ODE      C 4460   0.636   1.695   6.051 -0.1361  0.1576  0.1671
  893ODE      C 4461   7.284   5.952   5.009 -0.1298 -0.0670  0.1011
  893ODE      C 4462   7.029   5.948   4.648 -0.0348 -0.1053 -0.0190
  893ODE      D 4463   7.023   6.260   4.337  0.0669  0.1119 -0.1904
  893ODE      C 4464   7.182   6.648   4.289 -0.0397 -0.0883  0.1629
  893ODE      C 4465   7.579   6.965   4.128 -0.0219  0.0678  0.4227
  894ODE      C 4466   8.031   3.787   2.539  0.1791  0.4433  0.0543
  894ODE      C 4467   7.687   3.755   2.400 -0.0667  0.0034 -0.1541
  894ODE      D 4468   7.427   3.586   2.085 -0.1903 -0.3195  0.1066
  894ODE      C 4469   7.520   3.911   1.739  0.2517 -0.0016  0.0669
  894ODE      C 4470   7.787   4.270   1.724  0.1756  0.1193  0.1080
  895ODE      C 4471   7.937   0.065   5.104 -0.0967 -0.0228 -0.1587
  895ODE      C 4472   8.087   0.470   4.920 -0.4435 -0.3202 -0.1529
  895ODE      D 4473   8.373   0.744   4.758 -0.0299  0.1318  0.0137
  895ODE      C 4474   8.654   0.900   5.017  0.1673 -0.0153  0.0023
  895ODE      C 4475   8.723   0.957   5.392 -0.0890 -0.0087  0.2406
  896ODE      C 4476   1.826   2.928   3.937  0.1171  0.1083 -0.4365
  896ODE      C 4477   2.192   3.011   3.679  0.1069  0.2625  0.0270
  896ODE      D 4478   2.328   3.254   3.354 -0.0609 -0.1453  0.4118
  896ODE      C 4479   2.586   3.052   3.115 -0.2871 -0.0091  0.0390
  896ODE      C 4480   3.027   2.972   3.125 -0.3975 -0.1964  0.0951
  897ODE      C 4481   2.279   0.937   3.589 -0.1293 -0.1799 -0.2764
  897ODE      C 4482   2.534   0.855   3.272 -0.1423  0.0554 -0.0581
  897ODE      D 4483   2.850   0.866   3.033  0.0841 -0.2640  0.1276
  897ODE      C 4484   2.743   1.179   2.725 -0.1555  0.1137 -0.1259
  897ODE      C 4485   2.542   1.532   2.719  0.1705  0.5796 -0.2363
  898ODE      C 4486   1.150   3.438   4.450 -0.0570 -0.0013 -0.1540
  898ODE      C 4487   1.573   3.505   4.258 -0.2024  0.2942  0.3085
  898ODE      D 4488   2.038   3.432   4.142  0.2944  0.1911 -0.1081
  898ODE      C 4489   2.364   3.586   4.423 -0.1313  0.0037 -0.2203
  898ODE      C 4490   2.521   4.005   4.481 -0.0127 -0.0752  0.0430
  899ODE      C 4491   3.909   5.090   2.442 -0.1343  0.1025 -0.3343
  899ODE      C 4492   3.725   5.249   2.853 -0.0591  0.2187 -0.2821
  899ODE      D 4493   3.488   4.964   3.216  0.2512 -0.0682  0.2501
  899ODE      C 4494   3.349   5.219   3.569  0.0422  0.0902  0.0206
  899ODE      C 4495   3.333   5.122   4.054 -0.2116  0.1078  0.1952
  900ODE      C 4496   9.454   1.738   5.114  0.4683 -0.0161 -0.1144
  900ODE      C 4497   9.624   1.792   4.699 -0.0933  0.0176  0.0233
  900ODE      D 4498  10.013   1.452   4.847 -0.2890 -0.1555  0.1674
  900ODE      C 4499   9.940   1.010   5.054  0.0232  0.3114 -0.1011
  900ODE      C 4500   9.713   0.695   5.282 -0.0249  0.2130 -0.2950
   9.52131   7.20532   7.20532
