;;
;; Generated by CHARMM-GUI (http://www.charmm-gui.org) v1.7
;;
;; psf2itp_mol.py
;;
;; Correspondance:
;; jul316@lehigh.edu or wonpil@lehigh.edu
;;
;; GROMACS topology file for CHXE
;;


[ moleculetype ]
; name	nrexcl
CHXE	     3

[ atoms ]
; nr	type	resnr	residu	atom	cgnr	charge	mass
     1      CG321      1     CHXE     C1      1     -0.180    12.0110   ; qtot -0.180
     2       HGA2      1     CHXE    H11      2      0.090     1.0080   ; qtot -0.090
     3       HGA2      1     CHXE    H12      3      0.090     1.0080   ; qtot  0.000
     4      CG321      1     CHXE     C2      4     -0.180    12.0110   ; qtot -0.180
     5       HGA2      1     CHXE    H21      5      0.090     1.0080   ; qtot -0.090
     6       HGA2      1     CHXE    H22      6      0.090     1.0080   ; qtot  0.000
     7      CG321      1     CHXE     C3      7     -0.180    12.0110   ; qtot -0.180
     8       HGA2      1     CHXE    H31      8      0.090     1.0080   ; qtot -0.090
     9       HGA2      1     CHXE    H32      9      0.090     1.0080   ; qtot  0.000
    10      CG321      1     CHXE     C4     10     -0.180    12.0110   ; qtot -0.180
    11       HGA2      1     CHXE    H41     11      0.090     1.0080   ; qtot -0.090
    12       HGA2      1     CHXE    H42     12      0.090     1.0080   ; qtot  0.000
    13      CG2D1      1     CHXE     C5     13     -0.150    12.0110   ; qtot -0.150
    14       HGA4      1     CHXE     H5     14      0.150     1.0080   ; qtot  0.000
    15      CG2D1      1     CHXE     C6     15     -0.150    12.0110   ; qtot -0.150
    16       HGA4      1     CHXE     H6     16      0.150     1.0080   ; qtot  0.000

[ bonds ]
; ai	aj	funct	b0	Kb
    1     2     1
    1     3     1
    1     4     1
    1    15     1
    4     5     1
    4     6     1
    4     7     1
    7     8     1
    7     9     1
    7    10     1
   10    11     1
   10    12     1
   10    13     1
   13    14     1
   13    15     1
   15    16     1

[ pairs ]
; ai	aj	funct	c6	c12
    1     8     1 
    1     9     1 
    1    10     1 
    1    14     1 
    2     5     1 
    2     6     1 
    2     7     1 
    2    13     1 
    2    16     1 
    3     5     1 
    3     6     1 
    3     7     1 
    3    13     1 
    3    16     1 
    4    11     1 
    4    12     1 
    4    13     1 
    4    16     1 
    5     8     1 
    5     9     1 
    5    10     1 
    5    15     1 
    6     8     1 
    6     9     1 
    6    10     1 
    6    15     1 
    7    14     1 
    7    15     1 
    8    11     1 
    8    12     1 
    8    13     1 
    9    11     1 
    9    12     1 
    9    13     1 
   10    16     1 
   11    14     1 
   11    15     1 
   12    14     1 
   12    15     1 
   14    16     1 

[ angles ] 
; ai	aj	ak	funct	th0	cth	S0	Kub
    2     1     3     5
    2     1     4     5
    2     1    15     5
    3     1     4     5
    3     1    15     5
    4     1    15     5
    1     4     5     5
    1     4     6     5
    1     4     7     5
    5     4     6     5
    5     4     7     5
    6     4     7     5
    4     7     8     5
    4     7     9     5
    4     7    10     5
    8     7     9     5
    8     7    10     5
    9     7    10     5
    7    10    11     5
    7    10    12     5
    7    10    13     5
   11    10    12     5
   11    10    13     5
   12    10    13     5
   10    13    14     5
   10    13    15     5
   14    13    15     5
    1    15    13     5
    1    15    16     5
   13    15    16     5

[ dihedrals ]
; ai	aj	ak	al	funct	phi0	cp	mult
    2     1     4     5     9
    2     1     4     6     9
    2     1     4     7     9
    3     1     4     5     9
    3     1     4     6     9
    3     1     4     7     9
    2     1    15    13     9
    2     1    15    16     9
    3     1    15    13     9
    3     1    15    16     9
    4     1    15    13     9
    4     1    15    16     9
    5     4     1    15     9
    6     4     1    15     9
    7     4     1    15     9
    1     4     7     8     9
    1     4     7     9     9
    1     4     7    10     9
    5     4     7     8     9
    5     4     7     9     9
    5     4     7    10     9
    6     4     7     8     9
    6     4     7     9     9
    6     4     7    10     9
    4     7    10    11     9
    4     7    10    12     9
    4     7    10    13     9
    8     7    10    11     9
    8     7    10    12     9
    8     7    10    13     9
    9     7    10    11     9
    9     7    10    12     9
    9     7    10    13     9
    7    10    13    14     9
    7    10    13    15     9
   11    10    13    14     9
   11    10    13    15     9
   12    10    13    14     9
   12    10    13    15     9
   10    13    15    16     9
   14    13    15    16     9
    1    15    13    10     9
    1    15    13    14     9
