GROup of MAchos and Cynical Suckers
   23
    1PMA     C1    1   0.042   0.176   0.026
    1PMA    H11    2  -0.045   0.237  -0.005
    1PMA    H12    3   0.044   0.172   0.137
    1PMA    H13    4   0.134   0.226  -0.009
    1PMA     C2    5   0.032   0.034  -0.032
    1PMA    H22    6   0.030   0.040  -0.143
    1PMA     C3    7   0.156  -0.044   0.011
    1PMA     O2    8   0.264   0.008  -0.048
    1PMA     O1    9   0.157  -0.139   0.088
    1PMA     C4   10   0.385  -0.059  -0.013
    1PMA    H41   11   0.470  -0.011  -0.065
    1PMA    H42   12   0.403  -0.052   0.097
    1PMA    H43   13   0.381  -0.166  -0.043
    1PMA     C5   14  -0.093  -0.045   0.014
    1PMA    H51   15  -0.087  -0.149  -0.025
    1PMA    H52   16  -0.094  -0.051   0.125
    1PMA     C6   17  -0.227   0.015  -0.033
    1PMA    H61   18  -0.238   0.117   0.009
    1PMA    H62   19  -0.224   0.024  -0.144
    1PMA     C7   20  -0.349  -0.068   0.006
    1PMA    H71   21  -0.442  -0.019  -0.031
    1PMA    H72   22  -0.343  -0.169  -0.037
    1PMA    H73   23  -0.356  -0.076   0.117
   0.00000   0.00000   0.00000
