;;
;; Generated by CHARMM-GUI (http://www.charmm-gui.org) v1.7
;;
;; psf2itp_mol.py
;;
;; Correspondance:
;; jul316@lehigh.edu or wonpil@lehigh.edu
;;
;; GROMACS topology file for PMAS
;;


[ moleculetype ]
; name	nrexcl
PMAS	     3

[ atoms ]
; nr	type	resnr	residu	atom	cgnr	charge	mass
     1      CG331      1     PMAS     C1      1     -0.269    12.0110   ; qtot -0.269
     2       HGA3      1     PMAS     H1      2      0.090     1.0080   ; qtot -0.179
     3       HGA3      1     PMAS     H2      3      0.090     1.0080   ; qtot -0.089
     4       HGA3      1     PMAS     H3      4      0.090     1.0080   ; qtot  0.001
     5      CG311      1     PMAS     C2      5     -0.068    12.0110   ; qtot -0.067
     6       HGA1      1     PMAS     H4      6      0.090     1.0080   ; qtot  0.023
     7      CG2O2      1     PMAS     C3      7      0.868    12.0110   ; qtot  0.891
     8      OG302      1     PMAS     O1      8     -0.494    15.9994   ; qtot  0.397
     9      OG2D1      1     PMAS     O2      9     -0.619    15.9994   ; qtot -0.222
    10      CG331      1     PMAS     C4     10     -0.010    12.0110   ; qtot -0.232
    11       HGA3      1     PMAS     H5     11      0.090     1.0080   ; qtot -0.142
    12       HGA3      1     PMAS     H6     12      0.090     1.0080   ; qtot -0.052
    13       HGA3      1     PMAS     H7     13      0.090     1.0080   ; qtot  0.038
    14      CG321      1     PMAS     C5     14     -0.234    12.0110   ; qtot -0.196
    15       HGA2      1     PMAS     H8     15      0.090     1.0080   ; qtot -0.106
    16       HGA2      1     PMAS     H9     16      0.090     1.0080   ; qtot -0.016
    17      CG321      1     PMAS     C6     17     -0.164    12.0110   ; qtot -0.180
    18       HGA2      1     PMAS    H10     18      0.090     1.0080   ; qtot -0.090
    19       HGA2      1     PMAS    H11     19      0.090     1.0080   ; qtot -0.000
    20      CG331      1     PMAS     C7     20     -0.270    12.0110   ; qtot -0.270
    21       HGA3      1     PMAS    H12     21      0.090     1.0080   ; qtot -0.180
    22       HGA3      1     PMAS    H13     22      0.090     1.0080   ; qtot -0.090
    23       HGA3      1     PMAS    H14     23      0.090     1.0080   ; qtot -0.000

[ bonds ]
; ai	aj	funct	b0	Kb
    1     2     1
    1     3     1
    1     4     1
    1     5     1
    5     6     1
    5     7     1
    5    14     1
    7     8     1
    7     9     1
    8    10     1
   10    11     1
   10    12     1
   10    13     1
   14    15     1
   14    16     1
   14    17     1
   17    18     1
   17    19     1
   17    20     1
   20    21     1
   20    22     1
   20    23     1

[ pairs ]
; ai	aj	funct	c6	c12
    1     8     1 
    1     9     1 
    1    15     1 
    1    16     1 
    1    17     1 
    2     6     1 
    2     7     1 
    2    14     1 
    3     6     1 
    3     7     1 
    3    14     1 
    4     6     1 
    4     7     1 
    4    14     1 
    5    10     1 
    5    18     1 
    5    19     1 
    5    20     1 
    6     8     1 
    6     9     1 
    6    15     1 
    6    16     1 
    6    17     1 
    7    11     1 
    7    12     1 
    7    13     1 
    7    15     1 
    7    16     1 
    7    17     1 
    8    14     1 
    9    10     1 
    9    14     1 
   14    21     1 
   14    22     1 
   14    23     1 
   15    18     1 
   15    19     1 
   15    20     1 
   16    18     1 
   16    19     1 
   16    20     1 
   18    21     1 
   18    22     1 
   18    23     1 
   19    21     1 
   19    22     1 
   19    23     1 

[ angles ] 
; ai	aj	ak	funct	th0	cth	S0	Kub
    2     1     3     5
    2     1     4     5
    2     1     5     5
    3     1     4     5
    3     1     5     5
    4     1     5     5
    1     5     6     5
    1     5     7     5
    1     5    14     5
    6     5     7     5
    6     5    14     5
    7     5    14     5
    5     7     8     5
    5     7     9     5
    8     7     9     5
    7     8    10     5
    8    10    11     5
    8    10    12     5
    8    10    13     5
   11    10    12     5
   11    10    13     5
   12    10    13     5
    5    14    15     5
    5    14    16     5
    5    14    17     5
   15    14    16     5
   15    14    17     5
   16    14    17     5
   14    17    18     5
   14    17    19     5
   14    17    20     5
   18    17    19     5
   18    17    20     5
   19    17    20     5
   17    20    21     5
   17    20    22     5
   17    20    23     5
   21    20    22     5
   21    20    23     5
   22    20    23     5

[ dihedrals ]
; ai	aj	ak	al	funct	phi0	cp	mult
    2     1     5     6     9
    2     1     5     7     9
    2     1     5    14     9
    3     1     5     6     9
    3     1     5     7     9
    3     1     5    14     9
    4     1     5     6     9
    4     1     5     7     9
    4     1     5    14     9
    1     5     7     8     9
    1     5     7     9     9
    6     5     7     8     9
    6     5     7     9     9
    1     5    14    15     9
    1     5    14    16     9
    1     5    14    17     9
    6     5    14    15     9
    6     5    14    16     9
    6     5    14    17     9
    7     5    14    15     9
    7     5    14    16     9
    7     5    14    17     9
    8     7     5    14     9
    9     7     5    14     9
    5     7     8    10     9
    9     7     8    10     9
    7     8    10    11     9
    7     8    10    12     9
    7     8    10    13     9
    5    14    17    18     9
    5    14    17    19     9
    5    14    17    20     9
   15    14    17    18     9
   15    14    17    19     9
   15    14    17    20     9
   16    14    17    18     9
   16    14    17    19     9
   16    14    17    20     9
   14    17    20    21     9
   14    17    20    22     9
   14    17    20    23     9
   18    17    20    21     9
   18    17    20    22     9
   18    17    20    23     9
   19    17    20    21     9
   19    17    20    22     9
   19    17    20    23     9

[ dihedrals ]
; ai	aj	ak	al	funct	q0	cq
    7     5     9     8     2
