Split from step5_input.gro (molecule=ERG)
73
    1ERG     C3    1  -0.226   0.665   6.573
    1ERG     O3    2  -0.240   0.781   6.651
    1ERG    H3'    3  -0.166   0.832   6.619
    1ERG     H3    4  -0.313   0.594   6.580
    1ERG     C4    5  -0.106   0.595   6.629
    1ERG    H4A    6  -0.125   0.548   6.728
    1ERG    H4B    7  -0.013   0.653   6.644
    1ERG     C5    8  -0.087   0.500   6.518
    1ERG     C6    9  -0.079   0.377   6.547
    1ERG     H6   10  -0.115   0.355   6.648
    1ERG     C7   11   0.001   0.289   6.477
    1ERG     C8   12   0.024   0.303   6.353
    1ERG     H7   13   0.035   0.193   6.515
    1ERG    C14   14   0.063   0.205   6.251
    1ERG    H14   15  -0.001   0.257   6.191
    1ERG    C15   16   0.022   0.066   6.222
    1ERG   H15A   17  -0.069   0.111   6.224
    1ERG   H15B   18   0.045   0.002   6.301
    1ERG    C16   19   0.051  -0.040   6.130
    1ERG   H16A   20  -0.002  -0.069   6.039
    1ERG   H16B   21   0.096  -0.136   6.165
    1ERG    C17   22   0.112   0.036   6.058
    1ERG    H17   23   0.061   0.092   5.985
    1ERG    C13   24   0.150   0.206   6.161
    1ERG    C18   25   0.282   0.272   6.230
    1ERG   H18A   26   0.373   0.262   6.171
    1ERG   H18B   27   0.375   0.225   6.266
    1ERG   H18C   28   0.269   0.284   6.338
    1ERG    C12   29   0.146   0.349   6.104
    1ERG   H12A   30   0.084   0.363   6.019
    1ERG   H12B   31   0.246   0.373   6.060
    1ERG    C11   32   0.108   0.443   6.223
    1ERG   H11A   33   0.065   0.527   6.169
    1ERG   H11B   34   0.185   0.457   6.303
    1ERG     C9   35  -0.017   0.429   6.296
    1ERG     H9   36  -0.100   0.414   6.222
    1ERG    C10   37  -0.041   0.545   6.389
    1ERG    C19   38   0.071   0.649   6.410
    1ERG   H19A   39   0.168   0.609   6.446
    1ERG   H19B   40   0.052   0.731   6.479
    1ERG   H19C   41   0.081   0.701   6.312
    1ERG     C1   42  -0.162   0.605   6.330
    1ERG    H1A   43  -0.238   0.525   6.314
    1ERG    H1B   44  -0.128   0.642   6.230
    1ERG     C2   45  -0.209   0.713   6.426
    1ERG    H2A   46  -0.133   0.794   6.424
    1ERG    H2B   47  -0.305   0.749   6.388
    1ERG    C20   48   0.214  -0.093   5.964
    1ERG    H20   49   0.281  -0.133   6.033
    1ERG    C21   50   0.357  -0.081   5.894
    1ERG   H21A   51   0.461  -0.044   5.883
    1ERG   H21B   52   0.424  -0.035   5.971
    1ERG   H21C   53   0.304  -0.012   5.836
    1ERG    C22   54   0.210  -0.196   5.857
    1ERG    C23   55   0.279  -0.303   5.886
    1ERG    H22   56   0.241  -0.167   5.754
    1ERG    H23   57   0.368  -0.297   5.944
    1ERG    C24   58   0.291  -0.398   5.809
    1ERG    H24   59   0.359  -0.449   5.873
    1ERG    C25   60   0.159  -0.452   5.789
    1ERG    H25   61   0.138  -0.399   5.696
    1ERG    C26   62   0.135  -0.582   5.748
    1ERG   H26A   63   0.043  -0.616   5.710
    1ERG   H26B   64   0.142  -0.635   5.842
    1ERG   H26C   65   0.216  -0.615   5.685
    1ERG    C27   66   0.060  -0.444   5.902
    1ERG   H27A   67  -0.035  -0.493   5.890
    1ERG   H27B   68   0.053  -0.347   5.889
    1ERG   H27C   69   0.081  -0.426   6.007
    1ERG    C28   70   0.343  -0.368   5.677
    1ERG   H28A   71   0.357  -0.470   5.638
    1ERG   H28B   72   0.435  -0.330   5.665
    1ERG   H28C   73   0.283  -0.297   5.615
  10.00000  10.00000  10.00000
