GROup of MAchos and Cynical Suckers
   17
    1MBU     C4    1  -0.227   0.083  -0.025
    1MBU    H41    2  -0.325   0.111   0.020
    1MBU    H42    3  -0.156   0.167  -0.010
    1MBU    H43    4  -0.242   0.069  -0.135
    1MBU     C3    5  -0.174  -0.046   0.038
    1MBU    H31    6  -0.164  -0.032   0.148
    1MBU    H32    7  -0.250  -0.125   0.022
    1MBU     C2    8  -0.041  -0.097  -0.021
    1MBU    H21    9  -0.024  -0.201   0.013
    1MBU    H22   10  -0.048  -0.098  -0.132
    1MBU     C1   11   0.077  -0.012   0.024
    1MBU     O1   12   0.073   0.076   0.109
    1MBU     OM   13   0.186  -0.049  -0.043
    1MBU     CM   14   0.304   0.024  -0.008
    1MBU    HM1   15   0.390  -0.013  -0.069
    1MBU    HM2   16   0.292   0.132  -0.030
    1MBU    HM3   17   0.329   0.010   0.099
   0.00000   0.00000   0.00000
