;;
;; Generated by CHARMM-GUI (http://www.charmm-gui.org) v1.7
;;
;; psf2itp_mol.py
;;
;; Correspondance:
;; jul316@lehigh.edu or wonpil@lehigh.edu
;;
;; GROMACS topology file for MBUT
;;


[ moleculetype ]
; name	nrexcl
MBUT	     3

[ atoms ]
; nr	type	resnr	residu	atom	cgnr	charge	mass
     1      CG331      1     MBUT     C1      1     -0.270    12.0110   ; qtot -0.270
     2       HGA3      1     MBUT     H1      2      0.090     1.0080   ; qtot -0.180
     3       HGA3      1     MBUT     H2      3      0.090     1.0080   ; qtot -0.090
     4       HGA3      1     MBUT     H3      4      0.090     1.0080   ; qtot -0.000
     5      CG321      1     MBUT     C2      5     -0.176    12.0110   ; qtot -0.176
     6       HGA2      1     MBUT     H4      6      0.090     1.0080   ; qtot -0.086
     7       HGA2      1     MBUT     H5      7      0.090     1.0080   ; qtot  0.004
     8      CG321      1     MBUT     C3      8     -0.219    12.0110   ; qtot -0.215
     9       HGA2      1     MBUT     H6      9      0.090     1.0080   ; qtot -0.125
    10       HGA2      1     MBUT     H7     10      0.090     1.0080   ; qtot -0.035
    11      CG2O2      1     MBUT     C4     11      0.906    12.0110   ; qtot  0.871
    12      OG2D1      1     MBUT     O1     12     -0.641    15.9994   ; qtot  0.230
    13      OG302      1     MBUT     O2     13     -0.489    15.9994   ; qtot -0.259
    14      CG331      1     MBUT     C5     14     -0.011    12.0110   ; qtot -0.270
    15       HGA3      1     MBUT     H8     15      0.090     1.0080   ; qtot -0.180
    16       HGA3      1     MBUT     H9     16      0.090     1.0080   ; qtot -0.090
    17       HGA3      1     MBUT    H10     17      0.090     1.0080   ; qtot -0.000

[ bonds ]
; ai	aj	funct	b0	Kb
    1     2     1
    1     3     1
    1     4     1
    1     5     1
    5     6     1
    5     7     1
    5     8     1
    8     9     1
    8    10     1
    8    11     1
   11    12     1
   11    13     1
   13    14     1
   14    15     1
   14    16     1
   14    17     1

[ pairs ]
; ai	aj	funct	c6	c12
    1     9     1 
    1    10     1 
    1    11     1 
    2     6     1 
    2     7     1 
    2     8     1 
    3     6     1 
    3     7     1 
    3     8     1 
    4     6     1 
    4     7     1 
    4     8     1 
    5    12     1 
    5    13     1 
    6     9     1 
    6    10     1 
    6    11     1 
    7     9     1 
    7    10     1 
    7    11     1 
    8    14     1 
    9    12     1 
    9    13     1 
   10    12     1 
   10    13     1 
   11    15     1 
   11    16     1 
   11    17     1 
   12    14     1 

[ angles ] 
; ai	aj	ak	funct	th0	cth	S0	Kub
    2     1     3     5
    2     1     4     5
    2     1     5     5
    3     1     4     5
    3     1     5     5
    4     1     5     5
    1     5     6     5
    1     5     7     5
    1     5     8     5
    6     5     7     5
    6     5     8     5
    7     5     8     5
    5     8     9     5
    5     8    10     5
    5     8    11     5
    9     8    10     5
    9     8    11     5
   10     8    11     5
    8    11    12     5
    8    11    13     5
   12    11    13     5
   11    13    14     5
   13    14    15     5
   13    14    16     5
   13    14    17     5
   15    14    16     5
   15    14    17     5
   16    14    17     5

[ dihedrals ]
; ai	aj	ak	al	funct	phi0	cp	mult
    2     1     5     6     9
    2     1     5     7     9
    2     1     5     8     9
    3     1     5     6     9
    3     1     5     7     9
    3     1     5     8     9
    4     1     5     6     9
    4     1     5     7     9
    4     1     5     8     9
    1     5     8     9     9
    1     5     8    10     9
    1     5     8    11     9
    6     5     8     9     9
    6     5     8    10     9
    6     5     8    11     9
    7     5     8     9     9
    7     5     8    10     9
    7     5     8    11     9
    5     8    11    12     9
    5     8    11    13     9
    9     8    11    12     9
    9     8    11    13     9
   10     8    11    12     9
   10     8    11    13     9
    8    11    13    14     9
   12    11    13    14     9
   11    13    14    15     9
   11    13    14    16     9
   11    13    14    17     9

[ dihedrals ]
; ai	aj	ak	al	funct	q0	cq
   11     8    12    13     2
