Popylamine box
 2197
    1PAM     CN    1   0.719   3.361   4.185 -0.2578  0.3357  0.1252
    2PAM     CN    2   2.711   5.493   4.210 -0.1022 -0.0539 -0.0113
    3PAM     CN    3   2.379   2.457   2.377 -0.1638 -0.0654  0.0222
    4PAM     CN    4   3.431   1.902   2.381 -0.1615 -0.0917  0.1392
    5PAM     CN    5   3.178   0.560   5.513  0.3749  0.0021  0.1003
    6PAM     CN    6   4.879   1.774   0.320  0.2290 -0.0089  0.3413
    7PAM     CN    7   2.576   5.189   1.500  0.1495 -0.1733 -0.0715
    8PAM     CN    8   6.236   3.345   1.786 -0.1026 -0.0078 -0.1770
    9PAM     CN    9   3.865   5.849   2.250 -0.2095  0.0241 -0.0036
   10PAM     CN   10   2.494   0.427   2.344  0.1615  0.2843  0.0765
   11PAM     CN   11   5.467   5.556   1.182  0.1061  0.0645 -0.0447
   12PAM     CN   12   0.722   2.923   0.649 -0.0644  0.2875  0.2493
   13PAM     CN   13   0.273   3.849   2.315 -0.1401  0.1829  0.0948
   14PAM     CN   14   0.999   0.998   3.175  0.0260  0.1463  0.0050
   15PAM     CN   15   0.886   5.207   4.795 -0.1491 -0.1302  0.1049
   16PAM     CN   16   1.097   4.395   5.888  0.0486 -0.1882 -0.1065
   17PAM     CN   17   5.206   5.540   3.378  0.0289 -0.0826  0.0416
   18PAM     CN   18   1.787   0.384   0.608 -0.1201  0.0479  0.1053
   19PAM     CN   19   1.450   6.438   3.927 -0.0084  0.2442  0.0203
   20PAM     CN   20   3.573   0.906   2.319  0.0153  0.1410 -0.1166
   21PAM     CN   21   3.872   3.493   5.936  0.0293  0.1927 -0.3564
   22PAM     CN   22   1.308   0.375   3.285  0.0240 -0.3549 -0.1947
   23PAM     CN   23   0.399   3.740   4.874 -0.3059 -0.1183  0.3126
   24PAM     CN   24   5.127   0.417   2.059 -0.0809  0.2205 -0.0041
   25PAM     CN   25   3.314   3.921   3.338 -0.2613  0.1427 -0.0139
   26PAM     CN   26   1.725   2.642   3.209  0.0031  0.1427 -0.0829
   27PAM     CN   27   2.842   1.052   0.511 -0.1029  0.2583  0.1874
   28PAM     CN   28   3.301   3.697   2.839  0.2222 -0.0042 -0.2866
   29PAM     CN   29   2.662   2.581   0.571 -0.0238  0.1332 -0.0888
   30PAM     CN   30   4.022   2.491   0.565 -0.0513  0.0404  0.2457
   31PAM     CN   31   2.229   0.546   3.645  0.3420 -0.1359  0.0335
   32PAM     CN   32   2.271   3.354   3.150 -0.3793  0.0067 -0.0690
   33PAM     CN   33   2.092   4.204   5.351  0.0587  0.3748 -0.0673
   34PAM     CN   34   1.574   2.504   1.483 -0.2900  0.1432 -0.3378
   35PAM     CN   35   1.742   5.852   0.740 -0.2039  0.1012  0.2683
   36PAM     CN   36   5.200   2.667   2.297 -0.0025 -0.4015  0.3639
   37PAM     CN   37   4.432   0.666   5.508  0.1090  0.3594  0.0485
   38PAM     CN   38   2.194   1.870   0.882 -0.0874  0.2757 -0.1169
   39PAM     CN   39   3.790   5.571   3.456  0.0065 -0.0459  0.1694
   40PAM     CN   40   6.200   5.397   3.213 -0.2895 -0.4859  0.0511
   41PAM     CN   41   1.448   5.954   1.551 -0.1078 -0.1466  0.1480
   42PAM     CN   42   5.612   5.690   3.842 -0.0951  0.3449  0.0917
   43PAM     CN   43   1.224   1.636   0.500  0.1264  0.0686 -0.0090
   44PAM     CN   44   2.502   5.395   3.459 -0.2386  0.1774 -0.1752
   45PAM     CN   45   5.757   5.872   6.056  0.0368 -0.0198  0.0539
   46PAM     CN   46   4.298   5.440   5.541 -0.1018 -0.2543 -0.1964
   47PAM     CN   47   0.961   3.924   1.632  0.0139 -0.1081  0.0499
   48PAM     CN   48   5.557   0.779   1.350 -0.1716  0.1029  0.0901
   49PAM     CN   49   0.645   0.767   4.859 -0.2069 -0.1850 -0.2929
   50PAM     CN   50   0.263   4.832   6.348  0.1652 -0.0330 -0.1640
   51PAM     CN   51   2.541   4.562   0.588  0.0476  0.0600  0.0375
   52PAM     CN   52   4.753   5.372   0.484  0.1916  0.1837  0.2985
   53PAM     CN   53   4.393   0.862   1.907  0.2161  0.0378  0.0048
   54PAM     CN   54   2.841   5.295   2.463  0.1724 -0.0245 -0.1146
   55PAM     CN   55   1.397   0.513   4.089  0.1053  0.0935 -0.0695
   56PAM     CN   56   3.669   2.228   5.240 -0.1085 -0.2600 -0.0960
   57PAM     CN   57   3.124   2.203   0.639  0.2491 -0.1886  0.0073
   58PAM     CN   58   0.257   2.636   5.785 -0.0251  0.1411 -0.1005
   59PAM     CN   59   5.870   2.465   1.575  0.2480 -0.2363 -0.0687
   60PAM     CN   60   3.413   4.816   2.939  0.1467 -0.0072 -0.1735
   61PAM     CN   61   6.431   0.611   6.420 -0.0474  0.0492 -0.1376
   62PAM     CN   62   4.892   1.736   0.832 -0.0484  0.3835  0.2922
   63PAM     CN   63   1.529   1.264   2.172  0.0836 -0.1782 -0.1439
   64PAM     CN   64   6.373   4.438   1.555 -0.2984  0.0455  0.2032
   65PAM     CN   65   2.401   3.456   1.837  0.1024 -0.0368 -0.0237
   66PAM     CN   66   3.723   3.139   3.772 -0.0095 -0.2294 -0.0432
   67PAM     CN   67   2.519   4.771   4.873 -0.0392  0.0649  0.1237
   68PAM     CN   68   0.591   2.229   0.014  0.3207  0.1937  0.0028
   69PAM     CN   69   3.246   1.186   6.203  0.1616 -0.3527 -0.1207
   70PAM     CN   70   0.355   2.590   0.435 -0.0325 -0.0354 -0.4410
   71PAM     CN   71   0.977   5.699   4.849  0.2613  0.0486 -0.0542
   72PAM     CN   72   0.829   5.855   0.629  0.2904 -0.0712  0.2081
   73PAM     CN   73   6.211   3.742   4.353 -0.1581 -0.0666 -0.0021
   74PAM     CN   74   6.377   0.857   4.514  0.0145  0.2154  0.0913
   75PAM     CN   75   1.724   4.875   0.016  0.1231  0.1923  0.2367
   76PAM     CN   76   2.401   5.227   2.902 -0.0410 -0.0648  0.0689
   77PAM     CN   77   5.769   0.518   5.079  0.2122  0.0636  0.0251
   78PAM     CN   78   1.671   6.099   0.280 -0.2747  0.0990  0.0918
   79PAM     CN   79   2.091   4.012   1.775  0.1757  0.0218 -0.1171
   80PAM     CN   80   2.489   0.154   6.109 -0.0463  0.1366 -0.0591
   81PAM     CN   81   3.822   4.975   0.525 -0.0323 -0.0834 -0.0466
   82PAM     CN   82   6.015   2.588   3.692  0.2315  0.3896 -0.0746
   83PAM     CN   83   5.328   0.867   3.740  0.1209  0.2599 -0.0030
   84PAM     CN   84   3.394   2.264   0.261 -0.1473  0.0507 -0.2909
   85PAM     CN   85   4.183   2.814   3.262  0.2864  0.1897  0.2258
   86PAM     CN   86   4.230   5.976   3.317  0.2999 -0.2261 -0.1639
   87PAM     CN   87   3.771   2.029   4.132 -0.0341 -0.0802  0.1959
   88PAM     CN   88   3.951   3.200   2.400  0.1952 -0.1679  0.1155
   89PAM     CN   89   5.302   5.071   5.165 -0.1492 -0.0687  0.0606
   90PAM     CN   90   1.590   4.498   4.664  0.3067 -0.0880  0.1559
   91PAM     CN   91   2.289   3.896   0.056 -0.1258 -0.1856 -0.0980
   92PAM     CN   92   3.425   4.182   3.822 -0.1691 -0.1757 -0.2230
   93PAM     CN   93   4.223   5.526   2.464  0.1143  0.0057 -0.0096
   94PAM     CN   94   5.284   5.954   4.119  0.3346 -0.0224  0.1337
   95PAM     CN   95   2.958   5.442   6.067 -0.0441 -0.3039 -0.0419
   96PAM     CN   96   2.815   0.041   0.446 -0.2273  0.0035  0.1222
   97PAM     CN   97   0.017   1.095   6.407 -0.1444  0.5021 -0.1239
   98PAM     CN   98   3.938   3.432   3.474 -0.1233  0.1465  0.0193
   99PAM     CN   99   3.304   0.484   3.627  0.3907  0.1323  0.0259
  100PAM     CN  100   3.875   3.930   2.017 -0.0085 -0.4250  0.0122
  101PAM     CN  101   2.865   2.677   5.459 -0.2422 -0.0089 -0.0912
  102PAM     CN  102   3.124   0.421   0.230 -0.0793  0.0388  0.0101
  103PAM     CN  103   1.362   3.261   5.289  0.2746  0.1192  0.1066
  104PAM     CN  104   6.299   2.110   3.743 -0.0531  0.1037 -0.0192
  105PAM     CN  105   2.248   5.970   5.961  0.2727  0.0875 -0.1043
  106PAM     CN  106   4.640   3.774   0.372 -0.3043  0.3361 -0.1054
  107PAM     CN  107   4.868   3.763   4.414 -0.1174  0.0938 -0.0644
  108PAM     CN  108   1.225   3.625   0.651 -0.1546  0.0041  0.2196
  109PAM     CN  109   1.380   3.705   5.019 -0.3073 -0.1276 -0.1503
  110PAM     CN  110   0.611   2.514   4.400 -0.0040 -0.0508  0.0325
  111PAM     CN  111   4.571   1.752   1.957 -0.1027 -0.0962 -0.0540
  112PAM     CN  112   2.588   4.248   5.037  0.2146 -0.1510 -0.2047
  113PAM     CN  113   3.592   0.939   5.789 -0.0118  0.0831 -0.3579
  114PAM     CN  114   3.860   4.038   3.549 -0.0585 -0.0030  0.0845
  115PAM     CN  115   3.319   4.410   5.594  0.0022  0.1097 -0.0649
  116PAM     CN  116   5.788   2.480   0.120  0.0031  0.0490  0.3190
  117PAM     CN  117   5.688   3.474   2.302 -0.1851  0.2398  0.1203
  118PAM     CN  118   2.602   3.705   0.364 -0.2168 -0.0167  0.0537
  119PAM     CN  119   0.926   2.110   4.613  0.1481 -0.1952  0.1259
  120PAM     CN  120   1.202   6.045   3.116  0.0678 -0.2685 -0.1002
  121PAM     CN  121   0.115   2.467   6.261  0.1020 -0.0883 -0.0942
  122PAM     CN  122   6.468   1.095   2.430  0.1460  0.4208 -0.1548
  123PAM     CN  123   0.304   2.731   2.382  0.1329 -0.4996  0.1912
  124PAM     CN  124   1.914   4.312   2.912 -0.2369  0.1595 -0.2884
  125PAM     CN  125   5.394   0.377   3.595  0.1292 -0.2361  0.0406
  126PAM     CN  126   3.510   6.013   2.648 -0.0596  0.0588  0.1200
  127PAM     CN  127   3.497   1.279   0.671 -0.1413  0.0386 -0.0445
  128PAM     CN  128   2.346   2.979   1.427  0.2811 -0.1897  0.1008
  129PAM     CN  129   2.443   3.059   0.442  0.0598 -0.0300 -0.3749
  130PAM     CN  130   1.666   0.451   3.650 -0.0354  0.4044  0.0018
  131PAM     CN  131   4.868   4.129   3.214  0.2209 -0.4298  0.0851
  132PAM     CN  132   0.815   4.204   2.066 -0.1119 -0.0468 -0.0517
  133PAM     CN  133   0.393   4.362   0.836  0.0085 -0.0537 -0.2750
  134PAM     CN  134   1.095   4.531   2.972 -0.1175  0.0814 -0.1532
  135PAM     CN  135   1.576   1.390   5.689  0.2810  0.0051  0.1656
  136PAM     CN  136   3.463   3.729   5.230  0.0587  0.1312 -0.0442
  137PAM     CN  137   2.905   3.345   3.958  0.3039 -0.1963  0.2289
  138PAM     CN  138   2.440   5.513   4.802 -0.2498  0.3084 -0.0529
  139PAM     CN  139   1.389   1.892   1.313  0.1020 -0.0260 -0.2483
  140PAM     CN  140   3.342   1.631   4.048 -0.5430 -0.0950  0.2365
  141PAM     CN  141   3.015   5.776   0.692  0.0735 -0.1566 -0.2081
  142PAM     CN  142   4.742   5.186   4.110  0.1128 -0.0606 -0.0530
  143PAM     CN  143   4.052   0.115   6.327 -0.0155 -0.0539  0.0012
  144PAM     CN  144   3.237   0.648   6.248 -0.1028  0.0995 -0.0190
  145PAM     CN  145   0.112   5.621   3.498 -0.0492  0.2917 -0.2086
  146PAM     CN  146   1.416   5.956   4.821  0.3198 -0.2628 -0.0242
  147PAM     CN  147   3.486   5.722   3.077 -0.2187 -0.1385  0.2287
  148PAM     CN  148   5.305   4.095   3.471 -0.1686  0.1499 -0.0635
  149PAM     CN  149   6.264   4.618   1.034 -0.0962  0.0026 -0.4090
  150PAM     CN  150   2.025   1.620   5.760 -0.2137 -0.0748 -0.0937
  151PAM     CN  151   1.232   2.644   2.980  0.0466 -0.1094  0.0160
  152PAM     CN  152   1.764   2.104   1.678 -0.0935 -0.1934 -0.2469
  153PAM     CN  153   6.166   2.216   0.368 -0.1405 -0.4331 -0.0576
  154PAM     CN  154   0.755   4.848   2.008  0.0854 -0.1871  0.3667
  155PAM     CN  155   0.420   0.645   0.675 -0.2592 -0.0354  0.1131
  156PAM     CN  156   5.518   5.604   0.029 -0.2506 -0.3394 -0.0921
  157PAM     CN  157   2.833   4.265   1.247 -0.1803 -0.0080 -0.0889
  158PAM     CN  158   5.352   0.806   5.127  0.2778 -0.0899 -0.0244
  159PAM     CN  159   3.798   4.415   1.696 -0.0563  0.1998 -0.0310
  160PAM     CN  160   0.865   0.487   0.420  0.1353  0.2515 -0.3205
  161PAM     CN  161   1.026   0.018   3.634 -0.1137 -0.3607 -0.1298
  162PAM     CN  162   1.242   0.820   6.209 -0.2825  0.0005 -0.1018
  163PAM     CN  163   3.814   5.647   2.719  0.2031  0.1532 -0.0179
  164PAM     CN  164   0.252   3.199   0.887  0.1677  0.2678  0.0118
  165PAM     CN  165   5.433   2.837   6.364  0.1291  0.0085 -0.0609
  166PAM     CN  166   5.829   4.106   5.495 -0.1161 -0.1723 -0.0185
  167PAM     CN  167   0.632   4.225   0.323 -0.0417 -0.1769  0.2758
  168PAM     CN  168   4.472   2.320   1.865  0.2343 -0.3620 -0.1221
  169PAM     CN  169   3.729   5.071   2.519 -0.1184 -0.1453 -0.0981
  170PAM     CN  170   2.912   2.555   0.990 -0.2737 -0.2759 -0.0561
  171PAM     CN  171   6.236   4.310   4.146  0.1649  0.0312 -0.0933
  172PAM     CN  172   4.340   2.435   3.490 -0.4547  0.1624 -0.2021
  173PAM     CN  173   3.279   5.150   3.269  0.2153  0.2086 -0.0245
  174PAM     CN  174   1.175   3.658   4.288 -0.4242  0.1670  0.0291
  175PAM     CN  175   3.582   5.049   6.350 -0.0455 -0.0295  0.1130
  176PAM     CN  176   2.084   0.036   1.240 -0.2999 -0.2126  0.0054
  177PAM     CN  177   4.419   4.600   2.378  0.1359 -0.2259  0.0343
  178PAM     CN  178   1.481   2.271   2.235 -0.1404 -0.1874 -0.1583
  179PAM     CN  179   6.216   4.916   1.811 -0.2366  0.2922 -0.0269
  180PAM     CN  180   1.431   2.312   0.354  0.0568 -0.2204 -0.0733
  181PAM     CN  181   4.777   2.908   1.976 -0.1744  0.0877  0.2672
  182PAM     CN  182   3.267   3.421   3.441  0.2535  0.0903  0.1275
  183PAM     CN  183   0.727   2.613   1.494  0.0807  0.2697 -0.0928
  184PAM     CN  184   2.412   3.003   6.464  0.3374  0.1397  0.0639
  185PAM     CN  185   1.366   5.727   4.244  0.0158 -0.3016  0.0189
  186PAM     CN  186   4.665   2.881   3.450  0.1529  0.0779  0.0116
  187PAM     CN  187   2.643   2.928   2.960 -0.1843 -0.1619 -0.1660
  188PAM     CN  188   6.290   1.715   5.664  0.2840  0.0762 -0.0823
  189PAM     CN  189   2.182   0.558   2.726 -0.1361  0.1634 -0.1488
  190PAM     CN  190   4.965   6.146   4.575 -0.2726 -0.1810  0.2074
  191PAM     CN  191   5.747   6.329   1.522  0.1569 -0.0197  0.3095
  192PAM     CN  192   5.426   3.222   1.412  0.0876 -0.1395 -0.2083
  193PAM     CN  193   1.259   1.773   4.553  0.1979  0.0958 -0.1828
  194PAM     CN  194   3.288   6.260   0.600  0.0368 -0.0674 -0.0178
  195PAM     CN  195   4.382   1.693   0.755  0.2877 -0.3268  0.3029
  196PAM     CN  196   0.112   4.010   0.462  0.2408  0.0142 -0.0495
  197PAM     CN  197   1.604   1.686   1.934 -0.0092  0.2111  0.1939
  198PAM     CN  198   3.480   4.906   0.874  0.0500 -0.1756  0.0967
  199PAM     CN  199   0.423   5.630   2.661  0.1531  0.0727  0.2717
  200PAM     CN  200   4.187   4.629   1.510 -0.0760  0.2718 -0.2026
  201PAM     CN  201   3.116   2.575   1.851 -0.1398  0.0309  0.0381
  202PAM     CN  202   1.118   5.206   6.220 -0.1495 -0.1023 -0.0387
  203PAM     CN  203   4.045   2.834   6.393 -0.0610  0.0769  0.1230
  204PAM     CN  204   2.009   0.609   1.295 -0.0363 -0.3057 -0.3347
  205PAM     CN  205   1.121   5.478   2.778  0.1710  0.0451 -0.3137
  206PAM     CN  206   3.227   1.750   6.200 -0.0332  0.0953 -0.1174
  207PAM     CN  207   2.734   5.166   6.403 -0.1738  0.0684 -0.1151
  208PAM     CN  208   4.883   2.053   6.081  0.0784 -0.4374 -0.1081
  209PAM     CN  209   0.069   3.014   1.549  0.0903 -0.2087  0.0030
  210PAM     CN  210   1.929   2.126   4.699  0.0708  0.1249 -0.2901
  211PAM     CN  211   2.600   5.098   5.328 -0.3251 -0.1874 -0.1917
  212PAM     CN  212   3.016   4.922   4.999 -0.0310  0.0340 -0.2025
  213PAM     CN  213   3.090   3.802   3.848 -0.2352  0.1647 -0.1057
  214PAM     CN  214   2.704   1.011   3.220 -0.2735 -0.0103 -0.2362
  215PAM     CN  215   4.700   5.706   3.848 -0.3410  0.0095  0.2067
  216PAM     CN  216   0.169   6.344   1.047  0.1375  0.1931  0.1334
  217PAM     CN  217   2.281   2.082   5.664 -0.0867 -0.2086 -0.1520
  218PAM     CN  218   6.466   5.060   4.481 -0.1804 -0.3383  0.2835
  219PAM     CN  219   0.763   1.733   0.812  0.2025 -0.2154 -0.0108
  220PAM     CN  220   3.787   6.100   6.309 -0.1396  0.0433  0.0245
  221PAM     CN  221   3.128   0.232   0.809 -0.2280  0.0443 -0.2773
  222PAM     CN  222   1.645   2.779   5.979  0.1036  0.1547  0.1707
  223PAM     CN  223   2.720   2.167   0.308  0.0408 -0.0655  0.3090
  224PAM     CN  224   6.022   0.062   4.215  0.0387  0.3626 -0.1911
  225PAM     CN  225   3.447   0.915   4.732 -0.0418  0.1966 -0.0753
  226PAM     CN  226   3.309   0.652   2.694 -0.2625  0.0367 -0.0222
  227PAM     CN  227   3.178   4.128   0.395 -0.2521  0.1368 -0.0233
  228PAM     CN  228   2.757   0.010   5.124  0.0687  0.3343  0.0032
  229PAM     CN  229   6.102   4.397   3.603 -0.1773 -0.2257  0.0462
  230PAM     CN  230   0.769   2.299   3.920 -0.0296  0.1487 -0.0086
  231PAM     CN  231   2.093   3.131   5.958 -0.2618  0.2068 -0.2351
  232PAM     CN  232   0.401   1.959   3.670 -0.1557 -0.0570  0.1433
  233PAM     CN  233   0.672   1.167   5.111 -0.1055 -0.0578  0.1373
  234PAM     CN  234   4.689   4.916   4.823 -0.1830 -0.0756 -0.0992
  235PAM     CN  235   3.392   1.312   2.108  0.0519 -0.1822 -0.1916
  236PAM     CN  236   0.335   5.615   0.481 -0.3562 -0.1948 -0.1505
  237PAM     CN  237   3.997   6.374   4.988 -0.2136 -0.0169 -0.1256
  238PAM     CN  238   1.687   5.675   5.366 -0.1819 -0.0540  0.2024
  239PAM     CN  239   0.080   4.620   2.650  0.0080  0.1689  0.1102
  240PAM     CN  240   3.544   1.872   0.024 -0.1640 -0.1951  0.4321
  241PAM     CN  241   4.325   0.107   3.263 -0.1022 -0.3584 -0.0128
  242PAM     CN  242   6.040   1.758   3.966 -0.2763 -0.1627  0.0163
  243PAM     CN  243   1.871   2.084   1.160 -0.0805  0.0996  0.0503
  244PAM     CN  244   4.964   6.465   6.430 -0.0472 -0.0581 -0.0480
  245PAM     CN  245   2.997   3.154   5.824  0.0812  0.0430  0.0768
  246PAM     CN  246   4.798   1.475   6.254  0.0250  0.0479 -0.3767
  247PAM     CN  247   3.061   5.702   4.620  0.4107 -0.0789  0.2669
  248PAM     CN  248   5.359   4.083   2.041 -0.2503  0.1198  0.0264
  249PAM     CN  249   1.795   5.535   4.880 -0.2040 -0.2464  0.3389
  250PAM     CN  250   4.259   2.204   4.956 -0.1131  0.1874  0.2671
  251PAM     CN  251   2.680   1.284   2.653 -0.2781 -0.1715  0.0214
  252PAM     CN  252   6.267   3.733   2.689  0.0024 -0.1302  0.1330
  253PAM     CN  253   3.296   5.285   4.748  0.0156 -0.0168  0.0792
  254PAM     CN  254   4.627   2.263   6.469  0.1423 -0.1823  0.2532
  255PAM     CN  255   1.382   5.344   4.710 -0.1971 -0.0205 -0.1045
  256PAM     CN  256   2.881   4.654   5.862 -0.0045 -0.1394 -0.0243
  257PAM     CN  257   0.876   1.055   6.021 -0.2026  0.0001  0.0189
  258PAM     CN  258   2.833   3.338   0.220 -0.0481  0.0879  0.0352
  259PAM     CN  259   1.851   2.470   0.604 -0.0868  0.1341 -0.1931
  260PAM     CN  260   2.098   2.711   5.652  0.2159 -0.0235  0.1188
  261PAM     CN  261   3.450   1.791   0.534  0.4842  0.1721 -0.1605
  262PAM     CN  262   2.221   2.664   0.308  0.3251 -0.1047 -0.1552
  263PAM     CN  263   2.885   1.652   0.582 -0.1394  0.1149  0.0095
  264PAM     CN  264   0.936   5.539   0.118 -0.0559  0.0864 -0.1542
  265PAM     CN  265   2.467   2.856   3.846  0.2299  0.1729  0.2635
  266PAM     CN  266   5.987   3.353   4.107 -0.0783  0.0804 -0.1277
  267PAM     CN  267   2.189   1.114   4.820 -0.0210 -0.2220  0.2109
  268PAM     CN  268   2.520   5.838   0.786 -0.1567  0.0963  0.0355
  269PAM     CN  269   4.676   5.166   5.637  0.2291 -0.0404 -0.1303
  270PAM     CN  270   4.144   0.981   5.774  0.3411  0.0919 -0.0250
  271PAM     CN  271   6.036   3.132   2.250 -0.0560  0.2216 -0.1555
  272PAM     CN  272   1.796   1.973   2.530  0.0987 -0.3481 -0.1976
  273PAM     CN  273   6.203   2.922   4.024  0.1020  0.1582 -0.0037
  274PAM     CN  274   2.979   6.108   2.006  0.0626  0.1189 -0.0221
  275PAM     CN  275   1.669   0.366   5.611  0.3321 -0.0437  0.2129
  276PAM     CN  276   3.540   1.318   5.127 -0.4075  0.1481 -0.0523
  277PAM     CN  277   5.641   2.489   6.022  0.1434 -0.0058  0.0831
  278PAM     CN  278   0.694   2.511   0.956  0.2363 -0.2126  0.0532
  279PAM     CN  279   4.161   3.596   1.650  0.0108  0.1403 -0.0820
  280PAM     CN  280   4.973   0.129   4.828 -0.0225  0.0881  0.0162
  281PAM     CN  281   2.978   4.173   2.252  0.0930 -0.0086 -0.2629
  282PAM     CN  282   3.375   5.790   1.420  0.0381 -0.0767 -0.0269
  283PAM     CN  283   3.849   2.295   0.126  0.2220 -0.1463 -0.1095
  284PAM     CN  284   4.990   6.193   5.110  0.4726  0.4337  0.1682
  285PAM     CN  285   3.514   4.839   4.885  0.0681  0.2020 -0.2595
  286PAM     CN  286   0.585   0.806   5.606 -0.3739 -0.3634 -0.0962
  287PAM     CN  287   6.075   2.723   5.291  0.5446 -0.0485 -0.1964
  288PAM     CN  288   6.153   4.849   5.313 -0.0859  0.0720 -0.1160
  289PAM     CN  289   4.799   0.210   5.297  0.1732 -0.0184 -0.0983
  290PAM     CN  290   4.617   0.124   1.483 -0.1841  0.0999 -0.1883
  291PAM     CN  291   0.390   3.253   6.337  0.1666  0.0092  0.0658
  292PAM     CN  292   6.303   0.634   2.719 -0.1204  0.0316  0.2403
  293PAM     CN  293   5.193   3.187   0.502 -0.2836  0.1985  0.0296
  294PAM     CN  294   2.014   4.205   5.916 -0.0771  0.4246 -0.1093
  295PAM     CN  295   4.867   0.265   1.053  0.1155  0.0006  0.2434
  296PAM     CN  296   2.032   2.973   0.662  0.1479  0.1427  0.1649
  297PAM     CN  297   0.863   0.974   0.197 -0.2655  0.1917  0.0506
  298PAM     CN  298   4.521   6.320   5.087 -0.1549 -0.0202  0.0605
  299PAM     CN  299   3.029   0.356   4.674  0.0730  0.2172  0.0257
  300PAM     CN  300   1.003   4.059   3.477 -0.0639 -0.1510 -0.0582
  301PAM     CN  301   3.309   3.487   4.427  0.1887  0.1986  0.0509
  302PAM     CN  302   3.014   1.336   0.124  0.1388  0.1824 -0.1353
  303PAM     CN  303   2.075   1.785   4.113 -0.0264  0.1882  0.1039
  304PAM     CN  304   3.538   2.536   1.411  0.1195 -0.0120  0.3007
  305PAM     CN  305   5.343   5.987   1.840 -0.3048 -0.0443 -0.0108
  306PAM     CN  306   5.670   3.012   0.727 -0.0172 -0.0222 -0.0539
  307PAM     CN  307   1.268   1.804   2.244 -0.0703  0.0902 -0.1487
  308PAM     CN  308   3.452   5.947   5.698  0.2499  0.2168 -0.0949
  309PAM     CN  309   4.405   1.214   6.460  0.0509  0.4239 -0.0489
  310PAM     CN  310   5.583   1.398   3.991 -0.0843 -0.1917  0.1275
  311PAM     CN  311   5.796   3.029   4.969 -0.1071  0.2332  0.0383
  312PAM     CN  312   3.270   5.674   2.397 -0.1323  0.0743  0.0294
  313PAM     CN  313   4.903   1.253   2.881  0.2737  0.1806 -0.2615
  314PAM     CN  314   5.385   1.927   4.746 -0.1039  0.1422  0.1088
  315PAM     CN  315   3.529   2.161   1.858  0.1699  0.2101 -0.1842
  316PAM     CN  316   4.529   1.401   3.750  0.0869  0.0966 -0.3564
  317PAM     CN  317   0.564   4.447   3.716  0.0160 -0.1022 -0.1106
  318PAM     CN  318   1.610   3.732   3.080  0.0551 -0.0182  0.0239
  319PAM     CN  319   5.894   5.961   1.199 -0.2871  0.0093  0.1221
  320PAM     CN  320   4.759   4.631   1.481  0.0368  0.1898  0.0010
  321PAM     CN  321   0.378   5.124   4.741  0.3094 -0.3897  0.0869
  322PAM     CN  322   1.451   3.188   6.392 -0.1870 -0.0200  0.1081
  323PAM     CN  323   5.553   3.170   2.926 -0.2577  0.1136  0.0664
  324PAM     CN  324   0.178   1.463   3.594  0.2137 -0.2947 -0.1403
  325PAM     CN  325   4.584   2.762   5.608 -0.0985  0.1204  0.1171
  326PAM     CN  326   0.275   1.716   2.562 -0.1077 -0.0396 -0.0116
  327PAM     CN  327   4.418   5.826   4.365 -0.2086 -0.2245 -0.0385
  328PAM     CN  328   6.336   4.378   6.251  0.1286  0.0499 -0.2802
  329PAM     CN  329   0.542   5.726   0.983  0.0575 -0.2862  0.0699
  330PAM     CN  330   3.633   5.437   2.160 -0.1047  0.0933  0.0004
  331PAM     CN  331   5.482   0.216   2.387  0.3997 -0.0393 -0.2318
  332PAM     CN  332   4.062   3.331   2.980 -0.0906 -0.2552 -0.0736
  333PAM     CN  333   1.233   4.838   4.539  0.1046 -0.1749  0.0727
  334PAM     CN  334   3.978   5.612   4.498  0.0643  0.1369 -0.1086
  335PAM     CN  335   0.001   1.432   0.891 -0.0758  0.1976 -0.1835
  336PAM     CN  336   0.518   1.335   5.601  0.1553  0.0089 -0.1372
  337PAM     CN  337   4.359   3.106   2.686 -0.0149  0.5212  0.0906
  338PAM     CN  338   1.642   6.222   2.749 -0.3080  0.1894 -0.1601
  339PAM     CN  339   5.998   4.350   5.111  0.1248  0.0564  0.0221
  340PAM     CN  340   1.886   1.571   0.507  0.1302  0.0805 -0.1242
  341PAM     CN  341   2.266   1.187   2.991  0.0806 -0.0722  0.3547
  342PAM     CN  342   6.182   1.075   6.032 -0.1199  0.0093 -0.1177
  343PAM     CN  343   2.844   4.118   3.444 -0.1756 -0.1117  0.0477
  344PAM     CN  344   2.601   3.768   5.110  0.1839  0.0555 -0.1177
  345PAM     CN  345   4.169   2.707   4.701 -0.3460  0.1593 -0.1990
  346PAM     CN  346   4.603   0.302   6.240 -0.0740 -0.2502  0.0291
  347PAM     CN  347   4.419   2.702   3.922 -0.2535  0.1514  0.0598
  348PAM     CN  348   0.660   0.167   0.172  0.0491 -0.1945  0.1907
  349PAM     CN  349   2.860   3.256   1.765  0.1937 -0.2743  0.0284
  350PAM     CN  350   3.469   4.214   2.981 -0.0459 -0.1905  0.1571
  351PAM     CN  351   5.475   3.348   0.118 -0.1207 -0.0046 -0.0444
  352PAM     CN  352   3.954   4.988   4.976 -0.5149 -0.0466 -0.1034
  353PAM     CN  353   4.824   0.394   5.748 -0.1516 -0.1985  0.0005
  354PAM     CN  354   4.124   1.567   1.796  0.1666 -0.1729 -0.0618
  355PAM     CN  355   4.818   5.688   5.724  0.1166 -0.2587 -0.1577
  356PAM     CN  356   6.165   2.150   1.883  0.1896 -0.0040  0.1435
  357PAM     CN  357   6.196   4.031   3.304 -0.1848  0.2145 -0.3171
  358PAM     CN  358   5.258   4.638   5.015 -0.1586  0.1325  0.1119
  359PAM     CN  359   2.095   1.349   2.140  0.1665  0.0660 -0.2376
  360PAM     CN  360   4.590   5.795   5.245  0.0920  0.1767 -0.4232
  361PAM     CN  361   3.056   2.080   2.107  0.0780  0.0395  0.1640
  362PAM     CN  362   2.960   6.409   1.633 -0.0125 -0.0471  0.0582
  363PAM     CN  363   5.782   2.039   4.992 -0.0817  0.0724 -0.0514
  364PAM     CN  364   6.421   6.274   4.372 -0.1888 -0.0062 -0.1099
  365PAM     CN  365   1.103   4.470   0.266 -0.1419  0.0557 -0.3241
  366PAM     CN  366   5.821   2.899   1.306 -0.0554 -0.1022 -0.2434
  367PAM     CN  367   0.275   3.128   5.736  0.2555 -0.1579 -0.2148
  368PAM     CN  368   4.889   1.875   5.616 -0.0978 -0.0078 -0.2699
  369PAM     CN  369   4.817   6.143   6.046 -0.1359  0.2514  0.0209
  370PAM     CN  370   3.173   2.718   4.447 -0.1884 -0.2852 -0.0747
  371PAM     CN  371   3.036   5.854   4.097  0.3207 -0.0055  0.1210
  372PAM     CN  372   4.759   2.951   2.944 -0.1424 -0.1608  0.0116
  373PAM     CN  373   1.546   3.211   1.737  0.3393  0.1714 -0.0432
  374PAM     CN  374   3.985   1.165   0.892 -0.1340  0.1418  0.1079
  375PAM     CN  375   5.761   4.849   3.977  0.1355 -0.0511 -0.1002
  376PAM     CN  376   4.903   2.112   4.573  0.1027  0.2985 -0.3046
  377PAM     CN  377   5.557   4.535   2.260  0.0759 -0.0121  0.0476
  378PAM     CN  378   5.272   0.478   4.567 -0.0679 -0.0083 -0.2077
  379PAM     CN  379   2.832   1.544   4.291 -0.1029 -0.2325 -0.0447
  380PAM     CN  380   3.599   4.879   5.815 -0.2226 -0.2813 -0.1121
  381PAM     CN  381   5.221   4.594   3.109 -0.3474 -0.1276 -0.1088
  382PAM     CN  382   3.366   4.829   0.301 -0.1218  0.0519  0.2877
  383PAM     CN  383   0.602   1.458   1.798 -0.1122 -0.1905 -0.2236
  384PAM     CN  384   1.451   3.985   3.620 -0.1050  0.0063 -0.0111
  385PAM     CN  385   2.236   0.598   1.797 -0.1230  0.0042  0.1916
  386PAM     CN  386   1.194   5.574   1.860 -0.1066 -0.0489 -0.1716
  387PAM     CN  387   0.012   1.900   3.331  0.1038 -0.0450  0.2556
  388PAM     CN  388   1.535   2.948   2.637 -0.1502  0.0162 -0.0670
  389PAM     CN  389   4.316   3.437   5.693  0.0830 -0.0462  0.1674
  390PAM     CN  390   5.040   3.621   0.657 -0.1015  0.2129  0.4347
  391PAM     CN  391   2.878   3.000   0.727 -0.2308  0.2164  0.0525
  392PAM     CN  392   4.183   0.712   0.184  0.0110  0.1625 -0.3258
  393PAM     CN  393   0.064   4.094   1.242  0.0912 -0.1582  0.2197
  394PAM     CN  394   2.326   0.726   0.918 -0.1522 -0.2463  0.1279
  395PAM     CN  395   5.284   1.558   3.206 -0.2427 -0.1469 -0.0677
  396PAM     CN  396   4.558   1.734   4.360  0.1072 -0.1809  0.0090
  397PAM     CN  397   4.922   0.535   1.578 -0.1163 -0.0688 -0.0113
  398PAM     CN  398   0.119   4.675   3.706  0.0408  0.0757 -0.0991
  399PAM     CN  399   5.778   3.436   5.581 -0.2432 -0.0379 -0.1907
  400PAM     CN  400   4.163   2.665   2.238 -0.0043  0.2249  0.1615
  401PAM     CN  401   4.988   0.452   0.568 -0.2591 -0.0614 -0.0139
  402PAM     CN  402   0.886   3.361   1.486 -0.1233  0.2060  0.0066
  403PAM     CN  403   1.495   2.192   3.192 -0.0268  0.2831  0.2936
  404PAM     CN  404   6.079   2.308   6.238  0.1653 -0.0826  0.2739
  405PAM     CN  405   2.956   0.107   2.072  0.0670  0.0196  0.0324
  406PAM     CN  406   6.153   4.990   2.819  0.1234 -0.2234  0.3401
  407PAM     CN  407   5.654   5.647   4.445  0.2202  0.0879 -0.2135
  408PAM     CN  408   0.093   0.589   3.204 -0.0294 -0.0889  0.1097
  409PAM     CN  409   4.359   4.866   0.707  0.2124  0.1131  0.0003
  410PAM     CN  410   2.533   0.691   5.556  0.1128  0.0760  0.2586
  411PAM     CN  411   3.168   2.587   5.985  0.2482  0.0836  0.2181
  412PAM     CN  412   5.297   0.342   5.110  0.0972 -0.2277 -0.0723
  413PAM     CN  413   2.635   6.073   0.410  0.2073  0.0111  0.1044
  414PAM     CN  414   4.749   5.434   1.987  0.2405  0.3758 -0.0688
  415PAM     CN  415   4.290   0.483   1.600 -0.2683 -0.1288  0.2920
  416PAM     CN  416   1.526   4.718   2.777  0.0335  0.1598  0.0406
  417PAM     CN  417   6.377   6.417   2.245  0.0375 -0.1620  0.4057
  418PAM     CN  418   2.098   3.674   4.481 -0.3118 -0.0342  0.2681
  419PAM     CN  419   4.770   3.248   5.431 -0.1228 -0.0735 -0.0535
  420PAM     CN  420   2.002   1.199   0.814 -0.2659 -0.0625 -0.1909
  421PAM     CN  421   0.645   2.161   6.010  0.1442 -0.2684 -0.0923
  422PAM     CN  422   0.827   3.517   0.227 -0.0556  0.0110  0.3338
  423PAM     CN  423   3.289   3.656   0.140  0.2495  0.1249 -0.2106
  424PAM     CN  424   4.964   3.744   5.339  0.2273  0.0206  0.1969
  425PAM     CN  425   2.838   2.585   2.668 -0.0849 -0.0937  0.0121
  426PAM     CN  426   4.007   3.101   4.191 -0.0108 -0.2064 -0.1387
  427PAM     CN  427   3.309   3.467   1.587  0.3235 -0.1929  0.0447
  428PAM     CN  428   6.020   4.371   1.885 -0.1235  0.1549 -0.2850
  429PAM     CN  429   3.749   2.503   3.119  0.1477 -0.2670 -0.0773
  430PAM     CN  430   6.020   3.073   2.812  0.1601  0.0038 -0.1390
  431PAM     CN  431   4.522   0.433   2.543 -0.0324  0.2843  0.0929
  432PAM     CN  432   2.410   3.563   5.562 -0.0525  0.3069  0.1196
  433PAM     CN  433   0.334   3.728   0.918  0.1917  0.1665 -0.1201
  434PAM     CN  434   6.114   6.234   3.543 -0.1035  0.4133 -0.0798
  435PAM     CN  435   3.484   0.102   6.221  0.3343 -0.0368 -0.1216
  436PAM     CN  436   3.429   3.397   4.861  0.2171 -0.3584 -0.1821
  437PAM     CN  437   2.234   6.180   4.615  0.2267 -0.0758 -0.0687
  438PAM     CN  438   1.780   1.753   5.333 -0.1735 -0.0959 -0.1915
  439PAM     CN  439   6.459   5.474   4.736 -0.0446 -0.0803  0.0145
  440PAM     CN  440   4.987   3.923   3.796 -0.0516 -0.1518  0.2975
  441PAM     CN  441   6.255   2.865   1.119 -0.0755  0.2663  0.1704
  442PAM     CN  442   2.211   0.649   5.029 -0.1753  0.0799 -0.0011
  443PAM     CN  443   1.150   3.731   2.888 -0.0853  0.0135 -0.1002
  444PAM     CN  444   5.206   5.380   0.830  0.2103  0.2803 -0.0580
  445PAM     CN  445   5.202   5.275   5.666 -0.1848  0.2556 -0.0970
  446PAM     CN  446   0.224   0.903   5.993 -0.0393 -0.1358  0.0965
  447PAM     CN  447   2.552   5.027   5.836  0.4000  0.0382 -0.0760
  448PAM     CN  448   1.420   0.677   2.923 -0.0719  0.1631  0.1698
  449PAM     CN  449   4.606   2.298   5.812  0.0295 -0.1230  0.1626
  450PAM     CN  450   2.540   1.512   3.373  0.3078  0.1213  0.1385
  451PAM     CN  451   2.690   1.973   1.520 -0.1138  0.1240 -0.0235
  452PAM     CN  452   1.530   0.687   0.925  0.0495  0.0939 -0.0913
  453PAM     CN  453   2.084   4.708   6.096  0.1812 -0.0739 -0.0481
  454PAM     CN  454   4.668   2.027   3.818  0.0592  0.0812 -0.4221
  455PAM     CN  455   4.042   5.803   0.134 -0.1784 -0.0544 -0.0202
  456PAM     CN  456   3.705   2.989   5.854 -0.1371  0.1828 -0.0151
  457PAM     CN  457   2.121   6.092   2.471 -0.1949 -0.1664 -0.2486
  458PAM     CN  458   4.225   0.222   5.411  0.3235  0.0851 -0.0592
  459PAM     CN  459   5.508   3.460   0.929 -0.1398 -0.1291  0.0929
  460PAM     CN  460   2.926   1.332   3.760 -0.1960  0.0256  0.0143
  461PAM     CN  461   3.043   3.898   1.481  0.1368  0.0718 -0.0205
  462PAM     CN  462   0.622   1.764   3.332 -0.0550  0.2660 -0.0082
  463PAM     CN  463   4.494   5.797   0.435  0.1557 -0.1949 -0.0377
  464PAM     CN  464   5.942   4.998   4.503 -0.0481 -0.0593  0.0924
  465PAM     CN  465   1.722   1.058   1.225  0.2224  0.0625  0.1425
  466PAM     CN  466   4.079   0.435   4.891  0.0267  0.1424  0.0008
  467PAM     CN  467   3.934   6.124   2.976  0.1241 -0.1276  0.0593
  468PAM     CN  468   0.369   5.625   5.151 -0.0644 -0.3498  0.4339
  469PAM     CN  469   3.297   6.404   1.212 -0.4017  0.4020  0.1629
  470PAM     CN  470   0.908   6.026   0.078  0.0842 -0.0912 -0.0678
  471PAM     CN  471   1.452   0.018   1.665 -0.2553  0.1601 -0.2775
  472PAM     CN  472   0.996   6.239   5.386  0.1407  0.1088 -0.1124
  473PAM     CN  473   4.980   2.138   1.102  0.1430 -0.1371  0.0151
  474PAM     CN  474   5.608   4.254   1.606 -0.2010  0.0182 -0.2883
  475PAM     CN  475   1.662   4.967   4.946 -0.0858 -0.0917  0.1600
  476PAM     CN  476   0.099   1.523   0.086 -0.1226 -0.0762 -0.2164
  477PAM     CN  477   4.453   5.830   1.705 -0.0332 -0.1066 -0.2149
  478PAM     CN  478   0.867   3.971   0.754  0.1317 -0.2419  0.0160
  479PAM     CN  479   0.956   1.970   0.210 -0.1164 -0.0230  0.0295
  480PAM     CN  480   5.731   4.357   3.290  0.1407 -0.0557 -0.0913
  481PAM     CN  481   0.681   5.164   5.327  0.0663  0.1781 -0.0350
  482PAM     CN  482   4.242   2.997   5.990 -0.0242 -0.1532  0.0520
  483PAM     CN  483   0.574   3.162   3.763 -0.3080 -0.2565  0.0204
  484PAM     CN  484   3.929   1.977   5.751  0.0171  0.2163 -0.2235
  485PAM     CN  485   1.953   4.156   3.617 -0.0521 -0.0413  0.0335
  486PAM     CN  486   4.620   6.236   0.916 -0.1799 -0.1086 -0.2364
  487PAM     CN  487   0.799   2.984   1.215  0.1109 -0.0941  0.1431
  488PAM     CN  488   4.104   4.814   5.606 -0.0259 -0.4844 -0.1001
  489PAM     CN  489   3.844   3.623   4.952 -0.0402  0.0109 -0.2114
  490PAM     CN  490   2.529   6.304   1.298 -0.2139 -0.1871 -0.0438
  491PAM     CN  491   0.985   4.461   4.320 -0.1875 -0.0699  0.3505
  492PAM     CN  492   1.198   2.757   3.539  0.1207 -0.0351  0.0315
  493PAM     CN  493   3.212   1.897   1.558 -0.1385  0.2029  0.0989
  494PAM     CN  494   5.813   2.964   0.187  0.0598  0.1330 -0.0609
  495PAM     CN  495   1.655   1.678   3.120 -0.0072 -0.3592 -0.1454
  496PAM     CN  496   5.520   5.302   2.442 -0.2790 -0.0621 -0.2739
  497PAM     CN  497   0.798   0.166   2.612 -0.3288 -0.1914  0.4311
  498PAM     CN  498   3.145   1.080   2.927 -0.4329 -0.0858 -0.0884
  499PAM     CN  499   0.883   1.819   2.721 -0.1412 -0.1098  0.0280
  500PAM     CN  500   5.787   0.093   3.783  0.2547  0.2450 -0.0383
  501PAM     CN  501   2.208   1.969   1.480  0.1066  0.1793  0.2851
  502PAM     CN  502   1.220   6.035   5.749  0.0562  0.2575 -0.1333
  503PAM     CN  503   2.069   2.804   5.062 -0.0834  0.2246 -0.0572
  504PAM     CN  504   5.263   6.089   6.395 -0.0254  0.2279  0.0422
  505PAM     CN  505   2.464   5.499   5.870 -0.1030 -0.0828  0.0911
  506PAM     CN  506   2.370   2.120   2.799 -0.2061 -0.0884 -0.4258
  507PAM     CN  507   0.613   3.049   1.742 -0.3250  0.0901  0.0424
  508PAM     CN  508   0.215   1.209   4.766 -0.1012  0.3151  0.1393
  509PAM     CN  509   0.739   1.686   5.273 -0.2176 -0.0968  0.0299
  510PAM     CN  510   5.749   4.832   5.052  0.0958  0.1554  0.2079
  511PAM     CN  511   1.799   5.186   5.430  0.0197  0.0236  0.2636
  512PAM     CN  512   6.179   4.594   3.166 -0.1379 -0.3044  0.2970
  513PAM     CN  513   5.092   1.302   2.391  0.0802 -0.1469 -0.0354
  514PAM     CN  514   5.929   1.621   4.430  0.0809  0.2075  0.1064
  515PAM     CN  515   4.457   2.653   0.196 -0.1034 -0.0265  0.1800
  516PAM     CN  516   0.097   5.960   4.775 -0.4237  0.3458  0.0380
  517PAM     CN  517   4.537   0.654   1.143  0.1192  0.2902 -0.2280
  518PAM     CN  518   5.420   4.638   3.595  0.1339  0.2890 -0.1941
  519PAM     CN  519   0.644   0.395   1.564  0.0327 -0.0023  0.2099
  520PAM     CN  520   5.728   2.518   4.803 -0.4586 -0.1344 -0.1568
  521PAM     CN  521   0.885   4.739   1.242 -0.2499 -0.1162 -0.2376
  522PAM     CN  522   2.403   3.031   5.554  0.3753 -0.2446  0.1828
  523PAM     CN  523   1.060   4.108   5.345 -0.0257 -0.0473 -0.1350
  524PAM     CN  524   5.203   5.636   6.094 -0.2009 -0.0474  0.5242
  525PAM     CN  525   2.571   1.254   0.900  0.0771  0.0214 -0.1645
  526PAM     CN  526   5.320   3.142   2.192  0.2739  0.4581  0.6220
  527PAM     CN  527   4.344   3.686   4.284 -0.1178 -0.1283  0.0473
  528PAM     CN  528   1.736   3.356   4.096  0.3112  0.2441 -0.0518
  529PAM     CN  529   3.733   4.534   2.676 -0.0527 -0.0723  0.0188
  530PAM     CN  530   6.053   3.490   6.156 -0.0863  0.0756 -0.0997
  531PAM     CN  531   2.085   3.788   3.927  0.2271  0.2840 -0.0307
  532PAM     CN  532   2.954   5.881   6.473  0.1861 -0.0648 -0.0716
  533PAM     CN  533   4.319   0.924   3.650 -0.3476 -0.0090  0.0319
  534PAM     CN  534   3.283   2.886   3.610 -0.1468  0.0712  0.0239
  535PAM     CN  535   2.791   5.180   4.607 -0.0975  0.0882  0.1594
  536PAM     CN  536   0.630   2.944   5.990 -0.1261  0.0414 -0.1930
  537PAM     CN  537   3.041   5.992   3.481 -0.0437  0.0061 -0.2299
  538PAM     CN  538   0.508   0.839   3.070 -0.2337  0.0055  0.0662
  539PAM     CN  539   1.291   0.307   0.760  0.5250 -0.4337  0.4565
  540PAM     CN  540   3.519   4.485   1.077 -0.0394 -0.1097 -0.1152
  541PAM     CN  541   0.199   2.012   1.835  0.0554  0.1104  0.0458
  542PAM     CN  542   5.820   3.467   4.651 -0.3728  0.2635  0.0044
  543PAM     CN  543   0.926   2.975   4.460 -0.0492 -0.1049  0.1887
  544PAM     CN  544   1.889   3.516   2.763 -0.0279 -0.0127 -0.0324
  545PAM     CN  545   4.527   5.370   1.515  0.1547 -0.0477 -0.2270
  546PAM     CN  546   2.520   0.091   1.794 -0.1029  0.0242  0.1362
  547PAM     CN  547   2.351   2.473   4.821  0.1631 -0.2442 -0.0841
  548PAM     CN  548   3.551   3.866   5.893  0.1710  0.0366 -0.0207
  549PAM     CN  549   5.979   5.422   6.324 -0.1978 -0.5181  0.0054
  550PAM     CN  550   5.127   4.092   0.422  0.1140 -0.2417  0.1039
  551PAM     CN  551   0.053   3.289   2.999  0.2091 -0.0698 -0.0989
  552PAM     CN  552   2.707   4.694   1.494 -0.2094 -0.1089  0.0072
  553PAM     CN  553   4.434   5.105   3.228  0.0156 -0.0116  0.3993
  554PAM     CN  554   3.955   2.493   1.756 -0.2734  0.3114  0.3193
  555PAM     CN  555   2.747   1.661   5.263 -0.2102 -0.1954  0.0875
  556PAM     CN  556   4.102   1.930   6.365 -0.1290 -0.0282  0.0353
  557PAM     CN  557   1.380   5.598   2.359  0.1378 -0.0173 -0.2081
  558PAM     CN  558   3.778   0.015   3.361 -0.0821  0.1424  0.2170
  559PAM     CN  559   4.460   1.007   2.582  0.1145  0.1614 -0.1072
  560PAM     CN  560   3.978   4.764   3.193  0.0339 -0.0753 -0.1377
  561PAM     CN  561   5.011   5.292   2.424  0.2809  0.1325  0.0597
  562PAM     CN  562   5.220   1.554   5.988 -0.1861 -0.2439 -0.3603
  563PAM     CN  563   0.296   0.518   5.256 -0.2547 -0.1890 -0.0839
  564PAM     CN  564   3.384   0.318   1.711  0.1361  0.0955 -0.1361
  565PAM     CN  565   2.264   5.423   0.279 -0.1981  0.1318  0.1019
  566PAM     CN  566   3.895   0.876   0.497  0.2496  0.3705 -0.1266
  567PAM     CN  567   4.310   3.446   5.199 -0.2690  0.4931  0.1624
  568PAM     CN  568   5.233   0.016   3.248 -0.1207  0.1184 -0.0326
  569PAM     CN  569   2.478   4.186   6.178 -0.1583 -0.0939  0.1857
  570PAM     CN  570   4.597   2.960   4.854 -0.0046 -0.2043  0.2974
  571PAM     CN  571   4.257   0.623   3.066 -0.0417  0.1254 -0.2357
  572PAM     CN  572   1.090   3.605   5.605  0.0358 -0.2657  0.4266
  573PAM     CN  573   3.702   0.232   4.549 -0.4109  0.0871 -0.0531
  574PAM     CN  574   0.461   1.550   1.353  0.2696 -0.1038 -0.1555
  575PAM     CN  575   2.818   6.270   0.848 -0.2856 -0.1071  0.0368
  576PAM     CN  576   1.124   4.916   1.726  0.1152 -0.0196 -0.0264
  577PAM     CN  577   1.785   5.985   4.480  0.1262  0.0059  0.0953
  578PAM     CN  578   3.701   5.445   0.269  0.2586 -0.0105  0.3978
  579PAM     CN  579   1.809   2.386   0.088 -0.1632  0.1120  0.0507
  580PAM     CN  580   0.077   3.621   3.613 -0.0450 -0.0721 -0.3293
  581PAM     CN  581   2.650   1.002   5.211  0.1923 -0.1976 -0.1926
  582PAM     CN  582   5.069   4.819   5.776  0.0021 -0.0947 -0.1280
  583PAM     CN  583   5.310   1.458   0.285 -0.0154  0.2933  0.0983
  584PAM     CN  584   4.038   5.367   0.888 -0.0747 -0.1493  0.1173
  585PAM     CN  585   1.814   5.153   0.505 -0.0435 -0.0848  0.1050
  586PAM     CN  586   3.614   3.929   4.229 -0.1566 -0.1784  0.1990
  587PAM     CN  587   1.427   5.342   3.143  0.1611  0.1407  0.3255
  588PAM     CN  588   1.599   5.859   3.395 -0.2422  0.3333  0.0768
  589PAM     CN  589   0.915   2.802   3.980  0.1785 -0.1041 -0.0257
  590PAM     CN  590   0.986   6.365   4.838  0.2495  0.0008  0.0855
  591PAM     CN  591   3.413   0.104   2.655 -0.0358 -0.0119  0.3094
  592PAM     CN  592   6.453   5.384   4.030 -0.1956 -0.0679  0.1526
  593PAM     CN  593   5.420   6.003   1.327  0.2545 -0.3639  0.1086
  594PAM     CN  594   1.781   5.064   1.022 -0.1517  0.2054 -0.1201
  595PAM     CN  595   1.760   3.547   0.953 -0.1627 -0.3337 -0.1078
  596PAM     CN  596   4.056   3.970   5.876  0.2364  0.0370  0.3604
  597PAM     CN  597   5.821   2.576   2.087  0.2399  0.1884 -0.1998
  598PAM     CN  598   0.233   1.925   6.177  0.2325 -0.0182  0.1248
  599PAM     CN  599   5.166   1.088   3.273 -0.0449 -0.0478 -0.3359
  600PAM     CN  600   4.996   1.838   3.457  0.0284  0.4728 -0.2882
  601PAM     CN  601   5.381   1.410   4.444  0.1735  0.2568 -0.0546
  602PAM     CN  602   5.034   4.352   6.056  0.0686  0.2291  0.0940
  603PAM     CN  603   2.204   5.764   2.080 -0.0214  0.3843  0.0180
  604PAM     CN  604   3.313   3.912   1.873 -0.0380 -0.1766  0.1497
  605PAM     CN  605   3.453   2.298   2.786 -0.2712 -0.0426  0.0804
  606PAM     CN  606   4.372   4.406   1.876 -0.0980 -0.1045  0.0258
  607PAM     CN  607   4.466   0.512   0.652 -0.1469  0.1224  0.2646
  608PAM     CN  608   6.197   6.132   5.492 -0.0089 -0.2619 -0.0428
  609PAM     CN  609   4.967   0.109   4.309 -0.0023  0.2405  0.1523
  610PAM     CN  610   1.426   3.630   0.157  0.0309 -0.0263 -0.0620
  611PAM     CN  611   2.207   5.965   1.156  0.0850  0.1107  0.1956
  612PAM     CN  612   0.597   1.193   2.223 -0.2158  0.1117 -0.1401
  613PAM     CN  613   2.129   1.632   3.032  0.1489 -0.2182 -0.0931
  614PAM     CN  614   4.376   0.679   4.122 -0.2222 -0.0583  0.0315
  615PAM     CN  615   1.170   0.204   5.423 -0.1029 -0.2427 -0.1095
  616PAM     CN  616   3.902   5.812   5.268 -0.0523  0.1595  0.0873
  617PAM     CN  617   2.647   2.544   6.398  0.0917 -0.1501 -0.0380
  618PAM     CN  618   0.544   0.051   5.291  0.0626  0.0111 -0.1012
  619PAM     CN  619   2.335   1.607   6.122 -0.0524 -0.1375 -0.1159
  620PAM     CN  620   6.256   5.387   1.966  0.1932 -0.1272 -0.2025
  621PAM     CN  621   2.860   4.974   0.422  0.1184 -0.1039 -0.0850
  622PAM     CN  622   5.777   2.911   5.679 -0.2541  0.0209  0.4141
  623PAM     CN  623   2.761   5.947   5.928 -0.1926 -0.1916  0.1431
  624PAM     CN  624   0.143   3.032   3.551 -0.0513 -0.0945  0.1144
  625PAM     CN  625   3.431   6.427   5.628 -0.2650 -0.2940  0.1474
  626PAM     CN  626   5.724   3.770   4.221 -0.1110  0.0192  0.5671
  627PAM     CN  627   0.906   2.596   0.209 -0.2215 -0.0046 -0.1737
  628PAM     CN  628   3.741   2.727   0.936  0.0497 -0.1426  0.0381
  629PAM     CN  629   0.966   0.112   4.169 -0.1943  0.0179 -0.1495
  630PAM     CN  630   0.519   5.232   0.117  0.1979  0.3710 -0.2222
  631PAM     CN  631   2.974   0.608   3.166  0.0538  0.0393  0.0180
  632PAM     CN  632   2.614   5.417   1.972  0.2485  0.2127 -0.0831
  633PAM     CN  633   6.266   4.817   4.047  0.1260 -0.0652 -0.1165
  634PAM     CN  634   0.281   2.721   1.132 -0.0700 -0.1396  0.1171
  635PAM     CN  635   5.944   5.320   4.115 -0.2486  0.1683 -0.2965
  636PAM     CN  636   2.668   2.429   3.977  0.3737  0.1902 -0.2004
  637PAM     CN  637   1.607   3.833   4.094  0.1351  0.0308 -0.1499
  638PAM     CN  638   6.299   1.718   4.812  0.0901 -0.1240  0.1482
  639PAM     CN  639   6.038   0.896   1.420  0.4572 -0.1565  0.2175
  640PAM     CN  640   2.219   3.761   6.060  0.1688  0.3973 -0.0016
  641PAM     CN  641   0.888   5.257   0.553  0.0210 -0.2320  0.2228
  642PAM     CN  642   5.755   5.603   3.360  0.1775  0.1061  0.0095
  643PAM     CN  643   3.494   4.065   2.476 -0.3776 -0.0079 -0.1789
  644PAM     CN  644   0.993   1.667   1.569 -0.2545  0.2889  0.0687
  645PAM     CN  645   1.432   4.816   3.231 -0.1221  0.0142  0.1379
  646PAM     CN  646   5.671   1.805   2.025 -0.1299  0.2614  0.1447
  647PAM     CN  647   2.508   2.789   5.981 -0.1801 -0.2011  0.1814
  648PAM     CN  648   5.719   1.596   5.938  0.2187  0.1246  0.4444
  649PAM     CN  649   4.546   5.430   4.573 -0.0663  0.0666 -0.0019
  650PAM     CN  650   3.285   3.680   2.284  0.2359  0.1020  0.2454
  651PAM     CN  651   4.157   5.530   3.144 -0.0885 -0.0134  0.0452
  652PAM     CN  652   3.525   1.311   3.189  0.0197  0.1128  0.2300
  653PAM     CN  653   1.867   4.914   2.426  0.1470  0.1166 -0.0136
  654PAM     CN  654   0.817   4.599   4.792  0.1151  0.1949 -0.3807
  655PAM     CN  655   0.159   1.471   6.050  0.0721 -0.0365  0.0143
  656PAM     CN  656   6.201   0.500   1.903  0.1265  0.0073 -0.0837
  657PAM     CN  657   3.950   4.460   2.169  0.0675 -0.1482 -0.3438
  658PAM     CN  658   0.394   5.300   4.247 -0.1421  0.1451 -0.2853
  659PAM     CN  659   2.978   3.617   5.440  0.1902  0.1019  0.0099
  660PAM     CN  660   0.662   0.408   3.915  0.1826 -0.2332 -0.0313
  661PAM     CN  661   3.719   5.152   4.442 -0.0216  0.3063 -0.1787
  662PAM     CN  662   5.251   3.516   4.033 -0.0020  0.0388  0.3160
  663PAM     CN  663   2.299   2.328   3.488 -0.2148 -0.1381 -0.2178
  664PAM     CN  664   6.121   4.072   5.923  0.2623 -0.0885  0.2071
  665PAM     CN  665   2.134   0.076   3.577 -0.1058  0.0839 -0.3657
  666PAM     CN  666   0.324   3.190   5.021  0.2391  0.0643 -0.0642
  667PAM     CN  667   4.803   1.412   3.321  0.4284  0.2161  0.2011
  668PAM     CN  668   4.561   3.113   0.019  0.0187 -0.1554  0.1771
  669PAM     CN  669   4.806   2.689   1.036  0.1977  0.0137  0.1522
  670PAM     CN  670   4.003   0.195   1.375 -0.2305 -0.1558 -0.1323
  671PAM     CN  671   2.772   2.423   4.493  0.0856  0.4534 -0.0586
  672PAM     CN  672   3.815   5.957   4.086  0.2308 -0.4184 -0.0060
  673PAM     CN  673   6.262   5.902   3.199 -0.0994  0.0636 -0.0524
  674PAM     CN  674   4.083   5.127   6.396 -0.4013  0.0344  0.1862
  675PAM     CN  675   1.670   0.352   2.596  0.2671 -0.0353  0.0808
  676PAM     CN  676   1.537   0.398   5.008 -0.2254  0.0593 -0.1311
  677PAM     CN  677   6.196   3.672   5.591 -0.1197  0.2103  0.1678
  678PAM     CN  678   4.156   3.579   2.145  0.1290  0.0212 -0.3385
  679PAM     CN  679   1.560   5.234   2.609  0.4052 -0.5016 -0.0899
  680PAM     CN  680   5.613   5.558   0.556 -0.0321 -0.1849  0.0850
  681PAM     CN  681   0.114   3.787   3.109 -0.1226 -0.0844 -0.0181
  682PAM     CN  682   5.629   2.421   5.527  0.1967 -0.0813  0.1849
  683PAM     CN  683   2.917   0.311   2.802  0.1605 -0.0172  0.1315
  684PAM     CN  684   0.791   5.395   1.524 -0.1901  0.2917  0.1745
  685PAM     CN  685   3.825   3.304   1.438 -0.0242 -0.1484  0.1908
  686PAM     CN  686   6.116   2.305   1.119  0.4350  0.0614  0.1514
  687PAM     CN  687   3.952   1.562   0.514 -0.1503  0.0100  0.2503
  688PAM     CN  688   2.768   2.067   4.927 -0.1919  0.1150 -0.0121
  689PAM     CN  689   1.813   4.108   1.346 -0.0888 -0.0346  0.1070
  690PAM     CN  690   0.377   3.367   1.434 -0.0471 -0.1714 -0.5255
  691PAM     CN  691   4.928   1.325   1.857 -0.0406  0.2435  0.1109
  692PAM     CN  692   4.291   0.137   0.876  0.2580  0.0594 -0.0215
  693PAM     CN  693   5.464   4.392   0.242 -0.1820 -0.0231 -0.4020
  694PAM     CN  694   5.295   3.616   3.519  0.3887  0.1321 -0.0519
  695PAM     CN  695   1.796   3.143   3.264  0.2704 -0.1971 -0.1891
  696PAM     CN  696   0.775   1.387   0.461  0.1123  0.0327 -0.1637
  697PAM     CN  697   2.395   1.083   3.667  0.0949  0.1785  0.1679
  698PAM     CN  698   1.618   1.234   3.039 -0.1523 -0.0982  0.1551
  699PAM     CN  699   2.675   5.337   0.884  0.2002 -0.1106  0.1913
  700PAM     CN  700   2.816   2.489   3.532  0.1109  0.1015  0.3389
  701PAM     CN  701   4.200   3.103   0.382  0.0086 -0.1401 -0.5295
  702PAM     CN  702   2.948   6.312   4.735 -0.1240  0.0205 -0.1318
  703PAM     CN  703   4.034   0.571   3.468 -0.2442  0.1103  0.0517
  704PAM     CN  704   5.358   5.929   2.999  0.1858  0.1395  0.1116
  705PAM     CN  705   3.201   3.095   5.225  0.2411  0.0083  0.2042
  706PAM     CN  706   4.175   0.620   2.224  0.1633  0.1249  0.0603
  707PAM     CN  707   2.541   6.273   3.415  0.0866  0.0787 -0.1224
  708PAM     CN  708   5.154   4.739   0.358 -0.1356  0.2245 -0.0876
  709PAM     CN  709   5.252   0.663   5.607  0.0871  0.0701 -0.0242
  710PAM     CN  710   3.767   0.838   6.250  0.0016  0.2645  0.1911
  711PAM     CN  711   6.201   0.106   4.769 -0.2821 -0.0214 -0.1603
  712PAM     CN  712   2.009   0.011   2.223 -0.2267  0.1081  0.0758
  713PAM     CN  713   2.307   2.644   4.362 -0.0497  0.1765  0.2864
  714PAM     CN  714   0.476   3.302   3.258  0.0560 -0.2990  0.1917
  715PAM     CN  715   3.379   0.594   4.343  0.2892 -0.2294 -0.2250
  716PAM     CN  716   5.612   3.284   6.080  0.0906  0.1499  0.1012
  717PAM     CN  717   4.442   2.587   2.914 -0.1147  0.0149  0.2067
  718PAM     CN  718   6.335   3.139   0.570 -0.0533  0.1379 -0.0024
  719PAM     CN  719   3.279   0.518   1.173 -0.0512 -0.2505 -0.0904
  720PAM     CN  720   0.141   6.184   1.858  0.1225  0.0634  0.1698
  721PAM     CN  721   3.999   1.615   3.137 -0.1237  0.1702  0.1227
  722PAM     CN  722   5.030   2.606   3.152  0.0180  0.3755  0.1309
  723PAM     CN  723   0.722   6.155   2.823 -0.0617  0.0573  0.4517
  724PAM     CN  724   4.476   4.349   6.093 -0.0357  0.0857  0.2143
  725PAM     CN  725   3.838   2.371   2.488 -0.2428 -0.2833  0.3541
  726PAM     CN  726   3.070   3.392   1.048  0.2802 -0.2187  0.1636
  727PAM     CN  727   4.476   0.290   4.662  0.0381  0.2512  0.3751
  728PAM     CN  728   5.126   4.256   4.668  0.0859 -0.0042  0.0659
  729PAM     CN  729   2.994   4.444   1.865 -0.1789 -0.2146 -0.0632
  730PAM     CN  730   0.578   2.989   2.753  0.4261 -0.0991 -0.0732
  731PAM     CN  731   3.576   6.359   1.614 -0.0246  0.0819 -0.1382
  732PAM     CN  732   0.066   2.466   5.291  0.0335  0.0460  0.1306
  733PAM     CN  733   0.741   2.088   1.744 -0.0692 -0.0190  0.0239
  734PAM     CN  734   1.420   1.269   4.632  0.2194 -0.2133 -0.3194
  735PAM     CN  735   2.004   4.577   3.812  0.2100  0.0435 -0.1899
  736PAM     CN  736   1.458   3.217   5.765 -0.1529 -0.0597 -0.1411
  737PAM     CN  737   0.107   0.383   5.837  0.0143  0.1239 -0.0018
  738PAM     CN  738   3.979   6.221   5.508 -0.0848  0.0411 -0.3168
  739PAM     CN  739   4.409   2.030   5.404  0.0331  0.1473 -0.2543
  740PAM     CN  740   0.522   4.749   0.384 -0.0202 -0.0264 -0.2638
  741PAM     CN  741   0.906   5.466   4.399 -0.0198  0.1768 -0.0611
  742PAM     CN  742   2.080   3.830   3.155  0.1823 -0.2507  0.2048
  743PAM     CN  743   5.376   4.982   2.130 -0.1374  0.1531 -0.1382
  744PAM     CN  744   4.656   5.851   1.241  0.0704 -0.0568 -0.5445
  745PAM     CN  745   3.193   5.347   0.081  0.1997 -0.0597  0.1587
  746PAM     CN  746   4.461   4.013   2.284  0.1305  0.0046  0.1291
  747PAM     CN  747   2.818   4.644   2.347 -0.0301  0.0394 -0.1203
  748PAM     CN  748   6.175   1.701   0.281  0.1835  0.1137  0.1589
  749PAM     CN  749   5.105   4.177   5.186  0.0139 -0.2733  0.0927
  750PAM     CN  750   4.515   5.382   0.031  0.1956 -0.1864  0.0866
  751PAM     CN  751   3.716   0.471   3.846 -0.0606 -0.1285 -0.0716
  752PAM     CN  752   2.169   4.775   2.781  0.0946  0.2076 -0.1819
  753PAM     CN  753   0.411   2.978   4.575  0.1357  0.0773  0.2609
  754PAM     CN  754   1.625   6.364   0.682  0.0058  0.2514  0.1385
  755PAM     CN  755   0.491   2.261   5.335  0.2071  0.0793 -0.3170
  756PAM     CN  756   5.618   1.035   0.895 -0.0314  0.1200 -0.0395
  757PAM     CN  757   1.229   5.233   5.205  0.1442 -0.0286 -0.0996
  758PAM     CN  758   2.635   4.236   0.190  0.0383  0.1979 -0.3969
  759PAM     CN  759   2.872   0.726   0.981  0.2109  0.0286  0.2024
  760PAM     CN  760   4.290   5.395   5.023 -0.1913 -0.1528 -0.1273
  761PAM     CN  761   4.407   3.280   4.576 -0.0920  0.3796  0.0320
  762PAM     CN  762   3.772   5.490   6.240  0.5268 -0.0243  0.0366
  763PAM     CN  763   3.391   6.169   3.138 -0.1359 -0.4595  0.0547
  764PAM     CN  764   6.293   6.408   0.713 -0.1110  0.1359  0.1193
  765PAM     CN  765   4.488   1.396   5.615 -0.0450 -0.0699  0.0048
  766PAM     CN  766   0.678   3.564   1.873  0.1292 -0.0013 -0.3508
  767PAM     CN  767   4.863   0.958   3.626 -0.2469 -0.1211 -0.1878
  768PAM     CN  768   0.512   5.593   4.660  0.0960 -0.2173 -0.1486
  769PAM     CN  769   3.370   2.792   2.663  0.0232 -0.5210  0.0986
  770PAM     CN  770   2.624   1.994   3.342 -0.0328 -0.0235  0.2040
  771PAM     CN  771   3.849   6.407   2.381  0.0669 -0.2460 -0.0527
  772PAM     CN  772   1.130   2.348   1.326  0.2310  0.1424  0.1803
  773PAM     CN  773   2.386   1.115   1.777 -0.0969 -0.0466 -0.0363
  774PAM     CN  774   2.828   0.507   1.866 -0.1022 -0.2217  0.0184
  775PAM     CN  775   5.458   0.438   0.714 -0.1076 -0.0315  0.0867
  776PAM     CN  776   2.333   0.646   3.205 -0.0941 -0.1188 -0.1809
  777PAM     CN  777   0.472   5.602   3.844 -0.2010  0.3170  0.0365
  778PAM     CN  778   6.247   0.728   5.615  0.0373 -0.0529 -0.0567
  779PAM     CN  779   6.456   1.257   5.635 -0.1620  0.1372  0.0590
  780PAM     CN  780   0.389   2.841   4.104  0.0818  0.1296 -0.0529
  781PAM     CN  781   0.129   5.072   0.407 -0.4465  0.0793 -0.3186
  782PAM     CN  782   3.386   2.284   4.386  0.2826  0.0652 -0.0292
  783PAM     CN  783   1.972   3.054   4.515 -0.0371  0.2412 -0.2461
  784PAM     CN  784   2.006   3.417   0.029 -0.2397  0.0460 -0.0274
  785PAM     CN  785   1.775   3.831   6.281 -0.1601 -0.3404  0.3021
  786PAM     CN  786   3.028   5.976   5.090  0.0527 -0.1245 -0.0112
  787PAM     CN  787   1.254   0.972   3.947  0.3453  0.0205  0.1995
  788PAM     CN  788   3.567   4.495   3.365  0.1381  0.0433  0.0090
  789PAM     CN  789   3.258   4.687   3.687  0.2852 -0.3573 -0.0834
  790PAM     CN  790   3.727   1.356   4.654 -0.2142  0.0611  0.1101
  791PAM     CN  791   4.178   1.724   3.944 -0.1805  0.1804  0.0208
  792PAM     CN  792   2.159   5.336   1.196 -0.1182 -0.0806  0.2416
  793PAM     CN  793   5.275   4.724   1.267  0.2033  0.0614  0.1057
  794PAM     CN  794   6.204   4.281   0.684  0.0962 -0.3013  0.0754
  795PAM     CN  795   1.606   4.395   0.177 -0.1169  0.0880 -0.0260
  796PAM     CN  796   1.323   5.149   0.216 -0.2467  0.1638  0.0597
  797PAM     CN  797   1.543   0.743   4.472  0.0752 -0.0683  0.0946
  798PAM     CN  798   4.084   3.065   5.434  0.0946 -0.0109 -0.2191
  799PAM     CN  799   5.843   6.343   2.211 -0.1518 -0.2202 -0.0070
  800PAM     CN  800   1.605   3.106   0.898 -0.0527 -0.0994 -0.0057
  801PAM     CN  801   1.202   3.594   3.401 -0.0861 -0.1632 -0.1700
  802PAM     CN  802   2.523   3.851   4.653 -0.0287 -0.1252  0.0944
  803PAM     CN  803   6.415   1.884   1.391  0.0937 -0.3563 -0.1192
  804PAM     CN  804   0.100   4.071   4.573 -0.3417 -0.0212  0.0466
  805PAM     CN  805   6.378   2.728   2.759 -0.0584 -0.0680  0.2018
  806PAM     CN  806   5.249   3.405   2.595  0.0287 -0.0825  0.0249
  807PAM     CN  807   4.973   6.103   1.470  0.3233  0.1502 -0.3147
  808PAM     CN  808   4.628   3.921   6.416  0.8719  0.0472  0.0039
  809PAM     CN  809   2.989   4.106   2.846 -0.1022 -0.2316 -0.0143
  810PAM     CN  810   6.327   4.367   5.526 -0.1023 -0.0518  0.1240
  811PAM     CN  811   1.832   6.435   4.398 -0.2273  0.2992 -0.0719
  812PAM     CN  812   2.294   4.279   3.287  0.1055 -0.0891  0.0109
  813PAM     CN  813   0.661   1.689   2.239  0.1292  0.1677  0.1544
  814PAM     CN  814   2.706   0.607   3.587 -0.1254  0.0573  0.0350
  815PAM     CN  815   2.773   0.103   4.280 -0.0994  0.1390 -0.0721
  816PAM     CN  816   0.911   0.537   2.964  0.0579 -0.0349  0.1946
  817PAM     CN  817   5.165   2.434   4.891  0.0184  0.1887 -0.0331
  818PAM     CN  818   2.903   1.070   1.842 -0.0946  0.1011 -0.1013
  819PAM     CN  819   2.278   1.007   2.488 -0.3730  0.1584 -0.2219
  820PAM     CN  820   1.461   3.690   5.968 -0.0417  0.1822  0.0992
  821PAM     CN  821   0.206   1.516   2.118 -0.0720 -0.3036 -0.1949
  822PAM     CN  822   4.871   4.856   2.157 -0.0556  0.0924 -0.2751
  823PAM     CN  823   6.417   0.029   3.911  0.4320  0.1102  0.0823
  824PAM     CN  824   5.722   2.850   2.532  0.3550  0.0328  0.1212
  825PAM     CN  825   3.598   6.175   0.253 -0.0889 -0.0625 -0.1391
  826PAM     CN  826   6.259   1.346   1.339  0.1253  0.2533 -0.0344
  827PAM     CN  827   5.759   5.360   1.978  0.1707 -0.1812  0.3424
  828PAM     CN  828   5.387   4.243   5.739 -0.0231  0.1585  0.0605
  829PAM     CN  829   1.320   2.472   5.815 -0.0487 -0.1052  0.1042
  830PAM     CN  830   0.247   5.437   5.623  0.3161  0.1689  0.1157
  831PAM     CN  831   5.356   4.075   6.327  0.2117  0.0010 -0.0656
  832PAM     CN  832   2.921   5.515   5.027  0.1683 -0.1900  0.1737
  833PAM     CN  833   5.975   1.796   3.384 -0.0809  0.3400  0.0494
  834PAM     CN  834   3.758   3.652   2.543 -0.2446  0.2495 -0.1830
  835PAM     CN  835   1.380   5.434   5.747 -0.3650  0.1385 -0.1776
  836PAM     CN  836   6.236   3.592   2.194  0.1413  0.0293 -0.0725
  837PAM     CN  837   1.038   1.396   6.458 -0.4925  0.0983 -0.2297
  838PAM     CN  838   1.921   1.932   6.144 -0.2738  0.2969 -0.2915
  839PAM     CN  839   2.820   1.477   6.147 -0.1022  0.2598  0.0844
  840PAM     CN  840   6.140   0.378   3.639 -0.2972 -0.1624 -0.0257
  841PAM     CN  841   3.879   0.762   4.458  0.0554 -0.2633  0.3045
  842PAM     CN  842   5.293   0.837   1.852  0.1604 -0.0730  0.2525
  843PAM     CN  843   0.740   5.704   3.046  0.2700  0.2448  0.0589
  844PAM     CN  844   0.528   0.827   1.314  0.1658  0.0874  0.0621
  845PAM     CN  845   5.424   2.097   2.415 -0.1876 -0.0489  0.1182
  846PAM     CN  846   1.102   0.436   1.464  0.3315  0.1729  0.2714
  847PAM     CN  847   1.216   4.340   4.918 -0.3838  0.1155 -0.0727
  848PAM     CN  848   0.141   4.497   0.250 -0.0770 -0.0820  0.2480
  849PAM     CN  849   5.724   6.300   5.741  0.1014 -0.0848  0.3676
  850PAM     CN  850   5.475   2.807   3.293  0.2012  0.0212 -0.2738
  851PAM     CN  851   3.847   2.649   3.687  0.0408  0.0284 -0.2414
  852PAM     CN  852   2.459   3.700   3.514 -0.1423 -0.1185 -0.0078
  853PAM     CN  853   1.521   4.764   0.502 -0.0447 -0.1871  0.1100
  854PAM     CN  854   5.928   0.486   0.147  0.4021 -0.0263 -0.2021
  855PAM     CN  855   4.203   3.068   3.693  0.1928 -0.0115  0.1543
  856PAM     CN  856   3.043   1.407   3.281 -0.0627 -0.0660  0.0754
  857PAM     CN  857   5.744   0.223   2.797 -0.0717 -0.0851 -0.4068
  858PAM     CN  858   4.462   1.477   2.926  0.0028 -0.0639  0.0912
  859PAM     CN  859   2.871   5.473   5.515 -0.0013 -0.0367  0.1197
  860PAM     CN  860   3.309   0.674   0.664 -0.1250 -0.5832 -0.1231
  861PAM     CN  861   2.087   1.154   0.102  0.0807  0.3159  0.0293
  862PAM     CN  862   1.292   2.072   2.636  0.1967  0.2796 -0.0034
  863PAM     CN  863   3.732   3.715   3.095 -0.3465 -0.1115 -0.0268
  864PAM     CN  864   2.523   0.166   3.097 -0.1014 -0.0677  0.2942
  865PAM     CN  865   6.422   5.871   6.322 -0.0597  0.0662  0.0395
  866PAM     CN  866   3.738   0.144   5.335  0.0704  0.1604  0.2038
  867PAM     CN  867   0.146   3.511   5.431  0.0643 -0.2148  0.2499
  868PAM     CN  868   5.211   6.459   3.897 -0.0304  0.1065 -0.1381
  869PAM     CN  869   2.349   0.904   0.489 -0.1907 -0.0426 -0.2854
  870PAM     CN  870   2.126   1.887   2.099 -0.1250 -0.0714  0.0669
  871PAM     CN  871   2.630   5.812   3.709  0.1744  0.3950  0.0306
  872PAM     CN  872   2.410   2.411   5.352  0.2573 -0.0876  0.0317
  873PAM     CN  873   5.203   0.938   0.559  0.1257 -0.0177 -0.0804
  874PAM     CN  874   2.048   4.554   0.472  0.2760 -0.0517  0.4723
  875PAM     CN  875   0.762   2.982   4.953  0.3184  0.3276  0.2868
  876PAM     CN  876   6.344   1.928   4.328  0.2776 -0.3380 -0.1041
  877PAM     CN  877   2.107   5.949   3.512  0.0417  0.0801 -0.2285
  878PAM     CN  878   4.177   1.412   6.065 -0.0346  0.1882  0.2831
  879PAM     CN  879   6.056   3.900   0.372  0.1775  0.0592 -0.1498
  880PAM     CN  880   5.155   3.135   3.694  0.1309  0.0638 -0.5226
  881PAM     CN  881   2.641   0.336   0.108 -0.0930 -0.2078  0.2373
  882PAM     CN  882   0.715   4.297   3.198  0.0932 -0.1744 -0.2019
  883PAM     CN  883   6.104   5.650   3.692 -0.2319  0.1859  0.0298
  884PAM     CN  884   0.752   0.940   1.793 -0.0563 -0.1000  0.3752
  885PAM     CN  885   1.938   1.389   1.566  0.0908  0.1076  0.2035
  886PAM     CN  886   2.261   3.857   2.659 -0.0524  0.1351  0.0651
  887PAM     CN  887   0.742   2.543   5.747 -0.2601 -0.0072  0.1867
  888PAM     CN  888   1.226   5.967   3.713 -0.0769  0.1307 -0.2450
  889PAM     CN  889   5.231   2.138   5.370 -0.1715 -0.0964 -0.1064
  890PAM     CN  890   6.299   5.677   5.250  0.0521 -0.3135 -0.3908
  891PAM     CN  891   5.382   0.946   4.293  0.2002 -0.0603  0.3499
  892PAM     CN  892   6.256   1.277   0.448  0.0274  0.1321 -0.2469
  893PAM     CN  893   0.304   4.117   2.672 -0.1123 -0.0429 -0.0730
  894PAM     CN  894   0.885   0.621   3.486 -0.0166 -0.0389  0.1435
  895PAM     CN  895   2.274   5.355   2.430 -0.1976  0.0323  0.0419
  896PAM     CN  896   1.236   6.456   2.302  0.2599 -0.0428  0.0256
  897PAM     CN  897   3.510   6.139   5.258 -0.0599 -0.4164  0.0600
  898PAM     CN  898   5.884   4.966   0.939 -0.1168  0.0841  0.2750
  899PAM     CN  899   6.175   2.404   4.167  0.1006  0.0958  0.0560
  900PAM     CN  900   4.528   2.111   1.079 -0.2037  0.0836 -0.0123
  901PAM     CN  901   3.651   4.679   5.383  0.0701 -0.0740  0.1693
  902PAM     CN  902   2.981   0.135   6.238 -0.0815 -0.2295  0.0141
  903PAM     CN  903   4.919   5.663   4.331  0.2061  0.2640  0.1879
  904PAM     CN  904   2.485   4.096   3.772 -0.1893 -0.0420  0.1779
  905PAM     CN  905   6.231   1.438   2.708  0.1882 -0.0596 -0.0024
  906PAM     CN  906   2.898   0.165   5.769  0.1968 -0.0495  0.0873
  907PAM     CN  907   2.353   0.734   0.034  0.0367 -0.2601  0.4851
  908PAM     CN  908   1.995   6.460   0.379 -0.1026 -0.1202 -0.0675
  909PAM     CN  909   5.686   3.117   1.862 -0.2135  0.1428  0.2051
  910PAM     CN  910   2.109   0.646   5.991 -0.0091  0.1803 -0.0460
  911PAM     CN  911   5.130   1.765   2.100 -0.1204  0.1192 -0.0324
  912PAM     CN  912   0.102   6.249   0.182 -0.2577  0.1912  0.2774
  913PAM     CN  913   0.898   3.302   3.009  0.0594  0.1703  0.1404
  914PAM     CN  914   0.146   3.968   5.683  0.0207 -0.2212 -0.2016
  915PAM     CN  915   3.933   1.288   0.081 -0.2923  0.1476  0.0566
  916PAM     CN  916   0.371   6.172   6.229 -0.1339 -0.0965  0.1122
  917PAM     CN  917   5.036   3.897   1.662  0.2508  0.4285 -0.2015
  918PAM     CN  918   0.276   3.638   4.421  0.2155  0.1484 -0.2061
  919PAM     CN  919   2.520   1.940   4.465  0.0582 -0.4495 -0.0196
  920PAM     CN  920   5.813   1.381   1.757 -0.0832  0.1647 -0.0518
  921PAM     CN  921   3.066   2.558   0.168 -0.2286 -0.1182 -0.0112
  922PAM     CN  922   0.697   4.993   3.900  0.0441  0.3844  0.3060
  923PAM     CN  923   0.240   5.421   1.305  0.0164 -0.0007  0.0137
  924PAM     CN  924   3.073   3.201   2.617  0.2503  0.3653 -0.1668
  925PAM     CN  925   1.224   1.772   6.129 -0.2410  0.2308  0.0162
  926PAM     CN  926   6.011   2.813   4.519  0.0306 -0.0080  0.2291
  927PAM     CN  927   1.399   2.654   0.007  0.0054  0.1880 -0.0264
  928PAM     CN  928   0.804   2.741   3.195  0.0032 -0.2185  0.0490
  929PAM     CN  929   2.137   2.559   2.931 -0.0581 -0.0059 -0.0829
  930PAM     CN  930   3.569   4.356   0.565  0.1809 -0.0838  0.0695
  931PAM     CN  931   1.100   0.383   6.412  0.0664  0.0766 -0.0178
  932PAM     CN  932   1.492   1.895   5.017  0.0448 -0.0597 -0.1784
  933PAM     CN  933   0.815   5.683   6.009 -0.0880 -0.1608 -0.2296
  934PAM     CN  934   2.523   2.948   4.659 -0.0185 -0.3103  0.0272
  935PAM     CN  935   2.849   3.746   1.936 -0.0793 -0.0697 -0.1988
  936PAM     CN  936   5.443   2.007   5.795  0.1944  0.0063  0.2366
  937PAM     CN  937   4.835   4.514   2.818  0.3814  0.0476 -0.1991
  938PAM     CN  938   1.649   0.503   6.198  0.2442 -0.2737 -0.2333
  939PAM     CN  939   6.374   1.348   4.278  0.2347  0.1076  0.2904
  940PAM     CN  940   0.531   3.240   2.251 -0.1409  0.0438  0.0988
  941PAM     CN  941   1.843   5.095   3.033  0.2995  0.1199  0.1951
  942PAM     CN  942   0.917   4.903   0.114  0.0683 -0.2064  0.2406
  943PAM     CN  943   4.754   2.649   2.528 -0.0727  0.1224 -0.1239
  944PAM     CN  944   3.644   5.015   3.548 -0.2204  0.0836 -0.0142
  945PAM     CN  945   3.415   5.786   0.043 -0.1540 -0.2148 -0.2539
  946PAM     CN  946   5.389   2.588   3.743 -0.1552  0.0180  0.0224
  947PAM     CN  947   3.076   1.083   2.409 -0.1374 -0.1458  0.0207
  948PAM     CN  948   5.446   6.369   4.916 -0.0712  0.2306 -0.1771
  949PAM     CN  949   5.228   1.394   5.064 -0.1354  0.0787  0.0440
  950PAM     CN  950   4.024   0.284   0.459 -0.0709  0.1225  0.0542
  951PAM     CN  951   5.115   4.209   1.304 -0.1340 -0.0209  0.2528
  952PAM     CN  952   0.634   1.634   6.084  0.1988 -0.2278 -0.1590
  953PAM     CN  953   5.425   4.879   4.566 -0.0022  0.0797 -0.1063
  954PAM     CN  954   4.508   0.778   6.169 -0.1438 -0.0143  0.1261
  955PAM     CN  955   5.259   2.374   4.356 -0.5723 -0.0385  0.0822
  956PAM     CN  956   2.955   4.285   6.211  0.0575  0.0501  0.1768
  957PAM     CN  957   5.841   0.599   1.036  0.0621 -0.2307  0.1208
  958PAM     CN  958   0.008   1.902   5.206 -0.1679 -0.0207  0.0473
  959PAM     CN  959   3.727   0.550   0.184  0.0166 -0.2857 -0.0656
  960PAM     CN  960   0.988   3.096   5.629 -0.1226 -0.3132  0.0064
  961PAM     CN  961   0.487   1.941   4.895 -0.0833 -0.3135  0.1800
  962PAM     CN  962   6.001   5.283   1.494  0.0763 -0.1667 -0.2098
  963PAM     CN  963   4.473   4.083   2.785 -0.1043 -0.1775  0.2665
  964PAM     CN  964   5.863   4.915   2.356 -0.2780 -0.0549  0.4286
  965PAM     CN  965   5.690   5.175   5.514  0.0931  0.1871  0.3230
  966PAM     CN  966   3.320   2.683   0.644 -0.1242 -0.0997  0.0865
  967PAM     CN  967   1.032   3.925   0.297  0.0624 -0.1991 -0.2683
  968PAM     CN  968   4.236   6.194   0.351 -0.0331  0.0095 -0.0860
  969PAM     CN  969   0.020   3.001   5.366 -0.2061  0.2745 -0.0119
  970PAM     CN  970   6.124   3.269   5.210  0.1816  0.0194 -0.2489
  971PAM     CN  971   5.039   3.645   2.240  0.1130  0.1770 -0.1042
  972PAM     CN  972   1.529   1.231   0.788 -0.1321 -0.1630  0.0390
  973PAM     CN  973   2.534   4.788   4.336  0.4963 -0.3111  0.3415
  974PAM     CN  974   5.524   1.800   3.650  0.1062 -0.1948 -0.0296
  975PAM     CN  975   1.316   4.286   1.416 -0.1769  0.0560 -0.0449
  976PAM     CN  976   0.914   2.214   2.222 -0.0305 -0.2105 -0.0260
  977PAM     CN  977   4.782   4.211   5.566  0.0201 -0.0649  0.0629
  978PAM     CN  978   0.041   2.648   4.554  0.0556 -0.3811  0.1337
  979PAM     CN  979   6.317   4.137   2.211 -0.3191 -0.0729  0.0648
  980PAM     CN  980   3.024   1.977   4.516  0.1152  0.0421 -0.2176
  981PAM     CN  981   4.917   2.204   2.702  0.0198 -0.1069  0.0661
  982PAM     CN  982   5.603   0.076   0.348 -0.2690 -0.0048  0.0901
  983PAM     CN  983   5.058   5.714   5.292 -0.1065  0.2433 -0.2828
  984PAM     CN  984   2.901   6.339   3.084 -0.0604  0.2335 -0.3465
  985PAM     CN  985   5.685   0.410   5.657  0.1606  0.0970 -0.1342
  986PAM     CN  986   4.863   4.913   0.811  0.0404 -0.1813  0.1135
  987PAM     CN  987   5.706   1.194   2.459  0.1081  0.2087  0.0113
  988PAM     CN  988   3.637   2.265   0.719 -0.0362  0.0526 -0.1530
  989PAM     CN  989   6.084   0.452   6.079 -0.0408 -0.0246 -0.2274
  990PAM     CN  990   5.106   3.767   4.848  0.0979 -0.2723 -0.1361
  991PAM     CN  991   2.804   3.462   4.389 -0.2870  0.0706 -0.2005
  992PAM     CN  992   6.340   5.034   2.333  0.2659 -0.2213 -0.0012
  993PAM     CN  993   3.469   2.621   6.346 -0.1043 -0.1816  0.3200
  994PAM     CN  994   2.249   1.899   5.119 -0.3275 -0.1002 -0.1863
  995PAM     CN  995   4.874   5.771   0.782 -0.0499 -0.1360  0.0398
  996PAM     CN  996   1.072   6.042   1.982 -0.2342  0.0540  0.3143
  997PAM     CN  997   4.152   4.954   4.103 -0.1989 -0.1070  0.0990
  998PAM     CN  998   2.295   3.328   4.876  0.0291  0.1646 -0.0810
  999PAM     CN  999   0.287   1.091   0.494  0.1140 -0.1919 -0.1670
 1000PAM     CN 1000   4.488   6.264   4.592  0.3881  0.0457  0.2288
 1001PAM     CN 1001   2.572   3.938   3.041 -0.3446 -0.0097  0.0073
 1002PAM     CN 1002   2.601   5.877   5.469  0.0783  0.3270 -0.2137
 1003PAM     CN 1003   1.514   2.778   4.001  0.0927  0.0042 -0.0670
 1004PAM     CN 1004   3.175   3.094   3.088 -0.3303 -0.0305 -0.1059
 1005PAM     CN 1005   6.371   3.175   4.493 -0.0137 -0.1071  0.0340
 1006PAM     CN 1006   2.548   4.047   5.503 -0.0194 -0.0275 -0.0015
 1007PAM     CN 1007   3.419   5.765   3.782 -0.0770  0.0222  0.1310
 1008PAM     CN 1008   2.599   1.366   2.154  0.0269 -0.2319 -0.1100
 1009PAM     CN 1009   0.552   2.142   0.584 -0.2655  0.0427  0.2097
 1010PAM     CN 1010   0.551   6.447   3.515 -0.0294  0.2372 -0.2321
 1011PAM     CN 1011   1.530   0.586   1.650  0.0261  0.1480 -0.0358
 1012PAM     CN 1012   1.788   0.875   0.477 -0.0961  0.2084 -0.2590
 1013PAM     CN 1013   4.143   4.104   5.080 -0.0405 -0.0249 -0.0513
 1014PAM     CN 1014   4.369   5.849   2.848 -0.1225  0.2096  0.0846
 1015PAM     CN 1015   0.663   0.535   2.318  0.2671  0.0809 -0.2202
 1016PAM     CN 1016   0.729   0.323   4.734 -0.1998  0.2973 -0.1206
 1017PAM     CN 1017   0.529   2.698   3.640  0.3919  0.1628  0.1700
 1018PAM     CN 1018   3.756   4.340   4.852  0.1095  0.3400  0.3125
 1019PAM     CN 1019   0.706   3.409   0.723 -0.2831 -0.0614 -0.0557
 1020PAM     CN 1020   0.827   1.211   1.379  0.2732 -0.0969 -0.1971
 1021PAM     CN 1021   4.224   5.014   4.566 -0.0946 -0.0014 -0.1613
 1022PAM     CN 1022   1.471   5.445   3.831 -0.1623  0.0612 -0.1556
 1023PAM     CN 1023   2.939   0.203   3.447  0.2217 -0.1987 -0.0070
 1024PAM     CN 1024   3.924   1.694   5.027 -0.1717  0.2370 -0.2495
 1025PAM     CN 1025   0.557   4.505   2.406 -0.1464 -0.1564  0.0747
 1026PAM     CN 1026   4.493   1.169   5.203 -0.0418  0.1604  0.0996
 1027PAM     CN 1027   5.224   2.986   5.842 -0.0307 -0.2129 -0.2636
 1028PAM     CN 1028   5.392   6.405   4.380 -0.2417  0.0190 -0.0657
 1029PAM     CN 1029   1.508   4.338   3.217  0.0294  0.2891 -0.0619
 1030PAM     CN 1030   3.271   4.957   2.405 -0.2104  0.0202  0.2847
 1031PAM     CN 1031   0.315   4.374   5.449  0.0470  0.1214 -0.0269
 1032PAM     CN 1032   4.067   3.641   1.000  0.4567 -0.0688 -0.1456
 1033PAM     CN 1033   4.911   2.746   6.407  0.1491  0.4429 -0.2854
 1034PAM     CN 1034   5.396   4.316   2.773  0.3493 -0.2685  0.0515
 1035PAM     CN 1035   4.726   3.443   4.931  0.1802 -0.0413 -0.0787
 1036PAM     CN 1036   6.388   1.880   2.257 -0.1726  0.0093  0.1613
 1037PAM     CN 1037   1.201   5.129   3.579 -0.1804  0.2321  0.0297
 1038PAM     CN 1038   0.389   5.915   2.234 -0.0900  0.0960  0.0096
 1039PAM     CN 1039   4.873   2.879   3.969  0.0125 -0.0893 -0.1681
 1040PAM     CN 1040   4.841   5.935   2.039  0.0055 -0.0315 -0.6076
 1041PAM     CN 1041   1.966   4.551   1.122  0.1102  0.1036 -0.2600
 1042PAM     CN 1042   3.685   2.860   4.533 -0.3554 -0.0094 -0.1297
 1043PAM     CN 1043   5.488   5.197   1.548 -0.0081  0.0143  0.1710
 1044PAM     CN 1044   0.487   3.850   6.078 -0.1200  0.0662  0.0998
 1045PAM     CN 1045   1.859   4.031   0.859 -0.0019 -0.0643 -0.2606
 1046PAM     CN 1046   0.637   1.245   3.427  0.1865 -0.1400  0.0887
 1047PAM     CN 1047   6.072   1.451   2.223  0.0841 -0.0005 -0.2227
 1048PAM     CN 1048   1.606   1.309   5.141 -0.1944 -0.2859 -0.0104
 1049PAM     CN 1049   4.833   3.214   2.485 -0.1740 -0.0317 -0.1525
 1050PAM     CN 1050   3.314   5.645   5.345  0.0344  0.2829  0.1705
 1051PAM     CN 1051   6.128   6.190   5.988  0.0136 -0.2851 -0.0166
 1052PAM     CN 1052   0.805   1.448   2.996  0.0399  0.0689  0.0514
 1053PAM     CN 1053   2.514   6.205   2.199 -0.2278 -0.0127  0.2379
 1054PAM     CN 1054   5.226   5.434   2.904  0.3560 -0.0454  0.3055
 1055PAM     CN 1055   1.512   4.479   1.001  0.0834  0.1399 -0.0417
 1056PAM     CN 1056   0.981   1.477   5.754  0.1314  0.0071 -0.1502
 1057PAM     CN 1057   1.823   0.995   1.834 -0.2277 -0.2562 -0.0592
 1058PAM     CN 1058   3.255   1.682   2.853  0.1033 -0.1982  0.0411
 1059PAM     CN 1059   2.516   0.532   4.659  0.0895 -0.0467  0.2311
 1060PAM     CN 1060   3.377   6.421   3.647  0.0657 -0.0114 -0.1914
 1061PAM     CN 1061   5.703   4.052   3.746 -0.4845 -0.1204 -0.0463
 1062PAM     CN 1062   5.414   4.517   4.209 -0.3855  0.1949 -0.0711
 1063PAM     CN 1063   1.102   0.535   1.955 -0.0916 -0.2929  0.1453
 1064PAM     CN 1064   0.096   6.325   5.790  0.1094 -0.0724  0.2396
 1065PAM     CN 1065   0.578   4.833   3.387  0.0546  0.1799  0.0835
 1066PAM     CN 1066   0.036   0.007   5.220 -0.1847  0.0997  0.1057
 1067PAM     CN 1067   4.429   3.105   1.194 -0.1539  0.0013  0.4322
 1068PAM     CN 1068   6.406   3.564   1.362  0.0184  0.2124  0.2058
 1069PAM     CN 1069   0.624   5.314   1.993 -0.1073 -0.1149 -0.1782
 1070PAM     CN 1070   1.841   2.304   5.863  0.0430 -0.2022 -0.2250
 1071PAM     CN 1071   5.703   1.486   4.856  0.2609 -0.2553  0.1589
 1072PAM     CN 1072   4.008   4.684   6.168 -0.0252 -0.2764  0.4177
 1073PAM     CN 1073   4.132   4.094   6.345  0.2635  0.2426  0.1342
 1074PAM     CN 1074   5.524   0.389   4.107  0.1230 -0.0814  0.1085
 1075PAM     CN 1075   5.295   3.237   5.388  0.1314 -0.3272  0.3834
 1076PAM     CN 1076   3.999   4.126   2.551 -0.0296  0.2220  0.1004
 1077PAM     CN 1077   4.536   2.713   1.506 -0.0152  0.2059  0.1847
 1078PAM     CN 1078   3.427   5.913   0.928  0.1822 -0.0283 -0.0069
 1079PAM     CN 1079   3.595   5.405   1.687 -0.0604 -0.0923  0.1750
 1080PAM     CN 1080   4.896   0.593   5.028 -0.1312 -0.1224  0.1128
 1081PAM     CN 1081   5.859   4.203   2.825  0.2146 -0.2901  0.0691
 1082PAM     CN 1082   0.583   4.763   2.906 -0.1247  0.1966 -0.2286
 1083PAM     CN 1083   2.746   5.789   2.277  0.0521 -0.1185  0.0337
 1084PAM     CN 1084   5.912   2.164   2.371 -0.3030 -0.4368 -0.1082
 1085PAM     CN 1085   4.974   5.164   1.190  0.1385  0.2594  0.2761
 1086PAM     CN 1086   1.768   0.959   6.268  0.1271  0.3979 -0.0673
 1087PAM     CN 1087   5.222   2.513   0.850 -0.2500 -0.0972 -0.1597
 1088PAM     CN 1088   5.224   4.478   0.746 -0.0503  0.0018  0.2047
 1089PAM     CN 1089   0.567   4.950   1.563  0.0473 -0.3048 -0.2411
 1090PAM     CN 1090   4.891   5.193   3.563  0.4145 -0.0814  0.1987
 1091PAM     CN 1091   3.542   1.764   4.678 -0.0577  0.0409 -0.1025
 1092PAM     CN 1092   2.367   0.266   5.435  0.1312  0.0554  0.1426
 1093PAM     CN 1093   2.152   5.137   1.923  0.0438 -0.0243  0.1940
 1094PAM     CN 1094   2.077   2.339   4.063 -0.2244 -0.3258 -0.2148
 1095PAM     CN 1095   4.444   2.861   0.746  0.0776 -0.2505 -0.0497
 1096PAM     CN 1096   4.680   3.263   0.499 -0.0321  0.1467  0.2998
 1097PAM     CN 1097   1.253   0.095   5.934 -0.3893  0.1848  0.0449
 1098PAM     CN 1098   5.185   5.291   0.306  0.1025 -0.0920  0.0521
 1099PAM     CN 1099   1.857   3.200   5.458  0.2434 -0.3308 -0.2748
 1100PAM     CN 1100   2.687   3.378   2.216 -0.0744 -0.3546  0.1234
 1101PAM     CN 1101   5.310   2.959   4.184 -0.1907  0.0725  0.1141
 1102PAM     CN 1102   2.935   0.774   4.537  0.2644 -0.1056  0.0140
 1103PAM     CN 1103   4.173   4.739   0.210 -0.0015 -0.2843  0.0863
 1104PAM     CN 1104   3.210   0.129   5.211  0.0333  0.0016 -0.0386
 1105PAM     CN 1105   5.054   2.298   0.257 -0.2299 -0.0899 -0.0041
 1106PAM     CN 1106   2.978   5.703   1.693 -0.1550 -0.2180 -0.0187
 1107PAM     CN 1107   3.472   3.000   1.254 -0.1833  0.2409 -0.0568
 1108PAM     CN 1108   4.323   1.139   0.511  0.1595 -0.2099 -0.0261
 1109PAM     CN 1109   5.818   3.965   2.315 -0.0694 -0.1631 -0.1444
 1110PAM     CN 1110   3.916   4.771   1.088 -0.0507  0.0994 -0.5917
 1111PAM     CN 1111   3.653   0.594   1.429 -0.3033 -0.1948 -0.1511
 1112PAM     CN 1112   2.179   1.291   5.422 -0.1572  0.1145 -0.3339
 1113PAM     CN 1113   3.126   5.364   2.051 -0.2284 -0.0484 -0.0315
 1114PAM     CN 1114   0.312   0.848   1.999 -0.0197 -0.2034 -0.1167
 1115PAM     CN 1115   5.025   3.670   0.123  0.2543 -0.2149  0.0865
 1116PAM     CN 1116   1.137   0.876   4.896 -0.1255 -0.1330  0.0959
 1117PAM     CN 1117   3.469   5.853   4.810 -0.0493  0.0805  0.1537
 1118PAM     CN 1118   1.178   2.986   6.059 -0.3519  0.0920  0.1731
 1119PAM     CN 1119   2.530   2.940   2.491  0.0499 -0.0259 -0.1506
 1120PAM     CN 1120   5.689   0.222   4.611  0.2465  0.1501 -0.1887
 1121PAM     CN 1121   2.465   1.507   3.950 -0.2665  0.0060  0.1380
 1122PAM     CN 1122   5.761   1.712   2.544 -0.0141  0.0558  0.1798
 1123PAM     CN 1123   5.381   1.257   2.029 -0.3238  0.2414  0.1403
 1124PAM     CN 1124   4.996   0.294   2.529  0.1005 -0.0464 -0.1483
 1125PAM     CN 1125   2.232   5.164   6.150  0.2367  0.1322 -0.2111
 1126PAM     CN 1126   5.733   4.365   6.046  0.1500 -0.5204 -0.4153
 1127PAM     CN 1127   3.992   2.483   4.273  0.1739 -0.2669  0.0773
 1128PAM     CN 1128   1.376   4.145   2.721  0.1196 -0.1772 -0.1974
 1129PAM     CN 1129   1.044   3.050   2.029 -0.1859 -0.0665 -0.0747
 1130PAM     CN 1130   4.948   1.525   1.342 -0.0616  0.3807  0.1661
 1131PAM     CN 1131   1.574   4.174   5.722  0.0172  0.3140  0.2759
 1132PAM     CN 1132   5.379   3.402   4.560 -0.2148 -0.2543 -0.1024
 1133PAM     CN 1133   5.844   4.514   4.619  0.0630  0.0499 -0.1035
 1134PAM     CN 1134   0.857   1.093   4.470 -0.0731 -0.0618 -0.2921
 1135PAM     CN 1135   5.245   1.791   2.760 -0.1542 -0.0035 -0.0428
 1136PAM     CN 1136   2.194   5.561   3.875  0.1406 -0.0043  0.1160
 1137PAM     CN 1137   5.410   0.741   2.332 -0.0004  0.0172  0.2714
 1138PAM     CN 1138   2.163   0.151   6.442 -0.2376 -0.0632 -0.0429
 1139PAM     CN 1139   5.716   5.687   2.767  0.0142 -0.0013 -0.1423
 1140PAM     CN 1140   3.086   2.187   6.273  0.3673  0.0329 -0.0599
 1141PAM     CN 1141   4.056   2.103   1.998  0.2492 -0.0112 -0.2427
 1142PAM     CN 1142   1.631   4.445   2.420 -0.1406  0.2989  0.0648
 1143PAM     CN 1143   1.787   0.111   3.072  0.0976 -0.2251 -0.1433
 1144PAM     CN 1144   0.421   1.964   2.917 -0.1327 -0.3567  0.0174
 1145PAM     CN 1145   3.830   5.751   0.629  0.0605  0.2519 -0.1456
 1146PAM     CN 1146   6.010   0.952   0.069 -0.0164  0.1249 -0.1218
 1147PAM     CN 1147   5.402   4.693   5.495 -0.2763 -0.1041  0.1848
 1148PAM     CN 1148   4.543   6.099   3.673  0.0564 -0.3194 -0.1643
 1149PAM     CN 1149   0.041   0.562   2.296 -0.1676  0.1228  0.0705
 1150PAM     CN 1150   6.161   5.249   5.619 -0.0927 -0.0618 -0.2373
 1151PAM     CN 1151   4.972   4.370   4.071 -0.3771  0.1160 -0.1601
 1152PAM     CN 1152   3.702   5.231   3.077 -0.3097  0.1998 -0.0193
 1153PAM     CN 1153   2.976   4.560   0.153 -0.1500  0.0234 -0.0959
 1154PAM     CN 1154   3.323   5.285   3.964 -0.0500 -0.2240  0.2629
 1155PAM     CN 1155   1.796   5.494   4.297 -0.2239 -0.3594  0.0047
 1156PAM     CN 1156   1.944   1.119   5.813  0.0876  0.0525 -0.2768
 1157PAM     CN 1157   1.470   1.091   0.201 -0.2825  0.0741  0.0842
 1158PAM     CN 1158   1.096   2.515   1.850  0.2581 -0.0302 -0.4417
 1159PAM     CN 1159   2.056   0.694   5.471  0.1214 -0.3167 -0.4065
 1160PAM     CN 1160   0.359   4.512   5.983 -0.1181 -0.1553 -0.0097
 1161PAM     CN 1161   5.128   0.037   1.689 -0.1749 -0.0401  0.0377
 1162PAM     CN 1162   4.601   1.296   4.597  0.1354 -0.1877 -0.0969
 1163PAM     CN 1163   3.384   2.748   4.957  0.3823 -0.2004  0.2710
 1164PAM     CN 1164   0.847   4.088   2.658 -0.0800  0.0784 -0.0848
 1165PAM     CN 1165   4.396   4.477   1.080  0.1200 -0.1074 -0.0705
 1166PAM     CN 1166   2.564   1.535   4.814 -0.0775  0.0060 -0.0714
 1167PAM     CN 1167   2.757   0.496   5.091  0.0640 -0.2645  0.0819
 1168PAM     CN 1168   0.892   6.459   1.651  0.0480  0.1200  0.0763
 1169PAM     CN 1169   4.089   5.648   1.333 -0.0189  0.3231  0.2246
 1170PAM     CN 1170   6.081   0.826   3.469 -0.0849 -0.2906  0.2258
 1171PAM     CN 1171   5.730   4.713   2.855  0.1403  0.0918 -0.2713
 1172PAM     CN 1172   1.508   4.558   3.655 -0.1973 -0.1027 -0.1425
 1173PAM     CN 1173   6.070   1.439   6.312  0.3017  0.1554 -0.1591
 1174PAM     CN 1174   3.521   3.579   1.056  0.0251 -0.0280  0.1845
 1175PAM     CN 1175   4.023   4.068   4.508  0.0284  0.3597  0.0220
 1176PAM     CN 1176   2.224   3.774   2.192 -0.0754  0.0882  0.0475
 1177PAM     CN 1177   3.044   0.541   2.334 -0.1702 -0.3178  0.2806
 1178PAM     CN 1178   0.084   4.405   5.016 -0.0858  0.3603  0.2870
 1179PAM     CN 1179   4.230   4.466   4.281 -0.0204  0.0678 -0.2691
 1180PAM     CN 1180   4.052   2.859   1.455  0.3186 -0.0494  0.1827
 1181PAM     CN 1181   2.719   0.547   6.103  0.1019  0.1378  0.0098
 1182PAM     CN 1182   0.886   3.723   1.168 -0.0242  0.1600  0.0647
 1183PAM     CN 1183   6.237   1.289   5.181  0.0739  0.3501 -0.0002
 1184PAM     CN 1184   2.502   3.327   0.845  0.1118 -0.1142  0.0954
 1185PAM     CN 1185   4.297   6.206   1.429 -0.2734  0.0638  0.3860
 1186PAM     CN 1186   1.138   0.909   0.585  0.2479  0.4316 -0.1570
 1187PAM     CN 1187   1.576   0.282   2.085 -0.0419  0.0590  0.1272
 1188PAM     CN 1188   5.034   3.314   1.055  0.1869  0.0687 -0.1202
 1189PAM     CN 1189   6.007   5.304   5.100  0.0430  0.0765 -0.0519
 1190PAM     CN 1190   4.436   4.959   1.195 -0.0545  0.0736  0.0255
 1191PAM     CN 1191   6.235   2.690   0.058  0.0242  0.1640  0.1617
 1192PAM     CN 1192   4.423   3.143   2.223 -0.1311  0.1180 -0.1640
 1193PAM     CN 1193   4.464   6.201   6.399 -0.0107 -0.2991  0.0322
 1194PAM     CN 1194   6.406   3.601   0.641 -0.1525 -0.1533  0.1524
 1195PAM     CN 1195   2.259   0.370   0.460  0.2071 -0.0806 -0.1015
 1196PAM     CN 1196   1.295   6.266   6.325 -0.1307  0.2082 -0.1511
 1197PAM     CN 1197   5.288   0.431   0.182  0.1154  0.0745  0.1369
 1198PAM     CN 1198   2.367   3.207   4.261  0.0943  0.2651 -0.1323
 1199PAM     CN 1199   4.938   0.958   1.408 -0.0544 -0.1736  0.3002
 1200PAM     CN 1200   2.612   2.462   3.092 -0.0481  0.1484 -0.0396
 1201PAM     CN 1201   3.054   6.241   2.558  0.2558 -0.0229 -0.0784
 1202PAM     CN 1202   0.271   1.914   1.004  0.2594 -0.5309  0.0511
 1203PAM     CN 1203   0.981   2.127   5.643  0.1538 -0.0109  0.1047
 1204PAM     CN 1204   5.551   3.799   1.352 -0.0581  0.1836 -0.1279
 1205PAM     CN 1205   5.046   0.549   6.195 -0.1918  0.3352  0.0636
 1206PAM     CN 1206   5.801   2.278   3.379 -0.4214 -0.1223 -0.2086
 1207PAM     CN 1207   3.364   0.189   3.185  0.0303  0.1525 -0.1973
 1208PAM     CN 1208   6.022   4.121   1.289 -0.1683 -0.2980  0.0990
 1209PAM     CN 1209   3.479   5.403   5.840  0.1828 -0.1139  0.1533
 1210PAM     CN 1210   2.435   4.869   1.069 -0.3924 -0.3210 -0.0572
 1211PAM     CN 1211   2.005   3.049   1.821 -0.2107  0.1417  0.1567
 1212PAM     CN 1212   4.932   3.979   2.685 -0.1381  0.0483 -0.0863
 1213PAM     CN 1213   2.634   2.571   1.657  0.1982 -0.2502 -0.0823
 1214PAM     CN 1214   4.601   6.314   1.866 -0.0026 -0.0002 -0.1328
 1215PAM     CN 1215   3.338   5.312   2.756  0.0223  0.0569  0.0008
 1216PAM     CN 1216   1.925   0.340   4.082 -0.1194  0.0180 -0.1847
 1217PAM     CN 1217   4.065   1.709   4.513  0.4059 -0.0766 -0.0428
 1218PAM     CN 1218   1.585   5.058   6.027  0.0984  0.2059  0.2348
 1219PAM     CN 1219   1.510   2.368   0.949 -0.1853  0.1880  0.0554
 1220PAM     CN 1220   4.603   2.486   4.743 -0.1306  0.0792 -0.3523
 1221PAM     CN 1221   0.846   4.412   1.655 -0.1228  0.0299  0.0599
 1222PAM     CN 1222   5.461   5.263   4.206  0.1616  0.1009  0.0546
 1223PAM     CN 1223   5.678   2.307   0.676 -0.2093  0.1452 -0.3694
 1224PAM     CN 1224   2.978   5.751   2.942 -0.0960 -0.0863  0.0936
 1225PAM     CN 1225   0.674   4.117   5.727  0.2188 -0.1416 -0.2721
 1226PAM     CN 1226   1.619   0.274   1.213 -0.1036 -0.1194  0.0252
 1227PAM     CN 1227   1.975   5.923   5.055 -0.1561 -0.4219  0.0911
 1228PAM     CN 1228   3.702   3.106   5.146  0.0460 -0.1575 -0.2300
 1229PAM     CN 1229   6.175   1.023   0.840 -0.1472  0.2416  0.1042
 1230PAM     CN 1230   2.752   4.432   4.594 -0.1411  0.2135  0.2289
 1231PAM     CN 1231   3.513   6.316   4.803  0.2043  0.2884 -0.0581
 1232PAM     CN 1232   0.954   5.132   3.077 -0.0561 -0.1480 -0.0536
 1233PAM     CN 1233   3.103   3.960   4.359 -0.0951  0.2732  0.1868
 1234PAM     CN 1234   0.098   0.277   0.410 -0.4687 -0.2079  0.1859
 1235PAM     CN 1235   4.329   6.392   5.931 -0.0737 -0.0143 -0.3271
 1236PAM     CN 1236   1.453   3.543   1.319 -0.3279  0.0744 -0.1898
 1237PAM     CN 1237   5.641   5.207   3.645  0.0032  0.1605  0.1364
 1238PAM     CN 1238   1.326   4.388   1.916 -0.0578  0.3101 -0.1157
 1239PAM     CN 1239   1.089   4.907   2.587 -0.3906  0.0655  0.2184
 1240PAM     CN 1240   1.381   2.304   4.860 -0.1553  0.1240 -0.1519
 1241PAM     CN 1241   2.856   3.764   2.540 -0.1965  0.3168 -0.1395
 1242PAM     CN 1242   2.135   5.541   0.759  0.0888 -0.1036 -0.2112
 1243PAM     CN 1243   5.843   0.789   0.521  0.0354 -0.0472 -0.1546
 1244PAM     CN 1244   3.139   1.107   0.972  0.0156 -0.1383 -0.0650
 1245PAM     CN 1245   1.070   2.138   0.832  0.1526  0.0559  0.0399
 1246PAM     CN 1246   1.698   2.958   1.370  0.0289  0.1390 -0.1282
 1247PAM     CN 1247   3.867   0.243   2.879  0.5005 -0.1887 -0.3078
 1248PAM     CN 1248   5.218   4.576   1.870  0.0723  0.2482  0.2699
 1249PAM     CN 1249   5.379   3.895   2.509  0.0147  0.1159 -0.0861
 1250PAM     CN 1250   0.225   2.189   4.572 -0.0788  0.1218  0.1223
 1251PAM     CN 1251   5.699   1.592   2.988  0.0288  0.0276 -0.0838
 1252PAM     CN 1252   5.287   0.145   5.949 -0.2379 -0.1899 -0.1421
 1253PAM     CN 1253   5.934   2.034   5.840 -0.0630  0.1006  0.1361
 1254PAM     CN 1254   5.763   5.827   2.265 -0.0088 -0.0884  0.1810
 1255PAM     CN 1255   5.126   1.454   3.723 -0.3274  0.4030  0.2211
 1256PAM     CN 1256   2.532   1.199   0.013 -0.0620 -0.3402  0.0302
 1257PAM     CN 1257   5.474   3.755   0.484  0.3722  0.0510  0.2853
 1258PAM     CN 1258   5.400   2.723   0.398  0.0496 -0.1262 -0.3146
 1259PAM     CN 1259   4.434   1.784   3.390 -0.0039  0.2093 -0.1915
 1260PAM     CN 1260   3.241   6.123   6.165  0.2430 -0.0202 -0.2679
 1261PAM     CN 1261   1.630   1.609   3.585  0.1378  0.3769  0.1962
 1262PAM     CN 1262   0.202   3.497   1.949  0.0683  0.2126 -0.2385
 1263PAM     CN 1263   2.825   1.845   5.744 -0.1745  0.2529 -0.1116
 1264PAM     CN 1264   1.015   4.605   3.490 -0.3139 -0.3061 -0.2366
 1265PAM     CN 1265   1.131   0.943   2.216  0.0098 -0.6340  0.0269
 1266PAM     CN 1266   4.909   4.752   5.307 -0.0675 -0.0790  0.1906
 1267PAM     CN 1267   4.605   4.831   3.783  0.1964  0.2718  0.0787
 1268PAM     CN 1268   4.383   5.321   3.627  0.2510 -0.1439  0.1197
 1269PAM     CN 1269   0.034   5.216   6.006  0.2789 -0.2074  0.1350
 1270PAM     CN 1270   6.200   4.784   0.591  0.0432  0.1603  0.1191
 1271PAM     CN 1271   1.339   6.262   4.404  0.2198 -0.1387  0.0279
 1272PAM     CN 1272   4.534   5.423   0.986 -0.1526  0.0300 -0.1349
 1273PAM     CN 1273   4.749   1.773   2.468  0.1630  0.1783  0.0043
 1274PAM     CN 1274   0.063   4.918   3.096 -0.0909 -0.0421 -0.1876
 1275PAM     CN 1275   4.362   2.668   5.137  0.1249 -0.1679  0.1481
 1276PAM     CN 1276   1.691   5.976   6.056 -0.2823  0.1214  0.0208
 1277PAM     CN 1277   5.311   1.692   1.668  0.2057  0.1304 -0.1404
 1278PAM     CN 1278   0.989   1.377   2.472  0.1300  0.1269  0.1272
 1279PAM     CN 1279   3.451   5.567   4.384 -0.0121 -0.2055 -0.1163
 1280PAM     CN 1280   1.103   2.400   4.298 -0.3551  0.1056 -0.0978
 1281PAM     CN 1281   5.722   1.240   0.347  0.0044  0.0706  0.0150
 1282PAM     CN 1282   0.467   3.539   2.819 -0.2698 -0.0839  0.0998
 1283PAM     CN 1283   4.877   2.473   3.695  0.1045  0.1392 -0.1533
 1284PAM     CN 1284   1.385   3.483   2.504  0.0906  0.0440  0.1227
 1285PAM     CN 1285   3.741   3.437   1.906  0.1580 -0.2036  0.1568
 1286PAM     CN 1286   1.250   5.018   0.933 -0.0535 -0.0016  0.0053
 1287PAM     CN 1287   3.852   0.224   1.931 -0.2490  0.1313  0.1020
 1288PAM     CN 1288   1.721   6.158   1.165 -0.1316 -0.1088  0.0239
 1289PAM     CN 1289   3.213   0.845   5.143 -0.1033 -0.1562 -0.3858
 1290PAM     CN 1290   0.836   3.046   6.438  0.1913  0.0201  0.0958
 1291PAM     CN 1291   1.900   2.622   3.682  0.0195 -0.3978  0.2800
 1292PAM     CN 1292   3.084   5.052   5.617 -0.1468 -0.1117 -0.1197
 1293PAM     CN 1293   4.403   3.872   5.468 -0.1682  0.2684 -0.1825
 1294PAM     CN 1294   5.428   3.602   1.828  0.1599  0.1921  0.0102
 1295PAM     CN 1295   0.415   2.328   3.251 -0.0370 -0.1061  0.1269
 1296PAM     CN 1296   2.511   1.003   6.040  0.0720  0.1811  0.0547
 1297PAM     CN 1297   6.248   1.858   6.244 -0.1118 -0.0858 -0.2512
 1298PAM     CN 1298   0.547   1.285   0.885 -0.1508  0.1421 -0.4932
 1299PAM     CN 1299   6.158   1.287   3.244 -0.1673 -0.0134 -0.2662
 1300PAM     CN 1300   3.992   2.786   2.783  0.1178 -0.0398  0.0307
 1301PAM     CN 1301   1.525   1.975   5.674 -0.1039 -0.0195 -0.2838
 1302PAM     CN 1302   3.914   3.665   5.463 -0.0945  0.1181  0.2744
 1303PAM     CN 1303   0.215   5.633   1.791 -0.0802  0.0037  0.2149
 1304PAM     CN 1304   4.659   4.828   6.308  0.1624  0.1152  0.2193
 1305PAM     CN 1305   5.990   1.490   0.886  0.0849 -0.2477 -0.0127
 1306PAM     CN 1306   1.989   2.950   4.046  0.1646 -0.0720  0.0183
 1307PAM     CN 1307   1.236   2.798   1.046  0.0783  0.1873  0.0483
 1308PAM     CN 1308   3.880   0.903   4.988  0.1532  0.0161 -0.0606
 1309PAM     CN 1309   0.491   1.324   4.280 -0.2086 -0.2098  0.1376
 1310PAM     CN 1310   3.852   6.290   0.665 -0.0940  0.0716  0.1279
 1311PAM     CN 1311   5.940   2.893   6.172  0.0223 -0.1399  0.4074
 1312PAM     CN 1312   6.280   5.711   5.797  0.2543  0.0679 -0.0419
 1313PAM     CN 1313   3.636   0.919   3.589 -0.0201 -0.1184  0.1950
 1314PAM     CN 1314   2.467   4.923   2.422 -0.0212 -0.1093  0.0491
 1315PAM     CN 1315   2.158   2.510   6.210  0.1303 -0.1153  0.0203
 1316PAM     CN 1316   0.711   6.146   5.835  0.2840 -0.2017  0.1183
 1317PAM     CN 1317   1.342   5.203   4.226  0.1730  0.0670 -0.0470
 1318PAM     CN 1318   0.168   5.473   2.270 -0.3165  0.0519 -0.2688
 1319PAM     CN 1319   3.176   2.597   3.179  0.2718 -0.0990 -0.2807
 1320PAM     CN 1320   4.174   4.583   4.878 -0.0195 -0.1024  0.1242
 1321PAM     CN 1321   5.264   4.653   6.351 -0.1514 -0.0105  0.3070
 1322PAM     CN 1322   0.227   2.323   4.045 -0.1998 -0.0259  0.1854
 1323PAM     CN 1323   3.206   1.767   1.064 -0.0271  0.0320 -0.0154
 1324PAM     CN 1324   1.853   1.569   4.726  0.0159 -0.4190 -0.2113
 1325PAM     CN 1325   5.699   3.059   3.832  0.3245  0.0467  0.2585
 1326PAM     CN 1326   5.145   5.501   3.911  0.3071  0.0852  0.0454
 1327PAM     CN 1327   4.854   2.184   2.185 -0.2223 -0.0830 -0.1732
 1328PAM     CN 1328   5.541   4.908   5.922  0.4631  0.3002  0.0368
 1329PAM     CN 1329   4.123   4.879   3.621 -0.0288  0.2339 -0.0318
 1330PAM     CN 1330   0.192   5.177   2.678 -0.0799  0.1212  0.0149
 1331PAM     CN 1331   0.372   2.204   2.288  0.3009  0.1966  0.1338
 1332PAM     CN 1332   3.474   4.410   2.078 -0.2247 -0.0863  0.1826
 1333PAM     CN 1333   4.788   0.695   2.826 -0.0970 -0.4470 -0.0062
 1334PAM     CN 1334   0.197   1.685   4.041  0.3127 -0.0449 -0.1373
 1335PAM     CN 1335   6.114   6.048   1.886 -0.1028  0.5426  0.0407
 1336PAM     CN 1336   5.586   1.281   6.283 -0.1374  0.0024 -0.1218
 1337PAM     CN 1337   5.051   5.625   1.559 -0.2538  0.1045 -0.1422
 1338PAM     CN 1338   3.679   1.697   1.682  0.1078  0.0972 -0.1105
 1339PAM     CN 1339   0.239   2.505   1.861 -0.0096 -0.0294 -0.1607
 1340PAM     CN 1340   5.358   1.010   2.766  0.3453 -0.0422 -0.1704
 1341PAM     CN 1341   1.136   4.316   3.882  0.0864 -0.1164  0.0694
 1342PAM     CN 1342   5.064   3.137   4.849  0.0200  0.2174  0.1130
 1343PAM     CN 1343   0.759   4.851   6.071 -0.0059 -0.0445 -0.0501
 1344PAM     CN 1344   6.193   0.183   5.605  0.0571 -0.2351 -0.0779
 1345PAM     CN 1345   6.278   4.879   4.875  0.0378  0.4317 -0.3077
 1346PAM     CN 1346   3.654   1.900   1.216 -0.2979 -0.1369  0.0399
 1347PAM     CN 1347   5.209   1.846   6.453 -0.0500  0.0843 -0.5867
 1348PAM     CN 1348   2.343   2.784   3.379  0.0746  0.2215 -0.2019
 1349PAM     CN 1349   5.799   4.680   6.459  0.2371  0.2640  0.2998
 1350PAM     CN 1350   0.634   0.220   5.767 -0.3656 -0.2581  0.2088
 1351PAM     CN 1351   5.757   4.839   1.838  0.2131  0.0223 -0.0927
 1352PAM     CN 1352   4.747   3.666   3.459 -0.0416  0.2684 -0.1281
 1353PAM     CN 1353   0.580   3.528   5.709 -0.0447 -0.3445 -0.1220
 1354PAM     CN 1354   0.806   0.498   5.246  0.1136 -0.1958  0.1300
 1355PAM     CN 1355   4.745   4.405   0.588 -0.4924 -0.1916 -0.0311
 1356PAM     CN 1356   4.663   6.176   3.130  0.1493  0.2865  0.3186
 1357PAM     CN 1357   6.424   5.046   1.393 -0.1495  0.2280  0.1125
 1358PAM     CN 1358   0.188   0.948   0.971 -0.0571 -0.2242 -0.0829
 1359PAM     CN 1359   2.789   3.763   6.429 -0.1866 -0.1531  0.2592
 1360PAM     CN 1360   0.901   5.968   4.147  0.2192 -0.0474  0.0856
 1361PAM     CN 1361   1.400   4.831   2.184 -0.2251  0.1018 -0.1620
 1362PAM     CN 1362   3.957   3.591   4.010  0.3590 -0.0260  0.0209
 1363PAM     CN 1363   0.408   4.545   1.810  0.0894 -0.3431  0.1510
 1364PAM     CN 1364   5.341   1.763   1.152  0.2237 -0.0090 -0.0626
 1365PAM     CN 1365   6.183   6.168   4.998 -0.1537 -0.1034  0.0279
 1366PAM     CN 1366   3.193   5.180   1.611 -0.0488 -0.1604 -0.0221
 1367PAM     CN 1367   5.385   0.057   5.474 -0.1890  0.3537  0.0976
 1368PAM     CN 1368   2.890   4.980   1.956 -0.0883 -0.0524  0.1570
 1369PAM     CN 1369   1.467   3.032   4.494  0.0259 -0.0905 -0.0631
 1370PAM     CN 1370   4.260   5.863   0.934 -0.0630  0.0205  0.0257
 1371PAM     CN 1371   1.256   2.201   6.333 -0.0633 -0.3968 -0.0706
 1372PAM     CN 1372   5.022   5.142   6.122  0.2476 -0.4564 -0.4349
 1373PAM     CN 1373   1.379   5.427   0.722  0.1146 -0.1326 -0.0252
 1374PAM     CN 1374   1.686   2.655   1.902 -0.1210  0.0171  0.1367
 1375PAM     CN 1375   3.711   3.355   0.342 -0.0857 -0.2463 -0.1141
 1376PAM     CN 1376   1.926   6.014   5.566 -0.0589 -0.0281 -0.0649
 1377PAM     CN 1377   4.776   1.072   5.906 -0.1826  0.0012  0.0236
 1378PAM     CN 1378   1.134   3.315   4.750 -0.2103  0.4985 -0.2434
 1379PAM     CN 1379   4.282   4.326   5.583  0.1077  0.0936 -0.1062
 1380PAM     CN 1380   0.424   4.960   5.778 -0.1174  0.2642  0.0600
 1381PAM     CN 1381   1.596   5.571   1.166  0.1186  0.0740  0.1423
 1382PAM     CN 1382   2.585   1.957   3.933  0.1023  0.3150 -0.3524
 1383PAM     CN 1383   2.587   1.670   0.143 -0.2492  0.0023 -0.0755
 1384PAM     CN 1384   0.694   5.683   5.488 -0.0941 -0.2295 -0.1010
 1385PAM     CN 1385   0.593   1.661   0.112  0.1506 -0.0461  0.0211
 1386PAM     CN 1386   0.179   4.369   3.199 -0.0543  0.4518 -0.0130
 1387PAM     CN 1387   1.827   0.895   2.732 -0.0853 -0.0261 -0.2169
 1388PAM     CN 1388   0.368   3.275   0.394  0.0448  0.2265 -0.0025
 1389PAM     CN 1389   4.637   4.665   3.237  0.3615  0.0559  0.2323
 1390PAM     CN 1390   2.961   6.301   3.880 -0.0945 -0.1286  0.1735
 1391PAM     CN 1391   6.334   5.942   2.326  0.0060 -0.0399  0.0332
 1392PAM     CN 1392   2.516   6.329   5.772 -0.0706  0.1185  0.2769
 1393PAM     CN 1393   3.097   2.348   1.372  0.0236 -0.1078 -0.0985
 1394PAM     CN 1394   5.321   5.920   4.853 -0.1622 -0.0799  0.0583
 1395PAM     CN 1395   1.653   5.220   2.042 -0.1200  0.1376  0.0714
 1396PAM     CN 1396   5.294   4.004   4.148 -0.1350 -0.2778  0.0922
 1397PAM     CN 1397   0.710   0.584   6.084 -0.0483  0.1830  0.1852
 1398PAM     CN 1398   3.070   1.812   3.622 -0.0666 -0.2245 -0.0836
 1399PAM     CN 1399   2.025   3.055   2.710 -0.1685 -0.1901 -0.3132
 1400PAM     CN 1400   1.366   1.360   1.239 -0.1433 -0.1171  0.1051
 1401PAM     CN 1401   1.588   1.962   0.718  0.0242 -0.0414 -0.1020
 1402PAM     CN 1402   5.631   6.038   0.340  0.2447 -0.1489 -0.1004
 1403PAM     CN 1403   2.507   2.313   1.258 -0.0230  0.1328  0.1719
 1404PAM     CN 1404   2.224   5.576   5.344 -0.0305  0.0652 -0.1474
 1405PAM     CN 1405   6.188   1.893   2.858  0.0562 -0.0002 -0.1028
 1406PAM     CN 1406   1.685   3.384   0.477  0.0308  0.1366 -0.2045
 1407PAM     CN 1407   4.523   1.700   1.432 -0.1714  0.0530  0.0800
 1408PAM     CN 1408   1.539   1.426   4.105  0.0176 -0.1356  0.1084
 1409PAM     CN 1409   4.497   2.846   4.341 -0.1537  0.2463 -0.2238
 1410PAM     CN 1410   2.536   0.124   3.812  0.0432 -0.0529  0.0675
 1411PAM     CN 1411   3.811   4.593   3.869  0.1737  0.3842  0.0613
 1412PAM     CN 1412   4.008   2.579   5.655 -0.1804  0.0722  0.0050
 1413PAM     CN 1413   1.559   0.824   5.774  0.1603  0.5420 -0.3523
 1414PAM     CN 1414   3.336   2.211   5.683  0.0588  0.1049 -0.0585
 1415PAM     CN 1415   2.586   1.892   2.281  0.1194 -0.5226 -0.0111
 1416PAM     CN 1416   6.139   3.270   3.625  0.0743 -0.0022 -0.1380
 1417PAM     CN 1417   0.369   0.292   6.291 -0.1463 -0.1619 -0.2595
 1418PAM     CN 1418   0.206   2.797   3.130  0.2598  0.1961  0.3753
 1419PAM     CN 1419   5.795   0.714   3.863  0.0071  0.0382  0.2034
 1420PAM     CN 1420   4.429   1.759   4.846 -0.0298  0.4340  0.1646
 1421PAM     CN 1421   3.453   4.532   6.119  0.2646  0.0694 -0.0522
 1422PAM     CN 1422   0.243   1.705   4.503  0.1586  0.1729 -0.1770
 1423PAM     CN 1423   4.096   2.074   0.935 -0.1594 -0.2033  0.1507
 1424PAM     CN 1424   4.989   1.418   5.563  0.3239  0.2097  0.1772
 1425PAM     CN 1425   6.441   0.130   2.693  0.0592 -0.1548 -0.0665
 1426PAM     CN 1426   1.394   4.153   0.578  0.1088 -0.2478  0.1594
 1427PAM     CN 1427   6.417   0.367   4.360  0.2236 -0.1343 -0.0347
 1428PAM     CN 1428   6.320   2.893   4.902  0.1198 -0.0289 -0.3046
 1429PAM     CN 1429   4.416   1.885   5.962 -0.1863  0.0337  0.0844
 1430PAM     CN 1430   4.108   3.120   4.922 -0.1941 -0.1304  0.2186
 1431PAM     CN 1431   4.186   5.923   4.852 -0.0639  0.1687 -0.0371
 1432PAM     CN 1432   2.543   3.649   4.017  0.1862  0.0134  0.0872
 1433PAM     CN 1433   4.241   1.730   2.356  0.0730  0.1058 -0.0134
 1434PAM     CN 1434   3.598   0.480   4.950  0.0923  0.1335 -0.3446
 1435PAM     CN 1435   4.339   2.155   4.431  0.1629 -0.0851 -0.2897
 1436PAM     CN 1436   4.028   1.094   2.186 -0.2200 -0.1000 -0.1250
 1437PAM     CN 1437   2.410   2.803   0.920 -0.1644  0.3124 -0.0604
 1438PAM     CN 1438   4.911   1.212   4.165 -0.0657 -0.2060  0.1024
 1439PAM     CN 1439   6.019   0.841   2.301  0.2705  0.0111  0.3672
 1440PAM     CN 1440   2.381   1.349   0.477  0.2915 -0.3604  0.4480
 1441PAM     CN 1441   2.986   4.790   4.083 -0.1081  0.1571  0.2686
 1442PAM     CN 1442   4.148   3.574   0.516  0.2057 -0.1157  0.1283
 1443PAM     CN 1443   2.721   1.348   5.668 -0.1191  0.0125  0.0916
 1444PAM     CN 1444   3.192   4.899   4.483 -0.0740  0.0554  0.0832
 1445PAM     CN 1445   6.415   0.211   1.398  0.0000  0.2094  0.0397
 1446PAM     CN 1446   4.345   4.268   3.331 -0.1112  0.1658  0.1626
 1447PAM     CN 1447   4.827   1.236   0.360 -0.3626  0.1281 -0.0284
 1448PAM     CN 1448   4.650   3.977   5.012  0.0300  0.1293  0.1068
 1449PAM     CN 1449   2.967   6.239   5.509 -0.1568  0.1812  0.1489
 1450PAM     CN 1450   0.312   1.691   0.518 -0.5075 -0.2544 -0.0745
 1451PAM     CN 1451   4.714   0.933   0.794  0.0910 -0.0946  0.1633
 1452PAM     CN 1452   0.616   5.193   1.104 -0.0525  0.0808  0.2752
 1453PAM     CN 1453   5.079   6.303   1.046  0.0470  0.2029  0.3126
 1454PAM     CN 1454   2.118   4.330   4.672  0.0115 -0.0632 -0.0120
 1455PAM     CN 1455   1.119   3.284   1.004  0.0996 -0.1015 -0.0185
 1456PAM     CN 1456   2.753   0.556   0.508 -0.0350 -0.2264 -0.3150
 1457PAM     CN 1457   1.733   5.858   3.888  0.0443 -0.2833 -0.1306
 1458PAM     CN 1458   1.961   1.170   3.398  0.0785 -0.1085  0.2303
 1459PAM     CN 1459   0.954   2.147   5.135 -0.0128  0.3129  0.2337
 1460PAM     CN 1460   6.325   6.189   1.384 -0.1499  0.0086  0.0331
 1461PAM     CN 1461   0.350   1.844   5.642 -0.0229 -0.0935  0.1118
 1462PAM     CN 1462   2.435   4.672   2.001 -0.0857  0.1992  0.2666
 1463PAM     CN 1463   1.068   1.313   3.680 -0.1583 -0.2298  0.2101
 1464PAM     CN 1464   6.288   1.646   1.819 -0.0108  0.0387  0.0144
 1465PAM     CN 1465   4.233   1.193   4.300  0.0029 -0.2797  0.0607
 1466PAM     CN 1466   3.311   1.377   5.745 -0.0974 -0.0265  0.0295
 1467PAM     CN 1467   3.475   2.980   1.735 -0.3812 -0.0278  0.2329
 1468PAM     CN 1468   1.820   2.600   4.583  0.2137  0.0273 -0.1160
 1469PAM     CN 1469   5.875   1.128   4.256  0.1979 -0.0974 -0.2962
 1470PAM     CN 1470   1.251   6.378   1.188  0.4242 -0.0394  0.0504
 1471PAM     CN 1471   4.308   3.649   2.669 -0.2450 -0.2142  0.0523
 1472PAM     CN 1472   2.119   6.055   6.430  0.3464  0.0232 -0.1133
 1473PAM     CN 1473   4.559   0.987   3.226  0.0316  0.1966 -0.0326
 1474PAM     CN 1474   5.917   0.439   1.528 -0.0661  0.3746 -0.0140
 1475PAM     CN 1475   2.131   0.795   4.495 -0.2029  0.3916 -0.2776
 1476PAM     CN 1476   2.560   5.642   2.693  0.0444 -0.1568  0.1380
 1477PAM     CN 1477   3.524   0.420   2.252 -0.3116 -0.0773  0.2348
 1478PAM     CN 1478   5.719   1.407   1.243 -0.1027 -0.2240 -0.0425
 1479PAM     CN 1479   6.130   0.023   1.738 -0.1151  0.1343 -0.1785
 1480PAM     CN 1480   4.284   6.433   2.801  0.1330 -0.2804 -0.2601
 1481PAM     CN 1481   0.742   2.002   1.241 -0.1942  0.0317 -0.3811
 1482PAM     CN 1482   0.428   2.504   2.784  0.2946  0.0071 -0.0178
 1483PAM     CN 1483   2.252   5.090   3.792 -0.1539 -0.0917  0.1238
 1484PAM     CN 1484   4.458   5.562   6.018 -0.2448 -0.0235  0.1425
 1485PAM     CN 1485   4.514   2.635   6.159  0.0103 -0.0182  0.0696
 1486PAM     CN 1486   0.592   6.176   4.488 -0.0160  0.1338 -0.2662
 1487PAM     CN 1487   1.971   2.763   2.253 -0.0930  0.0639 -0.2330
 1488PAM     CN 1488   2.582   3.309   6.119  0.0986  0.1738 -0.1099
 1489PAM     CN 1489   3.417   1.353   3.671 -0.1056  0.1431  0.1469
 1490PAM     CN 1490   6.365   2.376   3.196 -0.1236  0.0998  0.2170
 1491PAM     CN 1491   4.002   4.885   1.917  0.2777 -0.0450  0.3455
 1492PAM     CN 1492   2.671   3.386   1.302  0.2644  0.4445 -0.1009
 1493PAM     CN 1493   0.782   0.012   6.227 -0.0689 -0.3170 -0.1530
 1494PAM     CN 1494   5.476   1.821   4.208  0.3677 -0.0679  0.0455
 1495PAM     CN 1495   4.972   2.791   4.531  0.3130  0.0533  0.2474
 1496PAM     CN 1496   3.862   0.081   5.863  0.3550  0.1788  0.2610
 1497PAM     CN 1497   4.859   0.203   3.012 -0.1058  0.1268  0.2026
 1498PAM     CN 1498   2.964   2.937   2.257  0.0966 -0.0316 -0.2026
 1499PAM     CN 1499   0.250   5.155   3.587  0.0544  0.2376 -0.0402
 1500PAM     CN 1500   1.355   1.084   2.646 -0.0215  0.3441  0.2691
 1501PAM     CN 1501   1.037   1.022   5.502  0.2946  0.1603  0.2564
 1502PAM     CN 1502   4.897   2.016   1.631  0.0968  0.0097  0.0719
 1503PAM     CN 1503   1.094   1.417   1.995 -0.1424 -0.0769  0.0991
 1504PAM     CN 1504   1.852   5.667   2.438  0.0565 -0.2414 -0.0532
 1505PAM     CN 1505   1.347   3.936   1.019 -0.0910  0.1968 -0.1476
 1506PAM     CN 1506   6.130   0.406   3.095 -0.0297 -0.3230 -0.1991
 1507PAM     CN 1507   2.790   4.174   0.745  0.1239  0.1546 -0.2847
 1508PAM     CN 1508   6.009   4.947   6.093 -0.3474 -0.0106  0.0772
 1509PAM     CN 1509   4.230   6.256   4.062  0.0009 -0.0697 -0.1656
 1510PAM     CN 1510   0.415   5.296   3.089  0.0024 -0.1497  0.1036
 1511PAM     CN 1511   1.582   1.816   0.123  0.1075  0.1326 -0.0622
 1512PAM     CN 1512   5.891   3.445   1.446 -0.0536 -0.0629  0.0242
 1513PAM     CN 1513   2.691   1.838   1.000 -0.2438 -0.0013 -0.0375
 1514PAM     CN 1514   6.225   3.878   3.898  0.0994  0.0437 -0.0579
 1515PAM     CN 1515   6.357   3.840   6.333  0.2184  0.0602  0.1063
 1516PAM     CN 1516   0.567   6.175   0.388  0.0377 -0.2762 -0.1944
 1517PAM     CN 1517   0.905   2.633   2.544 -0.0734 -0.0052  0.1141
 1518PAM     CN 1518   4.898   3.261   4.368  0.1617  0.1870  0.1478
 1519PAM     CN 1519   3.032   3.114   4.784  0.0305 -0.1365  0.1750
 1520PAM     CN 1520   4.831   5.758   4.809  0.2697 -0.0774 -0.2395
 1521PAM     CN 1521   2.533   3.806   1.536 -0.0875 -0.0961  0.3566
 1522PAM     CN 1522   6.119   1.245   3.766 -0.2168 -0.0120  0.2508
 1523PAM     CN 1523   3.281   1.358   1.623 -0.0292  0.2412  0.2389
 1524PAM     CN 1524   3.900   0.817   2.767  0.1767 -0.2511 -0.2756
 1525PAM     CN 1525   3.770   6.461   4.038  0.0507  0.0772 -0.1729
 1526PAM     CN 1526   5.566   0.014   1.010  0.1119 -0.1698  0.0555
 1527PAM     CN 1527   1.971   2.540   1.090 -0.1472 -0.1550 -0.0018
 1528PAM     CN 1528   4.771   2.224   3.307 -0.1647  0.4851 -0.1175
 1529PAM     CN 1529   0.699   5.342   3.487 -0.1324  0.1860  0.0976
 1530PAM     CN 1530   2.537   4.166   1.994  0.1849  0.3159 -0.2642
 1531PAM     CN 1531   4.536   4.133   4.044  0.1198 -0.4031 -0.1903
 1532PAM     CN 1532   1.952   6.203   1.585  0.2721  0.0081 -0.2330
 1533PAM     CN 1533   1.658   6.409   4.818  0.0258  0.0588  0.0616
 1534PAM     CN 1534   2.077   5.582   2.897 -0.1634 -0.2616 -0.1747
 1535PAM     CN 1535   4.209   2.045   0.431 -0.0422 -0.0441  0.4087
 1536PAM     CN 1536   1.989   3.723   5.220 -0.0994  0.2085  0.1938
 1537PAM     CN 1537   3.041   1.839   0.182 -0.0231  0.1957  0.0698
 1538PAM     CN 1538   2.790   5.466   0.317 -0.0501  0.0111  0.1728
 1539PAM     CN 1539   6.281   4.928   0.031  0.1671 -0.2634  0.2419
 1540PAM     CN 1540   2.459   4.657   3.628 -0.0420 -0.2242  0.3870
 1541PAM     CN 1541   5.783   6.470   6.276  0.1187 -0.0046  0.1196
 1542PAM     CN 1542   5.294   0.987   5.991  0.1291 -0.3150 -0.1205
 1543PAM     CN 1543   2.864   1.429   1.363  0.1942 -0.1210 -0.0860
 1544PAM     CN 1544   3.822   0.748   1.865 -0.3348 -0.0071 -0.0286
 1545PAM     CN 1545   6.414   5.899   0.995  0.2247 -0.2571 -0.0508
 1546PAM     CN 1546   4.153   5.371   0.371 -0.1210  0.2472  0.0822
 1547PAM     CN 1547   2.862   4.943   3.464  0.0469 -0.1762 -0.0337
 1548PAM     CN 1548   4.685   5.650   3.303  0.4512  0.3036  0.1405
 1549PAM     CN 1549   0.979   3.187   3.486  0.2193  0.2935 -0.0398
 1550PAM     CN 1550   2.674   3.126   5.161 -0.0705  0.1635  0.0603
 1551PAM     CN 1551   1.761   6.434   6.240  0.0717  0.0995  0.1571
 1552PAM     CN 1552   0.378   0.053   4.255 -0.2248 -0.2115  0.1485
 1553PAM     CN 1553   3.216   4.435   5.025  0.1047 -0.1314  0.0751
 1554PAM     CN 1554   0.626   6.057   5.022 -0.0575 -0.0463 -0.0805
 1555PAM     CN 1555   4.065   1.613   1.205 -0.2227  0.2049 -0.0748
 1556PAM     CN 1556   5.931   5.779   4.893 -0.2482 -0.0983 -0.0417
 1557PAM     CN 1557   1.908   0.125   5.220  0.0047  0.0783  0.2147
 1558PAM     CN 1558   3.118   4.931   6.197  0.1084  0.1669 -0.1000
 1559PAM     CN 1559   5.479   5.996   0.784  0.3177 -0.0225 -0.0456
 1560PAM     CN 1560   0.480   3.871   1.361  0.2123  0.0030  0.0562
 1561PAM     CN 1561   6.308   3.987   1.739  0.0035 -0.0063  0.1545
 1562PAM     CN 1562   2.609   6.320   0.001 -0.0207 -0.0893  0.0156
 1563PAM     CN 1563   1.952   5.459   3.402 -0.1215  0.0815  0.5443
 1564PAM     CN 1564   5.226   3.664   6.055 -0.0797 -0.0666  0.0608
 1565PAM     CN 1565   3.584   3.249   2.720  0.1321  0.0417 -0.4000
 1566PAM     CN 1566   6.157   2.893   3.282 -0.3642 -0.1614  0.3027
 1567PAM     CN 1567   1.540   6.343   3.409 -0.2584 -0.1287 -0.1362
 1568PAM     CN 1568   3.875   1.429   5.632 -0.2801 -0.1517 -0.1637
 1569PAM     CN 1569   2.093   1.661   0.111 -0.1689  0.0026  0.0298
 1570PAM     CN 1570   2.435   0.379   1.356 -0.2544  0.0819 -0.4917
 1571PAM     CN 1571   5.867   0.617   4.389 -0.0598 -0.0566  0.2098
 1572PAM     CN 1572   6.048   0.101   1.099  0.1147 -0.1245  0.0464
 1573PAM     CN 1573   2.323   2.325   0.801  0.1621 -0.0960 -0.1044
 1574PAM     CN 1574   5.215   6.239   2.254  0.1726  0.0561 -0.2941
 1575PAM     CN 1575   4.708   6.401   2.527 -0.1750  0.0817 -0.1610
 1576PAM     CN 1576   3.204   1.195   4.315 -0.0488 -0.0627  0.0314
 1577PAM     CN 1577   3.353   4.058   0.956 -0.0915  0.0928 -0.1195
 1578PAM     CN 1578   5.317   3.987   0.909  0.0669  0.0573  0.1623
 1579PAM     CN 1579   0.724   6.407   1.167 -0.3177  0.0874 -0.3637
 1580PAM     CN 1580   5.278   0.536   2.869 -0.2192  0.1692 -0.1592
 1581PAM     CN 1581   5.784   4.845   3.345 -0.2295  0.0503  0.0149
 1582PAM     CN 1582   1.733   5.590   0.119  0.0883  0.0216  0.1070
 1583PAM     CN 1583   1.892   4.236   4.138  0.1166 -0.1718 -0.2409
 1584PAM     CN 1584   2.343   6.305   0.741 -0.2373 -0.0779  0.1453
 1585PAM     CN 1585   5.323   2.808   1.214  0.0598 -0.1706  0.1361
 1586PAM     CN 1586   1.163   1.884   3.104  0.2162 -0.0415 -0.2904
 1587PAM     CN 1587   2.922   4.282   3.982 -0.0663  0.1568  0.1099
 1588PAM     CN 1588   4.163   5.753   3.795  0.1346 -0.0610  0.3424
 1589PAM     CN 1589   4.932   4.506   3.596  0.5245  0.1482  0.0937
 1590PAM     CN 1590   2.577   0.270   0.897  0.2185  0.1141 -0.2188
 1591PAM     CN 1591   0.375   0.836   2.593  0.2630 -0.1860 -0.0807
 1592PAM     CN 1592   0.435   0.691   0.125  0.0553 -0.2759 -0.0806
 1593PAM     CN 1593   6.206   2.570   5.851 -0.1979  0.0475  0.2033
 1594PAM     CN 1594   5.998   5.465   1.010 -0.1081  0.1570  0.2000
 1595PAM     CN 1595   1.258   4.763   5.133  0.2953 -0.4739 -0.0426
 1596PAM     CN 1596   5.329   2.259   1.943  0.1053  0.0612 -0.0278
 1597PAM     CN 1597   2.241   6.235   5.262  0.1551 -0.2007 -0.1727
 1598PAM     CN 1598   4.749   6.231   5.587  0.0102 -0.3336  0.0039
 1599PAM     CN 1599   2.437   4.250   4.202  0.4383 -0.0489 -0.4081
 1600PAM     CN 1600   4.360   5.945   5.760  0.2508  0.0261  0.0772
 1601PAM     CN 1601   1.355   3.103   3.086  0.4030 -0.1355 -0.4355
 1602PAM     CN 1602   1.620   2.898   0.372  0.2089  0.0004  0.0239
 1603PAM     CN 1603   6.429   2.488   0.753 -0.2079  0.2760  0.0255
 1604PAM     CN 1604   5.798   6.068   3.119  0.0337 -0.2396 -0.0983
 1605PAM     CN 1605   6.297   2.577   2.204  0.0689  0.1662 -0.0899
 1606PAM     CN 1606   3.252   4.471   2.591 -0.1129  0.0517  0.0730
 1607PAM     CN 1607   2.470   3.381   2.699 -0.0711 -0.0680 -0.0213
 1608PAM     CN 1608   0.355   4.583   1.328 -0.2320 -0.0273 -0.0133
 1609PAM     CN 1609   1.767   3.952   2.469  0.2069 -0.1148 -0.1013
 1610PAM     CN 1610   6.377   5.880   0.516 -0.3526  0.0345  0.3760
 1611PAM     CN 1611   2.514   5.602   6.376  0.3006 -0.1547 -0.0515
 1612PAM     CN 1612   0.815   4.592   5.473  0.1951 -0.1749 -0.0984
 1613PAM     CN 1613   2.081   4.361   6.460 -0.0820  0.1353  0.0022
 1614PAM     CN 1614   3.048   1.300   5.328  0.2028 -0.0502 -0.1151
 1615PAM     CN 1615   4.661   5.612   2.426 -0.0529 -0.1856  0.2291
 1616PAM     CN 1616   5.355   0.324   1.402  0.2779  0.0398 -0.1305
 1617PAM     CN 1617   4.688   4.861   0.320  0.0757  0.0506  0.0229
 1618PAM     CN 1618   2.382   1.627   1.775 -0.0382  0.0603 -0.2892
 1619PAM     CN 1619   5.143   0.696   1.064  0.0157  0.1379  0.1859
 1620PAM     CN 1620   1.041   1.269   0.935 -0.0283 -0.1410  0.2262
 1621PAM     CN 1621   3.313   0.939   0.215 -0.1214  0.2681 -0.0560
 1622PAM     CN 1622   1.486   3.139   3.639  0.1559  0.0849  0.2316
 1623PAM     CN 1623   5.542   5.568   5.144  0.2334 -0.1134 -0.1048
 1624PAM     CN 1624   0.803   4.225   1.215 -0.2119  0.0117 -0.1233
 1625PAM     CN 1625   4.975   1.603   4.653  0.1972 -0.2846  0.2981
 1626PAM     CN 1626   5.007   4.421   2.370 -0.0644 -0.2628  0.2298
 1627PAM     CN 1627   2.867   2.894   4.140  0.3239 -0.1402 -0.1000
 1628PAM     CN 1628   0.184   1.009   5.292 -0.2556  0.1296  0.0490
 1629PAM     CN 1629   3.009   1.298   4.855  0.1957 -0.2282 -0.0181
 1630PAM     CN 1630   4.547   3.491   0.887 -0.1062  0.0340  0.2909
 1631PAM     CN 1631   2.142   5.746   1.595  0.1819 -0.3522 -0.1395
 1632PAM     CN 1632   3.807   1.442   4.130  0.2979 -0.1241 -0.1265
 1633PAM     CN 1633   0.913   2.256   3.422 -0.2850  0.0808  0.0209
 1634PAM     CN 1634   1.136   5.771   5.331 -0.1625  0.4085  0.0404
 1635PAM     CN 1635   2.022   2.015   0.442 -0.4905  0.1681 -0.0115
 1636PAM     CN 1636   4.323   5.120   2.215  0.0076  0.0526 -0.0784
 1637PAM     CN 1637   2.547   5.792   3.154  0.0579  0.1349 -0.0054
 1638PAM     CN 1638   6.397   6.001   3.918 -0.2455 -0.2648 -0.0068
 1639PAM     CN 1639   4.932   5.059   3.057 -0.0700  0.2266  0.0416
 1640PAM     CN 1640   0.178   6.155   3.503  0.3084 -0.0477 -0.1965
 1641PAM     CN 1641   1.836   3.521   2.026 -0.0694 -0.4552 -0.0363
 1642PAM     CN 1642   6.373   3.388   0.105 -0.1083 -0.0300  0.1744
 1643PAM     CN 1643   5.270   5.817   2.490 -0.0354  0.1284  0.0270
 1644PAM     CN 1644   5.584   6.166   2.621 -0.3025 -0.0628 -0.2253
 1645PAM     CN 1645   3.779   3.371   4.553 -0.1766  0.2841 -0.1448
 1646PAM     CN 1646   3.307   2.179   4.920 -0.1147 -0.0495 -0.0046
 1647PAM     CN 1647   3.036   5.493   3.568 -0.0775 -0.1277 -0.0143
 1648PAM     CN 1648   2.743   3.794   1.040  0.1754 -0.3568 -0.0325
 1649PAM     CN 1649   4.083   2.388   6.143 -0.2292 -0.0314 -0.2690
 1650PAM     CN 1650   1.483   0.255   4.500  0.3024  0.2921 -0.0037
 1651PAM     CN 1651   1.586   3.100   2.182  0.0518 -0.0835  0.1315
 1652PAM     CN 1652   1.569   2.114   4.331  0.1292 -0.0299 -0.0788
 1653PAM     CN 1653   1.254   1.439   3.245  0.2071  0.0077 -0.3717
 1654PAM     CN 1654   4.826   3.909   0.975  0.0881 -0.3209  0.0496
 1655PAM     CN 1655   5.973   1.654   5.257  0.0614 -0.0370  0.1272
 1656PAM     CN 1656   1.934   4.631   3.304 -0.1101  0.3818  0.0116
 1657PAM     CN 1657   4.315   0.097   2.264  0.1197 -0.2001 -0.0461
 1658PAM     CN 1658   1.288   2.043   1.813  0.1723  0.4390  0.0981
 1659PAM     CN 1659   5.483   1.527   0.751 -0.0876 -0.1203  0.4810
 1660PAM     CN 1660   1.614   4.625   4.229 -0.2945  0.2955  0.0802
 1661PAM     CN 1661   4.790   6.150   4.090 -0.1424  0.1385 -0.1265
 1662PAM     CN 1662   0.345   5.926   1.398 -0.1719  0.0111 -0.3758
 1663PAM     CN 1663   3.075   4.581   3.173  0.0737  0.0310 -0.1067
 1664PAM     CN 1664   0.349   0.385   1.123  0.1303 -0.1337 -0.1803
 1665PAM     CN 1665   0.350   5.952   3.102  0.1071 -0.2620  0.0060
 1666PAM     CN 1666   1.364   1.572   2.745 -0.2940  0.3687  0.0038
 1667PAM     CN 1667   2.688   1.014   4.108 -0.3345  0.0088  0.2584
 1668PAM     CN 1668   3.635   3.841   1.509 -0.0677 -0.2526  0.1920
 1669PAM     CN 1669   0.013   1.034   2.961  0.1040 -0.2070  0.2328
 1670PAM     CN 1670   0.063   5.395   0.874  0.0065  0.3057  0.0554
 1671PAM     CN 1671   1.094   1.526   4.989  0.0225 -0.0850  0.0608
 1672PAM     CN 1672   4.819   1.794   2.928  0.1078 -0.1809 -0.0428
 1673PAM     CN 1673   1.754   2.135   3.724  0.1475  0.1353  0.1593
 1674PAM     CN 1674   5.507   5.116   6.356 -0.0487  0.1506  0.0507
 1675PAM     CN 1675   5.768   5.253   3.024 -0.1310  0.3549 -0.1954
 1676PAM     CN 1676   5.192   6.445   0.581 -0.0269 -0.1078  0.1436
 1677PAM     CN 1677   5.879   4.636   5.672  0.0318  0.0088 -0.4062
 1678PAM     CN 1678   3.944   4.236   3.050  0.4554 -0.1789  0.0001
 1679PAM     CN 1679   4.568   4.453   5.191  0.1447 -0.0211  0.0252
 1680PAM     CN 1680   4.945   3.049   1.447  0.0284  0.2591  0.1121
 1681PAM     CN 1681   1.130   5.625   3.386  0.1267  0.1281 -0.1777
 1682PAM     CN 1682   0.021   2.263   2.624  0.0934 -0.1413 -0.2661
 1683PAM     CN 1683   2.214   3.742   1.106 -0.3281 -0.0034 -0.0136
 1684PAM     CN 1684   0.170   0.562   3.737  0.0592 -0.2355  0.0610
 1685PAM     CN 1685   5.446   1.617   5.506 -0.0970 -0.0185 -0.2244
 1686PAM     CN 1686   1.659   2.456   2.732 -0.0945  0.0731  0.1553
 1687PAM     CN 1687   5.954   5.991   0.712 -0.0081  0.2042 -0.2773
 1688PAM     CN 1688   4.315   3.705   4.756  0.1091 -0.1988  0.0801
 1689PAM     CN 1689   0.166   0.989   3.433  0.4578 -0.0583  0.0416
 1690PAM     CN 1690   2.600   5.978   4.916 -0.1368 -0.1924  0.2372
 1691PAM     CN 1691   0.295   6.052   5.444  0.0849 -0.0192 -0.0191
 1692PAM     CN 1692   3.698   1.555   6.074 -0.0757  0.3272 -0.1272
 1693PAM     CN 1693   5.617   5.279   4.756  0.1031  0.1295 -0.1597
 1694PAM     CN 1694   5.094   3.255   3.240  0.0433  0.0495  0.0222
 1695PAM     CN 1695   5.570   4.136   5.064 -0.2813 -0.0871  0.0801
 1696PAM     CN 1696   0.675   3.392   4.673  0.4943 -0.3230 -0.1958
 1697PAM     CN 1697   5.224   5.745   0.408  0.2916 -0.0590 -0.3712
 1698PAM     CN 1698   5.767   0.841   5.976  0.1224  0.4757 -0.0100
 1699PAM     CN 1699   0.852   2.259   2.952  0.2073  0.0233 -0.1329
 1700PAM     CN 1700   2.912   1.597   1.818  0.1599 -0.1638 -0.2038
 1701PAM     CN 1701   2.575   6.129   2.744  0.3773  0.0339  0.1538
 1702PAM     CN 1702   3.262   0.128   4.155  0.0591  0.1095  0.1073
 1703PAM     CN 1703   5.545   0.482   6.260  0.2508  0.1364 -0.1096
 1704PAM     CN 1704   6.089   0.024   0.203  0.6760 -0.1221 -0.2756
 1705PAM     CN 1705   0.077   2.567   3.636  0.1157  0.0214 -0.4117
 1706PAM     CN 1706   6.374   3.576   4.889 -0.2961 -0.0629 -0.3589
 1707PAM     CN 1707   0.074   5.241   5.168 -0.0462 -0.0980  0.0977
 1708PAM     CN 1708   2.050   0.142   5.818  0.1812  0.4722  0.1245
 1709PAM     CN 1709   3.544   2.602   4.063 -0.2999  0.0374  0.1313
 1710PAM     CN 1710   0.965   3.544   3.839 -0.4155 -0.1393  0.2085
 1711PAM     CN 1711   0.409   6.099   3.941 -0.1852  0.1579 -0.1407
 1712PAM     CN 1712   4.943   2.836   5.238  0.1209 -0.1099  0.1219
 1713PAM     CN 1713   4.611   0.366   2.011 -0.1493  0.2389  0.2728
 1714PAM     CN 1714   5.774   5.644   5.561 -0.1054  0.0885 -0.0261
 1715PAM     CN 1715   0.545   0.148   0.665 -0.0009  0.1436 -0.2770
 1716PAM     CN 1716   5.417   1.109   5.547  0.0266 -0.0747  0.0933
 1717PAM     CN 1717   3.211   1.711   5.068 -0.0629  0.0688  0.3401
 1718PAM     CN 1718   0.973   5.525   3.895 -0.0397 -0.0662  0.1787
 1719PAM     CN 1719   2.582   4.684   6.264  0.1014 -0.0355  0.3077
 1720PAM     CN 1720   3.631   5.380   1.166  0.2820  0.0826  0.2353
 1721PAM     CN 1721   2.397   4.474   5.759 -0.2623  0.1758 -0.0714
 1722PAM     CN 1722   0.666   5.969   1.748  0.1596  0.1614  0.3406
 1723PAM     CN 1723   1.559   6.346   5.586  0.0542 -0.2952 -0.4834
 1724PAM     CN 1724   1.318   2.348   3.855 -0.0923 -0.0069  0.0794
 1725PAM     CN 1725   4.683   3.587   1.396  0.0442  0.0815 -0.2210
 1726PAM     CN 1726   2.997   2.212   5.344  0.1977  0.0228 -0.2516
 1727PAM     CN 1727   5.648   1.829   0.403  0.0678  0.0774  0.0841
 1728PAM     CN 1728   3.360   4.282   1.570 -0.0039  0.0825 -0.1953
 1729PAM     CN 1729   2.634   1.987   6.191 -0.1903  0.1505  0.4283
 1730PAM     CN 1730   0.841   5.656   2.322  0.1896 -0.2176  0.0356
 1731PAM     CN 1731   1.621   2.798   5.453 -0.1943 -0.1389 -0.0637
 1732PAM     CN 1732   3.770   6.053   3.626 -0.0305 -0.0472  0.0382
 1733PAM     CN 1733   2.125   5.901   0.465 -0.2660 -0.0387  0.0258
 1734PAM     CN 1734   6.310   5.638   1.453 -0.3865  0.1156  0.0639
 1735PAM     CN 1735   1.748   5.051   3.541  0.0500 -0.2049  0.3484
 1736PAM     CN 1736   0.956   0.616   4.385  0.1289 -0.1526 -0.2427
 1737PAM     CN 1737   5.764   1.127   5.162  0.1616  0.0690 -0.2349
 1738PAM     CN 1738   5.980   3.794   5.128 -0.0155 -0.0628  0.2176
 1739PAM     CN 1739   1.191   4.774   3.964  0.2647 -0.2488 -0.3123
 1740PAM     CN 1740   0.515   3.954   3.528 -0.2398 -0.0088  0.1295
 1741PAM     CN 1741   4.032   3.038   1.914  0.0546 -0.4271 -0.0048
 1742PAM     CN 1742   5.221   1.989   0.599  0.0541 -0.3236  0.0490
 1743PAM     CN 1743   4.371   0.780   4.724 -0.0514  0.2188  0.1195
 1744PAM     CN 1744   2.347   4.331   1.544 -0.0892  0.4652  0.1415
 1745PAM     CN 1745   3.593   4.898   1.417  0.1911  0.0238  0.0402
 1746PAM     CN 1746   1.921   0.370   4.675  0.1516  0.1404 -0.2669
 1747PAM     CN 1747   5.636   0.875   4.713  0.0689 -0.4170  0.0249
 1748PAM     CN 1748   4.615   3.732   1.873 -0.1734  0.1105  0.1593
 1749PAM     CN 1749   3.398   4.418   4.321  0.2382 -0.0284 -0.0115
 1750PAM     CN 1750   0.397   6.474   3.016 -0.0888  0.1216  0.2095
 1751PAM     CN 1751   5.838   1.960   0.942 -0.0164  0.0785 -0.1397
 1752PAM     CN 1752   3.468   3.176   2.188 -0.0819 -0.1412  0.1261
 1753PAM     CN 1753   6.240   3.149   5.798  0.0082  0.0464  0.1703
 1754PAM     CN 1754   3.677   3.002   3.231 -0.0763  0.0801 -0.0774
 1755PAM     CN 1755   4.144   5.419   1.834 -0.1359  0.1325 -0.1638
 1756PAM     CN 1756   6.424   4.789   5.752  0.1225 -0.2376  0.2098
 1757PAM     CN 1757   4.477   3.278   1.757  0.2100  0.0465 -0.3392
 1758PAM     CN 1758   0.050   4.555   4.504 -0.0384  0.3494 -0.0217
 1759PAM     CN 1759   0.791   4.430   6.308  0.2609 -0.2087  0.4942
 1760PAM     CN 1760   0.308   4.164   4.080  0.2963  0.0983 -0.0854
 1761PAM     CN 1761   0.739   3.719   3.177  0.4762  0.1797 -0.2070
 1762PAM     CN 1762   1.634   4.117   5.168  0.1065 -0.3283  0.2540
 1763PAM     CN 1763   2.135   5.146   5.006 -0.0837 -0.0595 -0.0667
 1764PAM     CN 1764   1.443   2.323   5.337 -0.2568 -0.3856 -0.1106
 1765PAM     CN 1765   2.886   0.191   1.284  0.2432  0.1202 -0.2610
 1766PAM     CN 1766   3.603   0.714   3.168  0.0403 -0.0532 -0.0343
 1767PAM     CN 1767   2.237   1.109   1.299  0.1975  0.1421 -0.3104
 1768PAM     CN 1768   5.455   2.456   2.721  0.2636  0.0886  0.0673
 1769PAM     CN 1769   0.288   4.816   4.193 -0.2431  0.0261  0.2564
 1770PAM     CN 1770   2.250   5.262   4.294  0.0351 -0.1209  0.3656
 1771PAM     CN 1771   0.207   5.044   1.855  0.0341 -0.3088  0.1569
 1772PAM     CN 1772   0.363   4.061   1.873  0.1705  0.4288  0.1315
 1773PAM     CN 1773   6.404   0.005   6.245 -0.1887  0.2681  0.2056
 1774PAM     CN 1774   3.891   5.848   1.702 -0.1600  0.2125  0.0106
 1775PAM     CN 1775   3.653   2.749   2.166  0.0232 -0.1453 -0.0882
 1776PAM     CN 1776   5.021   2.534   1.526  0.1161  0.1976  0.1200
 1777PAM     CN 1777   0.500   2.515   4.895 -0.0340 -0.2508 -0.0739
 1778PAM     CN 1778   1.012   5.524   1.105  0.0591  0.3634  0.2158
 1779PAM     CN 1779   4.528   1.185   1.589  0.1543  0.3495  0.1651
 1780PAM     CN 1780   1.774   5.343   1.540 -0.3629  0.1163 -0.3062
 1781PAM     CN 1781   5.626   4.344   1.099 -0.3199 -0.0120  0.1338
 1782PAM     CN 1782   0.427   5.778   0.015  0.0724  0.0616 -0.0635
 1783PAM     CN 1783   6.209   1.045   1.884 -0.1827 -0.1808 -0.0408
 1784PAM     CN 1784   1.034   3.448   6.204 -0.0462  0.1434  0.0025
 1785PAM     CN 1785   5.102   3.293   6.296 -0.0380 -0.1168  0.0149
 1786PAM     CN 1786   3.976   4.171   1.288  0.2600 -0.0900 -0.1901
 1787PAM     CN 1787   2.702   2.376   5.879 -0.0706  0.1421  0.1532
 1788PAM     CN 1788   3.593   1.781   5.378  0.1290  0.2851  0.0977
 1789PAM     CN 1789   1.139   0.577   5.771  0.1400  0.2809 -0.0599
 1790PAM     CN 1790   1.178   5.990   2.570  0.3084 -0.1742  0.0361
 1791PAM     CN 1791   0.259   5.787   5.925  0.1458 -0.1600  0.0360
 1792PAM     CN 1792   1.656   4.617   5.343  0.3050 -0.0788  0.0809
 1793PAM     CN 1793   3.012   3.702   0.615 -0.0531 -0.1068  0.2575
 1794PAM     CN 1794   5.180   2.514   5.676  0.2197 -0.1698  0.0747
 1795PAM     CN 1795   1.362   4.922   5.612 -0.0195  0.3975 -0.1211
 1796PAM     CN 1796   4.206   2.237   3.897  0.1393  0.3942  0.2983
 1797PAM     CN 1797   4.754   3.590   5.973  0.0033 -0.1366  0.1148
 1798PAM     CN 1798   0.128   3.285   4.021 -0.0075 -0.1200 -0.0363
 1799PAM     CN 1799   3.197   0.901   3.930  0.2785 -0.1517 -0.4372
 1800PAM     CN 1800   2.612   0.867   2.193  0.0245  0.1368  0.2619
 1801PAM     CN 1801   2.546   2.962   2.023 -0.1599  0.1466 -0.1685
 1802PAM     CN 1802   0.592   4.324   4.489  0.2304  0.2139 -0.3545
 1803PAM     CN 1803   3.169   4.663   1.397 -0.0346  0.2226 -0.1910
 1804PAM     CN 1804   5.613   3.256   3.410 -0.0258 -0.0236  0.0564
 1805PAM     CN 1805   2.973   2.987   6.324 -0.1649  0.2533  0.1485
 1806PAM     CN 1806   5.563   2.290   1.271  0.2951  0.1663  0.0188
 1807PAM     CN 1807   1.351   4.168   6.336 -0.2493  0.3200  0.1043
 1808PAM     CN 1808   3.747   2.839   0.340  0.1273  0.3729  0.2053
 1809PAM     CN 1809   3.112   2.065   3.190 -0.0024  0.2832 -0.0172
 1810PAM     CN 1810   2.862   5.287   3.084  0.0360 -0.1441  0.1627
 1811PAM     CN 1811   2.415   0.588   4.162  0.0823 -0.1468  0.0262
 1812PAM     CN 1812   5.310   5.517   2.032  0.1930 -0.1520 -0.0158
 1813PAM     CN 1813   0.885   3.605   2.506  0.0908 -0.0027 -0.0906
 1814PAM     CN 1814   0.619   6.455   2.035 -0.0754 -0.0633  0.0705
 1815PAM     CN 1815   6.084   4.518   2.533 -0.1821  0.0925 -0.0125
 1816PAM     CN 1816   4.088   0.925   1.313  0.1779  0.0337  0.1326
 1817PAM     CN 1817   4.601   5.424   2.853 -0.1439 -0.1718  0.0485
 1818PAM     CN 1818   1.021   3.123   2.530 -0.0209  0.3765 -0.2377
 1819PAM     CN 1819   0.347   0.046   4.778  0.1251 -0.0306 -0.0398
 1820PAM     CN 1820   6.123   5.297   0.575 -0.4430  0.0676 -0.0098
 1821PAM     CN 1821   2.333   4.235   1.015 -0.0532  0.0249  0.0064
 1822PAM     CN 1822   2.217   3.249   2.240  0.1539 -0.0763 -0.2138
 1823PAM     CN 1823   5.886   6.056   4.009  0.0471 -0.1655  0.4978
 1824PAM     CN 1824   3.214   0.942   3.415 -0.2561  0.2471 -0.1016
 1825PAM     CN 1825   2.929   4.977   1.086 -0.0429  0.0729  0.1762
 1826PAM     CN 1826   4.658   4.317   4.496 -0.0521 -0.1136 -0.0159
 1827PAM     CN 1827   4.514   1.265   2.158 -0.1642  0.1099  0.2175
 1828PAM     CN 1828   2.966   3.642   4.817  0.1068 -0.0418 -0.0656
 1829PAM     CN 1829   2.208   3.304   3.761  0.2056  0.2835 -0.1176
 1830PAM     CN 1830   1.748   3.575   3.501 -0.3150 -0.1217  0.1883
 1831PAM     CN 1831   4.805   5.823   6.455 -0.2648 -0.1847  0.3281
 1832PAM     CN 1832   3.185   2.226   3.902  0.3826  0.0846  0.1881
 1833PAM     CN 1833   2.825   3.441   3.109 -0.2024  0.2083 -0.2244
 1834PAM     CN 1834   3.471   6.403   2.078 -0.1249 -0.3050  0.4308
 1835PAM     CN 1835   4.368   6.005   2.350 -0.1148 -0.1127 -0.1697
 1836PAM     CN 1836   4.407   2.224   2.411 -0.1052 -0.0854  0.0837
 1837PAM     CN 1837   1.320   0.096   2.881  0.1497 -0.1501 -0.0848
 1838PAM     CN 1838   3.050   5.461   1.154  0.0663  0.4161  0.2749
 1839PAM     CN 1839   4.066   4.082   4.012  0.0256  0.1014 -0.0132
 1840PAM     CN 1840   5.223   4.845   2.621 -0.0056  0.1103  0.3914
 1841PAM     CN 1841   0.422   1.268   2.719  0.1212 -0.0660 -0.2603
 1842PAM     CN 1842   5.963   1.267   5.577 -0.1646 -0.1227  0.0574
 1843PAM     CN 1843   5.735   3.848   3.268  0.3575 -0.2313  0.0690
 1844PAM     CN 1844   4.498   1.271   1.076 -0.2250 -0.1668  0.0168
 1845PAM     CN 1845   1.416   0.704   5.334 -0.1824 -0.1807  0.2989
 1846PAM     CN 1846   2.386   1.561   1.265  0.1612  0.4331  0.0088
 1847PAM     CN 1847   0.973   4.486   0.781 -0.1084 -0.2822 -0.0493
 1848PAM     CN 1848   6.124   5.768   4.404  0.0556 -0.0920 -0.1067
 1849PAM     CN 1849   3.163   0.853   1.476 -0.1813 -0.0355 -0.1203
 1850PAM     CN 1850   0.462   2.746   0.001  0.1308  0.1005  0.3244
 1851PAM     CN 1851   1.821   4.627   1.953 -0.0482 -0.0914  0.1587
 1852PAM     CN 1852   0.136   2.996   2.023  0.2874  0.2500  0.1023
 1853PAM     CN 1853   0.755   4.912   4.403 -0.0884 -0.1189  0.3050
 1854PAM     CN 1854   1.231   3.201   4.045 -0.0159 -0.4310 -0.1300
 1855PAM     CN 1855   1.057   5.225   2.191 -0.1048 -0.1858 -0.2202
 1856PAM     CN 1856   5.519   3.945   4.615 -0.1181 -0.1888  0.0392
 1857PAM     CN 1857   5.193   2.107   3.862 -0.0584 -0.0696  0.0359
 1858PAM     CN 1858   6.070   2.760   0.536  0.0963  0.1341  0.0857
 1859PAM     CN 1859   2.999   2.891   1.392 -0.0691 -0.1409 -0.0052
 1860PAM     CN 1860   0.675   1.497   4.696  0.0230  0.2597 -0.1157
 1861PAM     CN 1861   0.654   5.900   3.492  0.4298 -0.0393 -0.1670
 1862PAM     CN 1862   2.910   2.110   2.628  0.1433 -0.0457  0.0188
 1863PAM     CN 1863   0.914   0.024   3.140  0.0346 -0.1042 -0.2712
 1864PAM     CN 1864   4.053   5.068   1.493  0.0878 -0.1276  0.1713
 1865PAM     CN 1865   4.978   1.780   4.165 -0.3394  0.0609 -0.0560
 1866PAM     CN 1866   5.598   6.147   3.544 -0.0189 -0.0057 -0.0403
 1867PAM     CN 1867   1.839   3.917   0.351  0.1377  0.0219  0.3369
 1868PAM     CN 1868   2.302   2.152   0.031  0.2427  0.0615  0.0199
 1869PAM     CN 1869   1.851   0.557   0.119 -0.3281  0.1659  0.2036
 1870PAM     CN 1870   2.756   3.103   3.472 -0.1431  0.1618 -0.2234
 1871PAM     CN 1871   0.984   2.578   6.155 -0.0780  0.0420  0.2143
 1872PAM     CN 1872   0.553   0.393   3.246  0.0433  0.1603  0.1105
 1873PAM     CN 1873   6.464   2.984   6.183  0.1863 -0.1856 -0.1340
 1874PAM     CN 1874   4.771   5.328   5.174 -0.0482 -0.0341 -0.0243
 1875PAM     CN 1875   0.413   4.763   5.076 -0.1209 -0.0580 -0.1451
 1876PAM     CN 1876   1.261   5.965   0.906 -0.2322 -0.1603 -0.1615
 1877PAM     CN 1877   5.619   0.702   3.279  0.3801  0.1036  0.0346
 1878PAM     CN 1878   2.498   4.334   2.680 -0.0229 -0.2091  0.0517
 1879PAM     CN 1879   5.772   1.988   6.359  0.2304  0.0119  0.0264
 1880PAM     CN 1880   2.111   0.089   2.719  0.0214  0.1937 -0.0079
 1881PAM     CN 1881   4.893   2.761   0.480  0.3152 -0.0164 -0.0179
 1882PAM     CN 1882   1.239   4.701   6.310  0.1935  0.2022 -0.1075
 1883PAM     CN 1883   5.079   1.290   0.874 -0.0095  0.0638 -0.2498
 1884PAM     CN 1884   2.312   0.117   4.321  0.2918 -0.1547 -0.0482
 1885PAM     CN 1885   2.046   3.218   1.152  0.0208 -0.1708 -0.1509
 1886PAM     CN 1886   2.211   4.983   3.316 -0.1808 -0.1354  0.1906
 1887PAM     CN 1887   5.866   2.099   4.392 -0.3338 -0.0590  0.4580
 1888PAM     CN 1888   3.661   0.209   0.931 -0.1636  0.0126 -0.0275
 1889PAM     CN 1889   3.393   5.397   0.699  0.1536  0.1779 -0.1539
 1890PAM     CN 1890   6.382   5.659   2.723 -0.0471 -0.0403  0.2348
 1891PAM     CN 1891   2.918   0.526   4.110  0.3392  0.0572  0.0134
 1892PAM     CN 1892   3.032   4.072   5.305 -0.1457  0.1213  0.1424
 1893PAM     CN 1893   2.762   1.732   2.923 -0.1044 -0.1955 -0.3287
 1894PAM     CN 1894   2.482   2.220   1.961  0.0205 -0.0830 -0.2328
 1895PAM     CN 1895   2.605   5.680   1.294  0.1645  0.2773  0.0353
 1896PAM     CN 1896   1.899   2.226   5.285  0.0768  0.1651 -0.5208
 1897PAM     CN 1897   4.834   0.131   3.522  0.0318 -0.2221  0.0348
 1898PAM     CN 1898   5.364   1.232   1.510 -0.0333 -0.1014 -0.0205
 1899PAM     CN 1899   5.043   0.600   3.325 -0.1627 -0.3599 -0.2585
 1900PAM     CN 1900   0.441   3.673   3.924 -0.2101 -0.0991  0.0602
 1901PAM     CN 1901   1.396   4.158   4.381  0.2282  0.0974 -0.0588
 1902PAM     CN 1902   0.430   0.719   4.248  0.1488  0.1044 -0.0802
 1903PAM     CN 1903   4.272   3.769   3.210 -0.0639  0.1559 -0.0489
 1904PAM     CN 1904   1.867   2.908   6.430 -0.1168 -0.0368  0.5191
 1905PAM     CN 1905   3.420   4.122   6.382 -0.0021 -0.0082 -0.2902
 1906PAM     CN 1906   1.179   1.923   4.098 -0.2861  0.2113  0.1427
 1907PAM     CN 1907   4.837   4.387   0.108 -0.0074  0.1134  0.2893
 1908PAM     CN 1908   1.851   1.598   1.092 -0.1183 -0.2730 -0.3266
 1909PAM     CN 1909   4.806   4.224   2.017 -0.0903  0.0320  0.2715
 1910PAM     CN 1910   3.963   0.971   3.964  0.1295 -0.0232  0.1743
 1911PAM     CN 1911   4.655   0.243   0.255  0.4130  0.0083 -0.0270
 1912PAM     CN 1912   0.465   3.892   5.342 -0.0393  0.2474 -0.2018
 1913PAM     CN 1913   5.042   6.068   3.543 -0.1101  0.0489 -0.1171
 1914PAM     CN 1914   2.954   5.998   1.211 -0.0336 -0.1955  0.1205
 1915PAM     CN 1915   6.153   2.221   5.446  0.4184  0.0806 -0.0926
 1916PAM     CN 1916   1.588   3.528   4.536 -0.0645  0.0531 -0.0133
 1917PAM     CN 1917   0.453   5.392   6.137  0.0655  0.2822 -0.0261
 1918PAM     CN 1918   4.890   0.963   5.412  0.1541  0.0120  0.0673
 1919PAM     CN 1919   4.806   2.341   5.251  0.1725 -0.2146  0.2081
 1920PAM     CN 1920   4.780   3.527   2.905 -0.2281 -0.1084 -0.0183
 1921PAM     CN 1921   1.065   4.469   2.388 -0.0405 -0.0065 -0.1025
 1922PAM     CN 1922   0.681   2.654   2.082 -0.1860 -0.1310  0.3885
 1923PAM     CN 1923   5.384   4.961   0.830  0.1489  0.2528  0.0731
 1924PAM     CN 1924   4.069   2.018   1.484  0.0402 -0.0236 -0.2377
 1925PAM     CN 1925   4.565   4.145   1.452 -0.0103 -0.1546  0.0987
 1926PAM     CN 1926   1.359   1.074   1.648 -0.0238 -0.2823 -0.1987
 1927PAM     CN 1927   2.911   4.618   5.370  0.2108 -0.2052 -0.0974
 1928PAM     CN 1928   3.526   1.824   3.259 -0.3298 -0.0202 -0.1069
 1929PAM     CN 1929   1.380   0.575   0.263 -0.0853 -0.2938 -0.0237
 1930PAM     CN 1930   4.059   6.240   1.899  0.1093  0.1676 -0.0100
 1931PAM     CN 1931   3.517   3.864   4.714  0.1118  0.3283 -0.0946
 1932PAM     CN 1932   3.543   0.441   5.891 -0.1077  0.0411  0.2719
 1933PAM     CN 1933   2.329   4.137   0.534  0.0103 -0.1068  0.1579
 1934PAM     CN 1934   5.776   5.758   1.647  0.0380 -0.3752 -0.1311
 1935PAM     CN 1935   4.391   2.026   2.903  0.1919 -0.2710 -0.1162
 1936PAM     CN 1936   3.890   2.664   5.124  0.0697 -0.3677  0.0813
 1937PAM     CN 1937   2.030   0.545   2.292 -0.2272  0.0057  0.0936
 1938PAM     CN 1938   1.953   5.484   5.807 -0.2449  0.0984  0.0871
 1939PAM     CN 1939   0.833   0.984   2.705  0.2234  0.2615  0.0972
 1940PAM     CN 1940   6.032   5.401   2.541  0.1195 -0.0797  0.0358
 1941PAM     CN 1941   6.059   3.324   0.969 -0.0928  0.2226  0.0980
 1942PAM     CN 1942   4.862   0.841   2.143 -0.0622 -0.2001 -0.2539
 1943PAM     CN 1943   0.752   1.779   4.293  0.0559 -0.0826  0.1658
 1944PAM     CN 1944   1.624   6.090   2.192 -0.1649  0.6037 -0.1779
 1945PAM     CN 1945   4.511   4.935   1.758  0.0865  0.2474  0.1559
 1946PAM     CN 1946   4.577   0.155   4.014  0.1868 -0.1569  0.1614
 1947PAM     CN 1947   4.327   4.465   3.762 -0.0864  0.1568  0.0228
 1948PAM     CN 1948   2.244   4.897   0.122 -0.0744 -0.3583 -0.2235
 1949PAM     CN 1949   1.892   1.375   2.640  0.0209 -0.3428  0.1534
 1950PAM     CN 1950   1.225   2.872   1.533 -0.1056 -0.0157 -0.4097
 1951PAM     CN 1951   1.877   3.538   5.815 -0.2865 -0.1259 -0.2015
 1952PAM     CN 1952   4.054   1.332   2.687 -0.2396 -0.0661 -0.0788
 1953PAM     CN 1953   4.211   2.535   1.075  0.2729 -0.0267  0.2244
 1954PAM     CN 1954   4.430   3.293   3.258  0.1879  0.1084  0.2478
 1955PAM     CN 1955   0.661   4.178   4.970  0.1907 -0.0641 -0.2008
 1956PAM     CN 1956   3.858   4.012   0.305 -0.4798  0.0369  0.1229
 1957PAM     CN 1957   5.687   2.206   3.900  0.0484  0.2252  0.1039
 1958PAM     CN 1958   1.074   3.944   4.710 -0.4118  0.4873  0.0259
 1959PAM     CN 1959   3.288   0.820   1.965  0.1002 -0.0106 -0.1446
 1960PAM     CN 1960   3.213   3.538   6.137  0.2707 -0.2417  0.1768
 1961PAM     CN 1961   0.174   1.116   3.955 -0.0325 -0.0164 -0.1461
 1962PAM     CN 1962   6.062   3.479   3.194  0.2088 -0.0268 -0.3117
 1963PAM     CN 1963   5.720   5.089   0.376 -0.2567  0.0388  0.2307
 1964PAM     CN 1964   3.427   2.701   5.440 -0.1310  0.0966  0.0820
 1965PAM     CN 1965   3.335   6.179   4.369 -0.3063 -0.0159 -0.0333
 1966PAM     CN 1966   3.699   3.679   6.390 -0.2418  0.0007  0.1187
 1967PAM     CN 1967   3.976   6.324   4.453  0.0442 -0.1561  0.1219
 1968PAM     CN 1968   1.549   0.745   2.286  0.0361 -0.3410 -0.0059
 1969PAM     CN 1969   3.631   0.875   1.010 -0.1217 -0.1947 -0.1131
 1970PAM     CN 1970   4.137   5.132   2.782  0.0728  0.0264  0.3094
 1971PAM     CN 1971   5.082   1.031   4.724  0.1814  0.1263  0.1762
 1972PAM     CN 1972   1.226   3.559   1.939 -0.0804 -0.4038 -0.3238
 1973PAM     CN 1973   3.373   5.173   5.225  0.1875 -0.0530  0.1046
 1974PAM     CN 1974   5.246   3.790   3.040 -0.0138  0.0714 -0.1660
 1975PAM     CN 1975   4.675   0.788   0.244  0.0151 -0.0898 -0.0388
 1976PAM     CN 1976   1.349   2.703   2.270  0.0162 -0.0727  0.2118
 1977PAM     CN 1977   4.346   3.610   3.739  0.0798 -0.0602  0.0224
 1978PAM     CN 1978   6.377   0.520   0.945 -0.0843  0.1897 -0.0909
 1979PAM     CN 1979   2.135   4.925   5.640 -0.1593 -0.1292 -0.2519
 1980PAM     CN 1980   0.141   6.155   2.689 -0.1966 -0.2033  0.1680
 1981PAM     CN 1981   1.847   1.432   6.207  0.1411 -0.1942 -0.1726
 1982PAM     CN 1982   0.819   0.466   0.961 -0.0160 -0.4116  0.1054
 1983PAM     CN 1983   1.994   0.827   4.034 -0.3176  0.0380 -0.1351
 1984PAM     CN 1984   3.890   5.303   3.937  0.1026 -0.3579  0.0767
 1985PAM     CN 1985   6.101   4.080   4.710  0.0432 -0.1620  0.0980
 1986PAM     CN 1986   2.559   4.763   3.098 -0.1538  0.0724  0.0400
 1987PAM     CN 1987   5.301   2.104   3.231 -0.0491  0.1462  0.2005
 1988PAM     CN 1988   1.267   5.761   6.238 -0.1355  0.0059  0.2044
 1989PAM     CN 1989   3.409   5.860   1.938 -0.4588  0.1657  0.1789
 1990PAM     CN 1990   5.176   4.982   3.897 -0.0170 -0.1477 -0.0412
 1991PAM     CN 1991   5.754   0.641   2.635  0.0417  0.3913 -0.1285
 1992PAM     CN 1992   2.334   1.599   2.586  0.1455 -0.0639  0.2885
 1993PAM     CN 1993   5.699   6.072   5.285  0.2553 -0.1852  0.2324
 1994PAM     CN 1994   5.509   3.512   5.055 -0.0787  0.0164 -0.0442
 1995PAM     CN 1995   5.741   2.057   2.884  0.0027 -0.0986 -0.0126
 1996PAM     CN 1996   4.741   2.327   0.651 -0.1662  0.3999  0.0429
 1997PAM     CN 1997   3.911   1.858   2.731 -0.4815 -0.1199  0.1508
 1998PAM     CN 1998   4.843   0.680   4.491  0.1058 -0.1413  0.0567
 1999PAM     CN 1999   2.888   4.902   2.796  0.2399  0.0247 -0.0175
 2000PAM     CN 2000   1.467   2.776   4.945  0.0079 -0.3075  0.1073
 2001PAM     CN 2001   1.746   4.006   4.690 -0.2106 -0.0168  0.0997
 2002PAM     CN 2002   5.283   6.005   5.708 -0.0803  0.1480  0.0252
 2003PAM     CN 2003   3.580   1.241   2.652  0.0607 -0.0500 -0.2552
 2004PAM     CN 2004   5.761   0.053   3.267  0.2614 -0.2043 -0.0746
 2005PAM     CN 2005   1.191   1.765   5.410 -0.1279  0.1926 -0.0424
 2006PAM     CN 2006   3.365   3.058   4.143  0.2200 -0.0299  0.0927
 2007PAM     CN 2007   5.818   6.184   4.613 -0.0583 -0.0336  0.2633
 2008PAM     CN 2008   3.492   3.349   5.600  0.6220 -0.2419 -0.0814
 2009PAM     CN 2009   5.433   2.881   4.649 -0.3353  0.1443  0.0132
 2010PAM     CN 2010   5.813   3.623   3.699  0.2586  0.1480 -0.1138
 2011PAM     CN 2011   5.557   0.201   1.867 -0.1192 -0.2165  0.1461
 2012PAM     CN 2012   4.990   5.037   1.732 -0.0339 -0.2421 -0.1318
 2013PAM     CN 2013   0.553   1.187   6.337  0.0190 -0.1780  0.2880
 2014PAM     CN 2014   1.199   0.451   2.531 -0.0233 -0.2480 -0.0167
 2015PAM     CN 2015   5.659   1.159   3.492  0.0064 -0.0971  0.1333
 2016PAM     CN 2016   4.754   3.323   3.875  0.2553 -0.0636  0.1474
 2017PAM     CN 2017   5.414   2.747   1.662 -0.2702  0.1554 -0.0662
 2018PAM     CN 2018   2.695   0.868   1.420 -0.3358 -0.1124 -0.2971
 2019PAM     CN 2019   1.709   5.063   4.508  0.4503 -0.1103  0.0208
 2020PAM     CN 2020   4.113   0.471   5.909  0.0791 -0.3850  0.1129
 2021PAM     CN 2021   3.543   2.277   3.563 -0.0106 -0.0552 -0.0592
 2022PAM     CN 2022   1.001   2.562   4.803  0.1389 -0.2890 -0.1189
 2023PAM     CN 2023   2.152   4.509   2.366  0.0551  0.1703 -0.2310
 2024PAM     CN 2024   4.039   1.099   3.214 -0.1273 -0.3336 -0.0680
 2025PAM     CN 2025   6.233   2.310   4.796  0.1413 -0.0657 -0.1843
 2026PAM     CN 2026   3.967   3.159   0.855 -0.1537 -0.4698  0.4276
 2027PAM     CN 2027   2.849   0.817   0.097 -0.0357  0.1994 -0.0636
 2028PAM     CN 2028   5.985   5.966   0.018 -0.3304  0.1647  0.2027
 2029PAM     CN 2029   4.140   0.179   3.770  0.2708  0.1533  0.0599
 2030PAM     CN 2030   1.039   1.791   3.601 -0.0600 -0.3124  0.3342
 2031PAM     CN 2031   0.012   5.425   0.031 -0.0637 -0.1010 -0.1942
 2032PAM     CN 2032   2.156   4.821   1.562  0.0842 -0.1433 -0.1604
 2033PAM     CN 2033   1.072   2.690   5.353  0.0330  0.0120  0.2782
 2034PAM     CN 2034   2.986   0.893   5.847 -0.0834 -0.2332 -0.1142
 2035PAM     CN 2035   4.425   4.969   5.205  0.1123 -0.2953 -0.2061
 2036PAM     CN 2036   0.335   0.165   2.378 -0.1697  0.1417  0.3538
 2037PAM     CN 2037   1.556   0.131   0.170  0.0501  0.3031 -0.1220
 2038PAM     CN 2038   0.016   3.955   5.210  0.2455 -0.1617  0.2655
 2039PAM     CN 2039   1.159   2.607   0.625  0.0512  0.2029  0.1574
 2040PAM     CN 2040   3.137   6.340   0.121 -0.2106 -0.1512  0.1799
 2041PAM     CN 2041   3.849   0.623   5.479 -0.2142 -0.0647 -0.0424
 2042PAM     CN 2042   2.158   4.649   5.175  0.1034  0.1616  0.1664
 2043PAM     CN 2043   3.863   5.225   5.389  0.1415  0.0652 -0.2669
 2044PAM     CN 2044   2.002   2.136   3.170 -0.1314  0.2073 -0.2570
 2045PAM     CN 2045   0.271   4.149   6.395  0.1987 -0.1252 -0.0682
 2046PAM     CN 2046   0.159   1.540   3.053 -0.0933 -0.0572  0.0437
 2047PAM     CN 2047   0.677   1.535   3.825  0.2348  0.0696  0.1186
 2048PAM     CN 2048   4.212   3.437   6.318  0.2941  0.2004 -0.0364
 2049PAM     CN 2049   6.374   6.462   3.157  0.2387  0.0139  0.5372
 2050PAM     CN 2050   1.972   0.195   1.670 -0.0784 -0.0754 -0.1975
 2051PAM     CN 2051   1.320   3.966   2.219 -0.0713  0.1048  0.0210
 2052PAM     CN 2052   0.087   4.149   3.637  0.0046 -0.0143 -0.1909
 2053PAM     CN 2053   1.862   0.666   3.192  0.0225 -0.0634 -0.0855
 2054PAM     CN 2054   1.257   5.872   0.417  0.1625 -0.0800 -0.1045
 2055PAM     CN 2055   0.108   2.077   0.159 -0.3871  0.2851 -0.0990
 2056PAM     CN 2056   1.868   1.226   4.387 -0.1842  0.3215  0.0903
 2057PAM     CN 2057   2.649   0.751   2.778 -0.2527  0.1349  0.0788
 2058PAM     CN 2058   4.314   4.552   2.849 -0.2315 -0.0953 -0.0597
 2059PAM     CN 2059   5.725   4.577   0.645 -0.1224 -0.0770  0.0985
 2060PAM     CN 2060   3.793   1.519   2.252 -0.4622  0.0148 -0.2121
 2061PAM     CN 2061   5.163   6.377   2.780 -0.1140  0.2779  0.1472
 2062PAM     CN 2062   4.583   0.527   3.459 -0.0429  0.0064 -0.1285
 2063PAM     CN 2063   5.901   0.049   5.240 -0.0388  0.1307  0.2888
 2064PAM     CN 2064   0.255   1.505   5.180 -0.2005  0.2108  0.4036
 2065PAM     CN 2065   0.872   3.562   5.146  0.0193  0.2778 -0.3508
 2066PAM     CN 2066   3.912   5.701   5.771 -0.1817  0.0051  0.1213
 2067PAM     CN 2067   5.938   1.004   2.939 -0.2393  0.0649  0.3905
 2068PAM     CN 2068   3.568   2.163   6.115 -0.2442  0.1138 -0.2968
 2069PAM     CN 2069   6.240   0.836   4.078  0.2708 -0.1807 -0.0319
 2070PAM     CN 2070   2.727   6.010   4.428 -0.0829  0.1646 -0.1003
 2071PAM     CN 2071   5.692   3.780   0.038 -0.0335 -0.1875  0.1140
 2072PAM     CN 2072   5.404   3.783   5.514 -0.0307 -0.0139 -0.1722
 2073PAM     CN 2073   4.970   3.374   1.852 -0.2069 -0.0090 -0.0478
 2074PAM     CN 2074   0.242   1.170   1.625  0.1674  0.2439  0.0652
 2075PAM     CN 2075   6.363   0.721   0.451 -0.1167 -0.0254 -0.2103
 2076PAM     CN 2076   3.111   4.022   5.773  0.1669  0.1373 -0.1205
 2077PAM     CN 2077   3.221   2.435   2.402  0.2336 -0.1273  0.0289
 2078PAM     CN 2078   5.631   5.397   5.954 -0.0542 -0.1049  0.2255
 2079PAM     CN 2079   6.040   0.283   2.411 -0.0026  0.3930  0.1192
 2080PAM     CN 2080   2.335   0.108   4.908  0.1779  0.0430 -0.0032
 2081PAM     CN 2081   0.245   0.542   4.714  0.0236  0.1635 -0.1965
 2082PAM     CN 2082   5.748   3.677   2.806 -0.0756  0.0441 -0.3513
 2083PAM     CN 2083   4.726   3.057   6.017  0.0126 -0.1136 -0.0286
 2084PAM     CN 2084   5.848   1.890   1.449  0.0428 -0.0422  0.1202
 2085PAM     CN 2085   1.175   6.397   0.355 -0.2775 -0.0676  0.0799
 2086PAM     CN 2086   5.228   2.372   6.281 -0.1183  0.0564  0.2476
 2087PAM     CN 2087   3.990   5.176   5.882 -0.2254 -0.1922 -0.1646
 2088PAM     CN 2088   1.554   3.927   1.738 -0.3485 -0.2790  0.2765
 2089PAM     CN 2089   0.396   4.957   2.289  0.0582 -0.1617 -0.1862
 2090PAM     CN 2090   0.365   0.431   2.803  0.4215 -0.1294 -0.3130
 2091PAM     CN 2091   0.926   3.907   6.279 -0.5368 -0.1032  0.0452
 2092PAM     CN 2092   2.350   5.014   0.576  0.0065 -0.1126  0.0513
 2093PAM     CN 2093   1.639   4.739   1.506 -0.1708  0.0199  0.2931
 2094PAM     CN 2094   6.164   6.153   2.754  0.2972  0.0376 -0.1482
 2095PAM     CN 2095   0.268   4.875   0.845 -0.1576 -0.1001 -0.3335
 2096PAM     CN 2096   5.772   0.783   1.843  0.0166 -0.1714 -0.1201
 2097PAM     CN 2097   3.750   1.172   1.665 -0.1109  0.1405  0.3801
 2098PAM     CN 2098   2.212   1.816   3.584  0.1885  0.1891  0.0382
 2099PAM     CN 2099   0.723   0.996   3.834 -0.0561  0.2302 -0.1558
 2100PAM     CN 2100   4.692   2.406   4.167  0.1754 -0.0545 -0.3194
 2101PAM     CN 2101   5.847   3.858   1.863  0.4205  0.2571  0.2040
 2102PAM     CN 2102   6.366   2.506   1.482 -0.0671 -0.0484 -0.0977
 2103PAM     CN 2103   4.385   3.990   0.794 -0.0953  0.2680 -0.0534
 2104PAM     CN 2104   0.034   3.252   2.437 -0.0089  0.1307 -0.0816
 2105PAM     CN 2105   5.705   3.854   5.996  0.1253  0.0437  0.2731
 2106PAM     CN 2106   5.941   3.414   0.526 -0.0339 -0.0265  0.0574
 2107PAM     CN 2107   5.948   0.287   0.614  0.1677 -0.0147 -0.0642
 2108PAM     CN 2108   3.660   1.804   3.723  0.1907  0.1469 -0.1265
 2109PAM     CN 2109   3.855   4.032   0.836 -0.1187 -0.0964 -0.2023
 2110PAM     CN 2110   6.472   0.724   1.434 -0.3775  0.0203 -0.2110
 2111PAM     CN 2111   1.389   1.280   6.165  0.1469 -0.1323 -0.0395
 2112PAM     CN 2112   3.827   4.432   5.800 -0.2313  0.3087  0.1574
 2113PAM     CN 2113   3.798   4.667   4.470 -0.1121 -0.1140  0.0435
 2114PAM     CN 2114   4.907   1.776   5.150  0.2776 -0.0359 -0.0074
 2115PAM     CN 2115   4.921   4.870   4.417  0.1718 -0.1035  0.0783
 2116PAM     CN 2116   1.528   5.732   2.872 -0.3237  0.1577 -0.1061
 2117PAM     CN 2117   2.105   2.564   1.625  0.1098  0.1371  0.2732
 2118PAM     CN 2118   5.878   2.616   2.921  0.1350  0.0227  0.1075
 2119PAM     CN 2119   2.254   5.773   4.366  0.0492 -0.0983 -0.0503
 2120PAM     CN 2120   2.716   3.734   5.899 -0.3250  0.2965 -0.1778
 2121PAM     CN 2121   3.728   5.430   4.972 -0.1184 -0.1178 -0.0623
 2122PAM     CN 2122   5.688   2.606   4.206  0.0912  0.0132  0.0256
 2123PAM     CN 2123   2.957   2.555   4.906 -0.0944 -0.0047 -0.0534
 2124PAM     CN 2124   2.735   5.139   3.880  0.2873  0.0566  0.0972
 2125PAM     CN 2125   3.780   4.123   5.428  0.0301 -0.2300  0.1606
 2126PAM     CN 2126   4.626   4.959   2.624 -0.1198 -0.2482  0.1001
 2127PAM     CN 2127   0.727   3.880   4.315  0.6443  0.0787 -0.0679
 2128PAM     CN 2128   4.896   5.828   2.847  0.2733  0.2550 -0.2554
 2129PAM     CN 2129   0.105   3.537   5.988  0.1656 -0.2843 -0.0288
 2130PAM     CN 2130   5.522   0.857   0.091  0.1404 -0.0079 -0.1599
 2131PAM     CN 2131   4.168   1.308   4.869  0.2363 -0.1388 -0.2103
 2132PAM     CN 2132   3.464   3.141   0.764 -0.0551 -0.0397  0.2130
 2133PAM     CN 2133   2.988   1.597   2.397  0.0713 -0.2496 -0.5074
 2134PAM     CN 2134   5.082   5.286   4.791  0.2454  0.2791 -0.0819
 2135PAM     CN 2135   6.338   1.913   0.692 -0.2343 -0.2675  0.1365
 2136PAM     CN 2136   3.530   1.356   1.196  0.0252 -0.2323  0.1612
 2137PAM     CN 2137   0.331   2.254   1.420 -0.0858  0.0470  0.1410
 2138PAM     CN 2138   4.018   1.347   3.637 -0.1895 -0.0580 -0.0385
 2139PAM     CN 2139   1.775   0.833   4.924  0.1678 -0.2385 -0.1369
 2140PAM     CN 2140   0.721   5.212   2.578  0.1172 -0.0795 -0.0119
 2141PAM     CN 2141   5.411   2.762   5.172 -0.0874  0.3842 -0.0168
 2142PAM     CN 2142   6.304   0.720   5.043 -0.0690 -0.0074 -0.0173
 2143PAM     CN 2143   1.762   3.238   4.951  0.3349  0.2055 -0.2384
 2144PAM     CN 2144   4.444   1.653   0.174  0.2790 -0.1425  0.0233
 2145PAM     CN 2145   0.353   6.455   1.499 -0.1633 -0.1131 -0.0542
 2146PAM     CN 2146   3.956   2.094   3.382  0.1552  0.3295 -0.3510
 2147PAM     CN 2147   0.925   5.241   5.747 -0.2787  0.4308 -0.1895
 2148PAM     CN 2148   3.763   4.472   0.049 -0.0722 -0.2286 -0.1634
 2149PAM     CN 2149   1.836   5.096   4.004  0.0063 -0.2283 -0.0452
 2150PAM     CN 2150   0.514   2.810   5.358  0.0343 -0.0479 -0.1846
 2151PAM     CN 2151   4.335   5.445   4.115  0.0207  0.2154  0.1671
 2152PAM     CN 2152   2.134   3.609   0.609  0.2440 -0.1649 -0.0916
 2153PAM     CN 2153   1.480   0.913   3.485  0.2986 -0.3094 -0.1448
 2154PAM     CN 2154   3.129   4.512   0.729  0.1617 -0.0674  0.0012
 2155PAM     CN 2155   3.708   3.158   6.325  0.1869 -0.1438  0.2341
 2156PAM     CN 2156   4.572   4.716   5.749 -0.1626 -0.0175 -0.0264
 2157PAM     CN 2157   5.910   4.630   1.409  0.0842  0.1393 -0.1061
 2158PAM     CN 2158   2.510   6.003   1.739  0.0860  0.4296  0.2167
 2159PAM     CN 2159   4.145   4.444   0.623  0.3242 -0.0385 -0.2442
 2160PAM     CN 2160   6.156   5.118   3.660  0.1530  0.0544  0.1604
 2161PAM     CN 2161   3.538   3.769   0.577 -0.0696 -0.0106 -0.2468
 2162PAM     CN 2162   5.810   3.902   0.881 -0.0169 -0.0418 -0.1804
 2163PAM     CN 2163   2.503   6.167   3.992  0.1933 -0.0074  0.0647
 2164PAM     CN 2164   6.349   4.177   2.861  0.2843 -0.1893 -0.1158
 2165PAM     CN 2165   2.024   6.248   3.937  0.0633  0.0311 -0.1335
 2166PAM     CN 2166   1.562   3.688   5.469 -0.0705  0.0440 -0.0415
 2167PAM     CN 2167   1.049   1.399   4.148  0.0074  0.0793 -0.2306
 2168PAM     CN 2168   3.221   3.107   0.315  0.0713  0.3068  0.2886
 2169PAM     CN 2169   3.456   4.866   1.913 -0.1265 -0.2729 -0.0787
 2170PAM     CN 2170   4.948   0.517   3.950 -0.3213 -0.2781 -0.0875
 2171PAM     CN 2171   2.121   6.148   3.022  0.1908 -0.0457  0.1569
 2172PAM     CN 2172   1.977   1.327   3.889 -0.3410 -0.0770 -0.1404
 2173PAM     CN 2173   6.456   4.579   2.073  0.1263  0.2306 -0.2327
 2174PAM     CN 2174   4.123   0.303   4.278  0.0634  0.1137  0.1694
 2175PAM     CN 2175   5.377   5.087   3.276 -0.1804 -0.2949 -0.1130
 2176PAM     CN 2176   4.032   0.600   0.962  0.2189 -0.1718  0.0431
 2177PAM     CN 2177   0.924   5.916   1.330  0.1627  0.0124  0.0687
 2178PAM     CN 2178   1.710   5.703   1.926  0.0999  0.3246 -0.1599
 2179PAM     CN 2179   6.141   2.842   1.798  0.2886 -0.0428 -0.0606
 2180PAM     CN 2180   4.778   6.193   0.425  0.0615 -0.0129 -0.1887
 2181PAM     CN 2181   5.021   0.984   6.397  0.2818 -0.0270 -0.2067
 2182PAM     CN 2182   1.907   3.546   1.569  0.2443 -0.0607 -0.1726
 2183PAM     CN 2183   3.796   2.215   4.697  0.0904  0.0058  0.0987
 2184PAM     CN 2184   5.195   2.940   2.733 -0.0838 -0.0157 -0.1070
 2185PAM     CN 2185   3.759   6.222   1.161 -0.0184  0.4435 -0.4111
 2186PAM     CN 2186   3.488   0.186   0.468 -0.0211  0.1708 -0.1361
 2187PAM     CN 2187   6.457   2.163   5.847  0.1257 -0.1052  0.0745
 2188PAM     CN 2188   1.636   4.536   6.061 -0.2949 -0.2702  0.0459
 2189PAM     CN 2189   1.151   3.096   0.423 -0.1296 -0.1649  0.0075
 2190PAM     CN 2190   3.470   3.574   3.944  0.0142 -0.0555  0.0312
 2191PAM     CN 2191   0.132   0.252   1.890  0.2155  0.3136 -0.3846
 2192PAM     CN 2192   6.102   1.185   4.738  0.0642  0.1134 -0.2418
 2193PAM     CN 2193   4.383   4.212   0.282  0.0667 -0.0973  0.0366
 2194PAM     CN 2194   0.119   5.808   4.312  0.0866  0.2171 -0.0389
 2195PAM     CN 2195   5.994   4.304   0.232 -0.1500 -0.0580  0.0806
 2196PAM     CN 2196   1.077   0.819   1.146  0.0784  0.0822 -0.3884
 2197PAM     CN 2197   3.473   1.416   0.204 -0.0095  0.0250 -0.2146
   6.47469   6.47469   6.47469
