Octane box
 2366
    1OCT     C1    1   4.067   1.803   4.679 -0.0693 -0.2126 -0.0280
    1OCT     C2    2   3.690   2.012   4.741 -0.1471 -0.1875  0.2925
    2OCT     C1    3   6.153   1.745   5.308  0.1526  0.0294 -0.0074
    2OCT     C2    4   5.933   2.018   5.404  0.0818 -0.0721 -0.1464
    3OCT     C1    5   2.632   0.470   5.257 -0.1937 -0.1436 -0.0843
    3OCT     C2    6   2.625   0.925   5.476  0.0484 -0.0759 -0.1167
    4OCT     C1    7   4.736   6.047   3.258  0.2569  0.2399 -0.1538
    4OCT     C2    8   4.669   5.880   2.783 -0.0101  0.1281 -0.1223
    5OCT     C1    9   3.231   2.610   4.271 -0.3066  0.4448  0.1316
    5OCT     C2   10   3.500   2.973   4.152 -0.0380  0.0749 -0.1219
    6OCT     C1   11   4.187   4.467   0.215 -0.1420 -0.0009  0.0835
    6OCT     C2   12   4.214   4.900  -0.027 -0.0937  0.1377  0.0979
    7OCT     C1   13   5.386   3.387   4.993 -0.1236 -0.1004 -0.0404
    7OCT     C2   14   5.362   3.761   4.815 -0.2120  0.0185 -0.0470
    8OCT     C1   15   2.485   3.061   6.025 -0.1425  0.1732  0.0537
    8OCT     C2   16   2.514   2.683   6.097  0.1243 -0.1776  0.2498
    9OCT     C1   17   5.977   5.547   5.732 -0.2279  0.1344  0.0249
    9OCT     C2   18   6.315   5.821   5.717 -0.0808  0.1773 -0.2227
   10OCT     C1   19   5.370   5.608   5.678 -0.2549 -0.1560  0.1583
   10OCT     C2   20   5.102   5.642   5.385  0.0834 -0.0840 -0.0527
   11OCT     C1   21   6.414   4.977   2.100 -0.0436  0.0818 -0.1068
   11OCT     C2   22   6.554   4.812   1.708 -0.0989  0.1408 -0.1018
   12OCT     C1   23   3.777   0.253   0.216  0.1911 -0.0260 -0.0131
   12OCT     C2   24   4.230   0.172   0.259 -0.2149  0.1281  0.0626
   13OCT     C1   25   4.916   1.872   4.638  0.0413 -0.1631 -0.0064
   13OCT     C2   26   4.684   1.727   4.265 -0.1014 -0.0972 -0.0053
   14OCT     C1   27   6.574   1.389   5.329  0.0591  0.0396  0.0019
   14OCT     C2   28   6.869   1.751   5.306 -0.1992 -0.0046 -0.2457
   15OCT     C1   29   0.944   5.991   2.691  0.0279 -0.1998 -0.0160
   15OCT     C2   30   0.856   6.321   2.324  0.0247 -0.1833  0.2705
   16OCT     C1   31   2.089   3.506   2.610  0.1418 -0.2143  0.0274
   16OCT     C2   32   2.145   3.390   2.193 -0.0528  0.0246 -0.2340
   17OCT     C1   33   4.573   3.541   4.390 -0.2419  0.1034  0.2453
   17OCT     C2   34   5.052   3.753   4.420 -0.0654  0.2301  0.3340
   18OCT     C1   35   6.429   2.555   4.760 -0.1365  0.1521  0.0012
   18OCT     C2   36   6.647   2.865   4.882 -0.0901  0.1871  0.0732
   19OCT     C1   37   6.295   3.330   3.770 -0.2982 -0.2477  0.1844
   19OCT     C2   38   6.359   2.874   3.748 -0.2232  0.0035  0.1032
   20OCT     C1   39   0.908   4.174   5.343  0.0334 -0.1039 -0.1417
   20OCT     C2   40   0.644   3.968   5.663  0.1955  0.0649  0.1039
   21OCT     C1   41   1.259   5.566   1.998  0.2246  0.0518 -0.1238
   21OCT     C2   42   1.622   5.749   1.994 -0.0894 -0.0128 -0.1638
   22OCT     C1   43   1.471   1.954   4.711 -0.1493  0.2566  0.0450
   22OCT     C2   44   1.537   2.158   5.163 -0.0595 -0.0350  0.2395
   23OCT     C1   45   3.611   6.177   3.927 -0.2551  0.3236  0.1191
   23OCT     C2   46   3.313   5.875   3.966  0.0804 -0.1284  0.0652
   24OCT     C1   47   5.615   5.247   3.418  0.0579  0.1050 -0.1190
   24OCT     C2   48   5.995   5.430   3.305  0.0910 -0.1232 -0.3932
   25OCT     C1   49   2.763   5.793   2.531 -0.1163 -0.0063  0.2920
   25OCT     C2   50   3.145   6.113   2.452 -0.1058  0.3274  0.0316
   26OCT     C1   51   6.158   0.708   1.339 -0.1555 -0.0866 -0.1017
   26OCT     C2   52   6.606   0.770   1.148 -0.1419 -0.1608 -0.1283
   27OCT     C1   53   4.115   4.819   4.570 -0.2059  0.0756 -0.1443
   27OCT     C2   54   3.824   4.689   4.382 -0.0397  0.1415  0.0344
   28OCT     C1   55   1.932   2.867   1.010 -0.2033  0.2451  0.1403
   28OCT     C2   56   2.186   3.140   0.884  0.1667  0.0342 -0.0730
   29OCT     C1   57   2.910   2.944   4.098 -0.1032  0.2227  0.1066
   29OCT     C2   58   2.792   2.949   4.505 -0.0735  0.0742 -0.0733
   30OCT     C1   59   1.135   0.017   4.734  0.1829 -0.0719  0.1304
   30OCT     C2   60   1.615   0.125   4.554 -0.2621 -0.4337 -0.0332
   31OCT     C1   61   6.423   3.127   5.319 -0.0527  0.2444  0.0737
   31OCT     C2   62   6.753   3.420   5.110 -0.0876  0.0387  0.0098
   32OCT     C1   63   5.839   0.281   0.351 -0.0674 -0.1185 -0.0839
   32OCT     C2   64   6.254   0.364   0.403  0.2210 -0.1724  0.2143
   33OCT     C1   65   1.743   5.948   2.695  0.1130  0.2093  0.2426
   33OCT     C2   66   1.379   5.682   2.651  0.1320 -0.0225  0.1695
   34OCT     C1   67   4.659   3.281   0.163 -0.0579 -0.2021 -0.4309
   34OCT     C2   68   4.371   2.998  -0.010  0.2272  0.0886  0.0605
   35OCT     C1   69   0.730   3.669   2.737  0.0135 -0.0584 -0.0266
   35OCT     C2   70   0.731   4.062   2.991  0.1419 -0.0964 -0.1535
   36OCT     C1   71   1.962   0.890   1.976 -0.0819  0.2488  0.1536
   36OCT     C2   72   2.066   1.328   2.013 -0.0565 -0.1036  0.1655
   37OCT     C1   73   4.399   2.330   3.883  0.3049  0.1779 -0.1021
   37OCT     C2   74   4.267   1.894   4.087  0.0494  0.2361 -0.0389
   38OCT     C1   75   2.561   4.306   5.213 -0.1002  0.3719 -0.0445
   38OCT     C2   76   2.755   4.446   4.892 -0.0141 -0.3403  0.3302
   39OCT     C1   77   6.457   5.386   2.777 -0.2851 -0.4031 -0.0565
   39OCT     C2   78   6.621   5.273   2.436 -0.0950 -0.0897  0.0597
   40OCT     C1   79   5.455   1.760   3.078  0.0935  0.2055  0.1456
   40OCT     C2   80   5.389   2.137   3.035 -0.2496  0.0644  0.2355
   41OCT     C1   81   6.625   2.821   0.627 -0.0557 -0.2577 -0.1199
   41OCT     C2   82   6.998   2.778   0.720 -0.0575  0.2437  0.0807
   42OCT     C1   83   2.345   5.335   2.437 -0.2387 -0.2050  0.0070
   42OCT     C2   84   2.191   5.058   2.008 -0.2225 -0.1570  0.0451
   43OCT     C1   85   4.652   4.266   1.951  0.1375  0.0746  0.2748
   43OCT     C2   86   4.520   4.713   1.786 -0.0137 -0.0700  0.1612
   44OCT     C1   87   5.453   6.341   4.372 -0.1481  0.1442 -0.0976
   44OCT     C2   88   5.002   6.186   4.290  0.2525 -0.1748 -0.2749
   45OCT     C1   89   1.459   2.516   3.539 -0.1851  0.0192 -0.4687
   45OCT     C2   90   1.285   2.876   3.560  0.4485 -0.0138  0.0340
   46OCT     C1   91   4.735   5.183   1.020 -0.2111 -0.1919  0.0293
   46OCT     C2   92   4.621   5.250   0.648  0.0328  0.0603  0.3786
   47OCT     C1   93   1.299   4.060   0.972  0.0569  0.0317  0.1676
   47OCT     C2   94   1.634   4.453   1.115 -0.0672 -0.2296 -0.0458
   48OCT     C1   95   6.627   0.872   1.700 -0.2372 -0.0554  0.0581
   48OCT     C2   96   6.999   0.929   1.497  0.3180  0.2019  0.1154
   49OCT     C1   97   5.206   5.632   0.712 -0.2031 -0.1192  0.2423
   49OCT     C2   98   5.472   6.033   0.600 -0.0534  0.0978 -0.5736
   50OCT     C1   99   2.562   3.119   5.067 -0.0183  0.3206  0.1081
   50OCT     C2  100   2.411   3.273   5.612 -0.1813 -0.0390  0.1106
   51OCT     C1  101   5.442   0.091   1.292 -0.1112 -0.0048 -0.1256
   51OCT     C2  102   5.620  -0.099   1.656  0.1714  0.0682 -0.1158
   52OCT     C1  103   2.264   2.268   5.240 -0.0732 -0.1364  0.0234
   52OCT     C2  104   2.283   2.510   4.959 -0.0688 -0.4533 -0.2126
   53OCT     C1  105   1.161   4.165   0.015 -0.2497  0.1590  0.1256
   53OCT     C2  106   0.756   4.210  -0.265 -0.0572 -0.0965 -0.3952
   54OCT     C1  107   1.811   3.404   0.663  0.1766  0.0410 -0.0626
   54OCT     C2  108   1.653   3.091   0.642 -0.0508 -0.2093 -0.2313
   55OCT     C1  109   2.382   4.378   4.122  0.1314  0.4062 -0.1724
   55OCT     C2  110   2.406   4.467   3.695  0.0165 -0.1508  0.1061
   56OCT     C1  111   3.026   4.260   1.054  0.0804  0.3892  0.0263
   56OCT     C2  112   2.863   3.852   1.207  0.0657  0.1525 -0.1329
   57OCT     C1  113   1.167   2.058   3.760  0.2529 -0.2763  0.1218
   57OCT     C2  114   1.511   1.865   3.563 -0.0555 -0.2364  0.1062
   58OCT     C1  115   2.069   5.792   2.419  0.7445  0.0981 -0.1035
   58OCT     C2  116   2.128   5.541   2.051 -0.1799 -0.0829  0.1609
   59OCT     C1  117   6.241   2.061   1.913  0.1915 -0.0729 -0.0061
   59OCT     C2  118   5.939   1.673   1.772  0.1362 -0.1483  0.1251
   60OCT     C1  119   4.605   3.628   3.052  0.1655 -0.1452 -0.2354
   60OCT     C2  120   4.371   3.373   2.743  0.0280 -0.1006 -0.2515
   61OCT     C1  121   0.595   2.698   3.234 -0.1703 -0.2072 -0.2517
   61OCT     C2  122   0.883   2.980   3.179 -0.1937  0.1394  0.2029
   62OCT     C1  123   6.444   1.098   0.776  0.2483 -0.0467 -0.1819
   62OCT     C2  124   6.034   0.912   0.868 -0.2580  0.1036 -0.0757
   63OCT     C1  125   2.562   2.094   4.740  0.0801  0.0148 -0.3839
   63OCT     C2  126   2.964   1.891   4.720 -0.1897  0.0079  0.0551
   64OCT     C1  127   3.425   2.837   5.921  0.1766  0.3805 -0.0653
   64OCT     C2  128   3.470   2.453   5.762  0.3204 -0.0316 -0.0462
   65OCT     C1  129   3.216   2.500   6.257  0.1550 -0.2865 -0.0302
   65OCT     C2  130   2.851   2.911   6.321 -0.3400 -0.2395  0.0214
   66OCT     C1  131   1.677   2.913   1.469  0.0855  0.4678  0.0470
   66OCT     C2  132   1.494   3.143   1.158 -0.1999 -0.0745  0.3669
   67OCT     C1  133   1.827   1.115   0.590 -0.0959  0.0987 -0.0087
   67OCT     C2  134   2.008   1.309   0.191 -0.1308 -0.1393 -0.0809
   68OCT     C1  135   0.939   6.036   1.099 -0.0450  0.1203 -0.1345
   68OCT     C2  136   0.812   6.188   0.664  0.1431 -0.0992 -0.0495
   69OCT     C1  137   3.491   0.556   4.529  0.1176 -0.0216  0.1928
   69OCT     C2  138   3.569   0.673   4.181 -0.3543  0.1073  0.3131
   70OCT     C1  139   5.009   5.045   2.451 -0.1912 -0.2238 -0.3434
   70OCT     C2  140   5.421   5.154   2.570  0.2396 -0.0842  0.1137
   71OCT     C1  141   6.290   0.666   4.614  0.0752 -0.0224 -0.2621
   71OCT     C2  142   6.698   0.452   4.808  0.0656  0.2009  0.0121
   72OCT     C1  143   6.602   0.332   0.001 -0.0844  0.1224 -0.0571
   72OCT     C2  144   6.579  -0.034   0.225 -0.0943  0.3034 -0.1005
   73OCT     C1  145   6.260   6.294   2.565 -0.2023  0.4546  0.1357
   73OCT     C2  146   6.489   6.595   2.834 -0.1692 -0.2928 -0.0821
   74OCT     C1  147   0.290   3.346   4.485 -0.4374  0.1400  0.0509
   74OCT     C2  148   0.271   2.885   4.511 -0.1083  0.0369  0.2859
   75OCT     C1  149   5.254   1.349   5.469 -0.0501  0.0796  0.1481
   75OCT     C2  150   5.424   0.971   5.394 -0.1590  0.0549  0.0816
   76OCT     C1  151   0.107   2.622   0.267 -0.0162  0.2020 -0.0492
   76OCT     C2  152  -0.186   2.818   0.019 -0.1266  0.1425 -0.2540
   77OCT     C1  153   3.751   3.543   6.295 -0.0578 -0.0581  0.0102
   77OCT     C2  154   4.083   3.341   6.551 -0.0951 -0.0593  0.1498
   78OCT     C1  155   4.922   3.397   5.280 -0.0534  0.0953  0.3719
   78OCT     C2  156   5.333   3.571   5.472  0.2186  0.0054  0.2555
   79OCT     C1  157   0.214   2.792   1.302  0.1684 -0.2363 -0.1353
   79OCT     C2  158  -0.046   3.057   1.044  0.0593 -0.1331  0.0398
   80OCT     C1  159   1.571   0.856   1.552  0.0057  0.0645  0.0090
   80OCT     C2  160   1.352   0.856   1.854  0.1692 -0.2243  0.1590
   81OCT     C1  161   4.326   2.959   5.834  0.3577 -0.0461 -0.1857
   81OCT     C2  162   4.439   2.560   5.769 -0.1519  0.4320  0.0023
   82OCT     C1  163   1.292   3.370   5.376  0.2612 -0.1904 -0.3560
   82OCT     C2  164   1.277   3.111   5.107 -0.4740  0.1645  0.1418
   83OCT     C1  165   3.722   0.436   2.419  0.3034 -0.2240  0.0680
   83OCT     C2  166   3.647   0.555   2.809  0.0567 -0.2019 -0.1911
   84OCT     C1  167   3.113   5.544   0.134 -0.1984  0.6982  0.1278
   84OCT     C2  168   3.506   5.811   0.243  0.0239  0.2926  0.0894
   85OCT     C1  169   3.267   2.212   2.904  0.1123  0.3587  0.0652
   85OCT     C2  170   2.818   2.069   3.011 -0.2878 -0.0847 -0.6308
   86OCT     C1  171   0.748   1.057   1.895 -0.0725  0.1284 -0.1193
   86OCT     C2  172   0.308   0.873   2.011  0.1090 -0.3273 -0.1433
   87OCT     C1  173   6.155   5.782   2.772 -0.0317 -0.2104 -0.2870
   87OCT     C2  174   5.856   6.078   2.788 -0.0820 -0.1712 -0.2165
   88OCT     C1  175   3.164   5.893   4.531 -0.0458  0.1940  0.0982
   88OCT     C2  176   3.584   5.956   4.491  0.2863  0.0796 -0.0741
   89OCT     C1  177   4.127   4.656   3.977  0.1078  0.0290  0.0659
   89OCT     C2  178   4.447   4.544   4.349 -0.3871  0.0515 -0.0273
   90OCT     C1  179   4.820   5.320   0.059 -0.1906  0.3188 -0.0072
   90OCT     C2  180   4.951   5.665  -0.299 -0.0211  0.0016  0.0533
   91OCT     C1  181   6.524   4.364   1.461 -0.2989 -0.0067 -0.0773
   91OCT     C2  182   6.833   4.597   1.263 -0.0488  0.0070 -0.0498
   92OCT     C1  183   1.703   4.350   0.578  0.1235  0.2460  0.3365
   92OCT     C2  184   1.255   4.390   0.556 -0.1616  0.0079 -0.1906
   93OCT     C1  185   0.564   2.298   1.955 -0.2165  0.1002 -0.0423
   93OCT     C2  186   0.802   2.621   1.710  0.1593 -0.1728  0.1928
   94OCT     C1  187   4.555   4.025   0.738 -0.1756  0.0366 -0.1549
   94OCT     C2  188   5.006   4.012   0.774 -0.0570  0.3330 -0.0226
   95OCT     C1  189   1.198   5.284   1.099 -0.3313  0.5574  0.3622
   95OCT     C2  190   1.103   5.669   0.717 -0.3952  0.0041 -0.0467
   96OCT     C1  191   0.632   4.992   5.786  0.1735  0.1007  0.2284
   96OCT     C2  192   0.760   4.720   6.102  0.1211  0.2450  0.2019
   97OCT     C1  193   2.011   3.744   5.615 -0.1793 -0.1090 -0.1717
   97OCT     C2  194   1.796   4.121   5.675 -0.1110  0.2265  0.2076
   98OCT     C1  195   6.173   5.112   2.524 -0.0275 -0.0788  0.3589
   98OCT     C2  196   6.222   5.455   2.159 -0.2118 -0.0164 -0.0706
   99OCT     C1  197   2.188   5.463   3.359  0.3962 -0.0772  0.2566
   99OCT     C2  198   2.772   5.358   3.339 -0.0288 -0.0208 -0.1316
  100OCT     C1  199   0.629   5.354   5.455 -0.1175 -0.0066 -0.1962
  100OCT     C2  200   0.910   5.639   5.466 -0.1352  0.2135 -0.0767
  101OCT     C1  201   2.316   4.914   5.310 -0.0440 -0.1326  0.1088
  101OCT     C2  202   2.416   4.872   4.901 -0.1414  0.2379 -0.1497
  102OCT     C1  203   6.578   3.161   2.331 -0.1969  0.0104 -0.0719
  102OCT     C2  204   6.831   2.973   2.662 -0.0978 -0.0382 -0.0219
  103OCT     C1  205   0.843   2.988   4.769 -0.0284  0.0662  0.0257
  103OCT     C2  206   0.800   2.877   4.278 -0.1094  0.0833 -0.0831
  104OCT     C1  207   0.781   4.482   2.713 -0.2767  0.1471  0.0696
  104OCT     C2  208   0.764   4.777   2.495  0.1507  0.0227  0.2107
  105OCT     C1  209   0.920   5.119   6.357 -0.1482  0.0171  0.0044
  105OCT     C2  210   0.854   5.351   6.720 -0.0864  0.3919 -0.0280
  106OCT     C1  211   6.763   4.489   5.859 -0.1333 -0.0636  0.0247
  106OCT     C2  212   7.060   4.145   5.722 -0.1380 -0.1584 -0.0633
  107OCT     C1  213   6.335   2.926   2.928 -0.2244 -0.0633  0.1282
  107OCT     C2  214   6.075   2.982   3.356  0.0348 -0.0874  0.0671
  108OCT     C1  215   0.977   1.922   5.800 -0.3434  0.0763  0.1193
  108OCT     C2  216   0.753   1.515   5.859  0.0585  0.2432  0.1449
  109OCT     C1  217   0.114   2.425   3.623  0.1623 -0.1434 -0.2788
  109OCT     C2  218   0.004   2.142   3.984 -0.0496 -0.3861  0.1340
  110OCT     C1  219   0.442   2.081   4.963  0.1212 -0.0901 -0.1617
  110OCT     C2  220   0.613   1.714   5.068  0.0357 -0.0470 -0.3212
  111OCT     C1  221   0.066   2.987   5.299 -0.0252  0.1267  0.3615
  111OCT     C2  222  -0.160   2.600   5.568 -0.1482  0.0310  0.1244
  112OCT     C1  223   5.856   1.216   5.298  0.1737 -0.1350  0.0531
  112OCT     C2  224   5.823   1.513   4.985  0.0035  0.0121 -0.0495
  113OCT     C1  225   1.525   1.644   3.073 -0.0754 -0.0762 -0.3312
  113OCT     C2  226   1.292   1.757   2.677  0.1857 -0.0801 -0.1238
  114OCT     C1  227   6.345   4.010   5.690  0.3265  0.1472  0.3680
  114OCT     C2  228   6.346   4.257   6.122  0.2889  0.0221 -0.1160
  115OCT     C1  229   0.691   6.336   4.263 -0.0023 -0.0447  0.2266
  115OCT     C2  230   0.504   6.330   4.650 -0.3208 -0.0050  0.0454
  116OCT     C1  231   0.289   4.481   6.225  0.0545 -0.0827  0.0387
  116OCT     C2  232   0.132   4.876   6.099  0.0213 -0.2249 -0.0873
  117OCT     C1  233   1.820   0.953   2.995 -0.1277  0.0299  0.1487
  117OCT     C2  234   1.418   1.142   3.173  0.1190 -0.2583 -0.0348
  118OCT     C1  235   1.156   0.503   4.871 -0.0516 -0.0955 -0.2453
  118OCT     C2  236   1.430   0.557   4.626  0.0657  0.0022  0.1040
  119OCT     C1  237   6.560   2.204   5.331 -0.0683  0.0670  0.0730
  119OCT     C2  238   6.975   2.465   5.217 -0.3369  0.1270  0.1667
  120OCT     C1  239   5.920   4.975   5.815 -0.1400  0.0697  0.0448
  120OCT     C2  240   5.975   4.517   5.900  0.1042  0.1587  0.1700
  121OCT     C1  241   1.518   1.510   0.462  0.0423 -0.0389  0.2062
  121OCT     C2  242   1.293   1.108   0.614  0.1669 -0.0875 -0.0907
  122OCT     C1  243   2.997   2.291   3.928  0.0492  0.0561  0.2833
  122OCT     C2  244   3.125   2.730   3.730  0.1524  0.0605 -0.1129
  123OCT     C1  245   1.428   0.177   2.223  0.1085  0.1531  0.1818
  123OCT     C2  246   1.407  -0.061   2.617  0.2047  0.0256 -0.2097
  124OCT     C1  247   4.600   6.001   1.423  0.2541  0.0931 -0.2118
  124OCT     C2  248   4.299   6.259   1.210 -0.2260 -0.0415  0.0294
  125OCT     C1  249   4.881   0.719   5.574 -0.1930  0.0230  0.0100
  125OCT     C2  250   4.631   0.546   5.878  0.1467  0.1031  0.0126
  126OCT     C1  251   2.049   5.011   0.172 -0.0067 -0.2051  0.1006
  126OCT     C2  252   1.653   4.866   0.495 -0.1231  0.1282  0.1631
  127OCT     C1  253   2.497   5.363   4.078  0.1298 -0.0523  0.2990
  127OCT     C2  254   2.891   5.152   3.861 -0.2724  0.1679  0.0559
  128OCT     C1  255   4.894   4.120   6.000  0.1832  0.0906  0.1110
  128OCT     C2  256   4.862   3.731   5.721 -0.2097 -0.4252  0.0137
  129OCT     C1  257   5.926   0.311   4.696 -0.0993 -0.1425  0.0448
  129OCT     C2  258   5.804   0.688   4.528  0.0743 -0.3167  0.3825
  130OCT     C1  259   3.083   0.391   4.926  0.2676  0.2419  0.0043
  130OCT     C2  260   2.974   0.599   4.638 -0.0840  0.1572 -0.2425
  131OCT     C1  261   6.055   4.018   3.608 -0.0239  0.3378 -0.0800
  131OCT     C2  262   6.228   3.649   3.371  0.0477  0.0794  0.1302
  132OCT     C1  263   1.416   3.882   0.441 -0.2960 -0.2158  0.1717
  132OCT     C2  264   1.458   3.422   0.304 -0.2969 -0.0028 -0.1887
  133OCT     C1  265   6.028   0.763   3.975  0.0275  0.0112 -0.1501
  133OCT     C2  266   6.041   0.791   3.451  0.1628 -0.5421 -0.1199
  134OCT     C1  267   0.763   0.445   4.597 -0.2930 -0.1618  0.1477
  134OCT     C2  268   0.766   0.829   4.780 -0.0512 -0.0521  0.0667
  135OCT     C1  269   5.113   3.908   0.262 -0.1330  0.1076  0.1499
  135OCT     C2  270   4.929   3.687   0.387 -0.0027 -0.1179  0.2041
  136OCT     C1  271   0.479   4.101   2.507  0.2937  0.3550 -0.0500
  136OCT     C2  272   0.301   4.480   2.308 -0.1481  0.2131 -0.0872
  137OCT     C1  273   0.881   2.131   1.454 -0.0899  0.2148  0.0664
  137OCT     C2  274   0.875   1.974   1.028 -0.1131  0.0621 -0.0579
  138OCT     C1  275   5.828   4.833   2.186  0.2796 -0.0109  0.0882
  138OCT     C2  276   5.786   4.747   2.652  0.3069  0.3112 -0.0097
  139OCT     C1  277   3.924   4.519   6.002 -0.0865  0.0252  0.0277
  139OCT     C2  278   4.050   4.984   5.912  0.1557  0.0071 -0.3754
  140OCT     C1  279   2.468   2.082   2.539  0.2564  0.1007  0.3900
  140OCT     C2  280   2.674   1.741   2.435 -0.0712 -0.4400  0.2321
  141OCT     C1  281   1.288   3.674   2.907 -0.3815  0.0115 -0.0957
  141OCT     C2  282   1.156   3.565   2.479  0.3012  0.2585 -0.2497
  142OCT     C1  283   1.291   1.346   1.750 -0.0904  0.2878  0.0747
  142OCT     C2  284   1.172   1.715   1.470 -0.0480  0.1023  0.0992
  143OCT     C1  285   5.561   1.729   5.368 -0.0925 -0.1003 -0.3028
  143OCT     C2  286   5.341   1.988   5.090  0.3631  0.0094  0.2948
  144OCT     C1  287   5.051   0.978   1.117 -0.1115 -0.0865  0.2846
  144OCT     C2  288   5.099   1.390   1.358  0.0604 -0.2835  0.3707
  145OCT     C1  289   2.712   2.002   4.238 -0.3111  0.1309 -0.3315
  145OCT     C2  290   2.334   1.728   4.366 -0.0747  0.1605 -0.0786
  146OCT     C1  291   5.051   0.542   0.059 -0.0085 -0.1473 -0.1841
  146OCT     C2  292   4.886   0.741   0.490 -0.0864  0.1063 -0.0835
  147OCT     C1  293   4.432   1.237   4.963  0.0719 -0.1234 -0.2682
  147OCT     C2  294   4.458   1.549   4.704  0.2340 -0.0096  0.2011
  148OCT     C1  295   2.343   4.360   3.092 -0.3482 -0.1230  0.0751
  148OCT     C2  296   2.177   3.958   3.214  0.0709  0.1520 -0.4833
  149OCT     C1  297   1.701   4.610   5.600 -0.2812 -0.2273 -0.0631
  149OCT     C2  298   1.385   4.337   5.349 -0.0479  0.0956  0.2599
  150OCT     C1  299   0.414   3.542   3.822 -0.1595  0.2644 -0.3040
  150OCT     C2  300   0.646   3.570   4.197 -0.0822 -0.1584  0.0902
  151OCT     C1  301   5.950   6.173   5.628 -0.0148 -0.2703 -0.0344
  151OCT     C2  302   5.569   6.023   5.714 -0.2066  0.1573  0.0456
  152OCT     C1  303   0.803   4.474   3.230 -0.1291  0.0778 -0.0493
  152OCT     C2  304   0.425   4.833   3.278 -0.1520 -0.0722  0.1046
  153OCT     C1  305   0.369   1.358   3.421 -0.2280  0.2014  0.1289
  153OCT     C2  306   0.835   1.198   3.452 -0.0069 -0.0957 -0.0557
  154OCT     C1  307   1.695   5.352   5.939 -0.0958 -0.0134  0.1671
  154OCT     C2  308   1.836   5.444   6.317  0.2579 -0.1948 -0.1541
  155OCT     C1  309   0.202   3.207   1.502  0.3259  0.0965 -0.0468
  155OCT     C2  310   0.599   3.087   1.466  0.2531  0.3891  0.0134
  156OCT     C1  311   4.642   5.099   4.433  0.3923  0.2572 -0.0404
  156OCT     C2  312   4.450   5.303   4.881  0.0124 -0.0718  0.3424
  157OCT     C1  313   4.181   0.388   6.124  0.1325  0.1510 -0.2375
  157OCT     C2  314   3.869   0.714   6.050  0.0422  0.3383 -0.0133
  158OCT     C1  315   3.160   0.821   3.720  0.0110 -0.0218  0.2252
  158OCT     C2  316   3.631   0.778   3.655 -0.0600  0.1922  0.1341
  159OCT     C1  317   4.375   1.482   3.373  0.0311 -0.1023 -0.3624
  159OCT     C2  318   4.587   1.102   3.632  0.1384 -0.0226  0.1684
  160OCT     C1  319   1.886   4.491   4.543  0.1731 -0.2267 -0.0302
  160OCT     C2  320   2.214   4.729   4.465 -0.1171 -0.1999  0.2124
  161OCT     C1  321   3.493   6.205   0.576 -0.2796 -0.1852 -0.1166
  161OCT     C2  322   3.571   6.558   0.704  0.3924  0.1060  0.0401
  162OCT     C1  323   6.144   2.906   0.056  0.0051 -0.0262 -0.2198
  162OCT     C2  324   6.192   3.170  -0.139 -0.0178 -0.3607 -0.2965
  163OCT     C1  325   1.955   4.966   4.982  0.1253  0.1886  0.4763
  163OCT     C2  326   1.565   5.087   5.011 -0.5264  0.2216  0.1319
  164OCT     C1  327   0.883   1.373   0.696  0.0273  0.1394 -0.1218
  164OCT     C2  328   0.538   1.154   0.782 -0.1917 -0.0462 -0.0793
  165OCT     C1  329   1.579   0.438   5.137  0.1017  0.3710 -0.2012
  165OCT     C2  330   1.547   0.846   5.214 -0.0573  0.1511  0.1044
  166OCT     C1  331   3.840   2.557   4.835  0.1099 -0.0474  0.2056
  166OCT     C2  332   3.543   2.764   4.981 -0.2965 -0.2673  0.4051
  167OCT     C1  333   3.518   0.718   0.031 -0.0900 -0.0329 -0.2024
  167OCT     C2  334   3.180   0.644  -0.118 -0.1095 -0.2972  0.2823
  168OCT     C1  335   2.474   1.709   3.853 -0.2778 -0.2364 -0.0096
  168OCT     C2  336   2.280   1.582   3.496  0.1215  0.4064  0.2553
  169OCT     C1  337   0.298   2.478   5.679 -0.0421 -0.3412 -0.0734
  169OCT     C2  338   0.024   2.094   5.688  0.0781  0.0796  0.0159
  170OCT     C1  339   0.174   5.691   3.768  0.0930 -0.2652 -0.1377
  170OCT     C2  340  -0.212   5.856   4.026 -0.0075  0.0319  0.4602
  171OCT     C1  341   5.349   4.752   0.498  0.0476 -0.3112  0.0229
  171OCT     C2  342   5.150   4.822   0.094  0.0406  0.1493  0.1446
  172OCT     C1  343   6.031   0.884   4.992  0.1691  0.2331  0.2234
  172OCT     C2  344   5.595   0.570   5.049  0.0916  0.0632 -0.3321
  173OCT     C1  345   1.669   4.231   2.258 -0.0011 -0.0150  0.1220
  173OCT     C2  346   1.316   4.557   2.449 -0.1194  0.2760  0.3612
  174OCT     C1  347   5.684   2.488   5.347  0.0661 -0.1839  0.0757
  174OCT     C2  348   5.567   2.247   5.771  0.0787  0.1883 -0.1669
  175OCT     C1  349   2.892   4.124   5.678  0.1001 -0.1930 -0.1169
  175OCT     C2  350   3.055   4.424   5.908  0.0604  0.0783  0.0061
  176OCT     C1  351   3.651   3.926   0.835  0.1563  0.1215 -0.0453
  176OCT     C2  352   3.523   4.369   0.757  0.2449 -0.0221  0.0124
  177OCT     C1  353   3.504   4.758   3.888 -0.0330  0.3191  0.1971
  177OCT     C2  354   3.287   4.933   4.227  0.3467  0.0120 -0.1022
  178OCT     C1  355   4.378   5.138   3.300 -0.0763  0.0935 -0.1595
  178OCT     C2  356   4.683   5.055   3.642  0.4275 -0.0170  0.0006
  179OCT     C1  357   3.808   3.707   5.699 -0.3570  0.2033  0.0072
  179OCT     C2  358   4.019   3.956   5.668 -0.0284  0.2323 -0.1664
  180OCT     C1  359   4.257   0.697   4.903 -0.3381 -0.2274  0.0784
  180OCT     C2  360   4.470   0.621   4.520  0.0644  0.1751  0.1708
  181OCT     C1  361   1.287   2.751   3.070  0.0226  0.0032 -0.2106
  181OCT     C2  362   1.625   2.912   2.822 -0.0118 -0.3771 -0.4398
  182OCT     C1  363   2.905   4.898   5.136  0.0353  0.0687  0.0016
  182OCT     C2  364   2.911   4.898   5.538  0.0760  0.0716  0.0946
  183OCT     C1  365   5.190   4.639   1.378 -0.0842  0.0726 -0.0288
  183OCT     C2  366   5.450   4.940   1.522  0.0531  0.3521  0.3014
  184OCT     C1  367   3.784   4.035   6.122 -0.0295 -0.0879  0.0037
  184OCT     C2  368   3.421   4.224   6.251 -0.0156  0.0795 -0.0307
  185OCT     C1  369   3.126   4.788   0.996  0.0107  0.0284  0.0226
  185OCT     C2  370   3.353   5.086   1.303  0.1026 -0.3216  0.2369
  186OCT     C1  371   5.627   0.581   5.850  0.1115  0.1632 -0.1293
  186OCT     C2  372   5.351   0.528   5.577  0.1383 -0.1259  0.3470
  187OCT     C1  373   4.858   3.464   2.450 -0.2382  0.0217 -0.1616
  187OCT     C2  374   4.891   3.348   2.052 -0.0453 -0.0683  0.0476
  188OCT     C1  375   0.933   4.412   4.450 -0.1127  0.0833  0.1433
  188OCT     C2  376   0.939   4.557   4.002  0.2900  0.2675 -0.0671
  189OCT     C1  377   3.851   1.040   5.608 -0.0106 -0.2050 -0.0792
  189OCT     C2  378   4.043   1.078   5.318  0.2506 -0.1414  0.1216
  190OCT     C1  379   5.931   2.681   2.973 -0.0964  0.0398 -0.2111
  190OCT     C2  380   5.864   2.335   3.067  0.1425 -0.0591 -0.1650
  191OCT     C1  381   5.024   2.438   3.218 -0.1243  0.2553 -0.2033
  191OCT     C2  382   4.986   1.997   3.378  0.2535 -0.3061 -0.0537
  192OCT     C1  383   5.447   0.484   4.234  0.2233 -0.0391  0.1204
  192OCT     C2  384   5.497   0.628   3.851  0.0669  0.1723  0.1356
  193OCT     C1  385   1.519   2.190   3.098  0.0549  0.2295 -0.0636
  193OCT     C2  386   1.178   2.242   2.901 -0.2495  0.2618  0.1256
  194OCT     C1  387   4.932   0.876   4.372  0.1751 -0.0191  0.0705
  194OCT     C2  388   4.814   0.881   4.823  0.1544 -0.0316  0.3380
  195OCT     C1  389   1.260   5.956   3.068 -0.2719  0.0328 -0.2608
  195OCT     C2  390   1.252   5.530   3.356 -0.0292 -0.2033 -0.0464
  196OCT     C1  391   2.455   5.831   5.235 -0.5346 -0.3480 -0.1437
  196OCT     C2  392   2.274   5.777   4.898  0.0216  0.2453 -0.0106
  197OCT     C1  393   1.353   1.328   3.939  0.4771  0.2027  0.0180
  197OCT     C2  394   1.186   1.492   3.577  0.1412 -0.3448 -0.4004
  198OCT     C1  395   0.650   5.150   4.914 -0.0791  0.2131  0.0973
  198OCT     C2  396   0.339   5.531   4.875 -0.0301  0.0290  0.0550
  199OCT     C1  397   2.019   0.290   0.189 -0.0963  0.0004 -0.2575
  199OCT     C2  398   2.198   0.163  -0.108  0.0008 -0.1179  0.1709
  200OCT     C1  399   6.292   5.416   4.863  0.0392 -0.4270  0.3899
  200OCT     C2  400   5.938   5.592   4.826 -0.3742  0.0767  0.0849
  201OCT     C1  401   4.683   5.460   4.004  0.3730  0.3095 -0.0078
  201OCT     C2  402   4.442   5.712   4.256 -0.2981  0.2510  0.1105
  202OCT     C1  403   1.853   2.384   0.874  0.1298 -0.2032  0.2594
  202OCT     C2  404   1.964   2.148   0.549  0.2865 -0.1602  0.1273
  203OCT     C1  405   6.509   4.721   6.259  0.1046 -0.2227 -0.0317
  203OCT     C2  406   6.424   4.998   5.986  0.1045  0.1514  0.1849
  204OCT     C1  407   2.090   0.751   0.933 -0.1946  0.0765 -0.0104
  204OCT     C2  408   1.819   1.051   1.137  0.2010  0.3195 -0.2425
  205OCT     C1  409   0.463   4.957   0.154  0.1430 -0.2642 -0.1730
  205OCT     C2  410   0.502   5.084   0.531  0.0649 -0.1578  0.2368
  206OCT     C1  411   6.703   0.100   3.850 -0.1428 -0.4706 -0.4698
  206OCT     C2  412   6.323   0.050   3.601  0.0996 -0.1286  0.1059
  207OCT     C1  413   3.130   0.577   5.413 -0.0941  0.2273  0.1370
  207OCT     C2  414   3.410   0.651   5.789  0.0406  0.2320 -0.4035
  208OCT     C1  415   2.902   0.073   5.544 -0.0320  0.0660  0.0135
  208OCT     C2  416   2.510   0.156   5.790  0.0924  0.0416  0.1938
  209OCT     C1  417   3.806   5.543   3.714 -0.2616 -0.3327  0.0186
  209OCT     C2  418   4.357   5.617   3.645  0.2223  0.3493  0.0795
  210OCT     C1  419   2.157   5.256   0.632  0.0511  0.1792  0.3631
  210OCT     C2  420   2.168   5.066   0.960 -0.3533  0.1721 -0.0888
  211OCT     C1  421   3.031   3.501   5.345 -0.0864  0.3313 -0.3189
  211OCT     C2  422   2.950   3.236   5.741 -0.1465  0.3261 -0.2032
  212OCT     C1  423   4.550   3.218   1.462  0.1274  0.3550 -0.3134
  212OCT     C2  424   4.310   3.224   1.737 -0.0523  0.0390  0.0181
  213OCT     C1  425   1.464   1.228   2.204  0.2291  0.0061 -0.0633
  213OCT     C2  426   1.520   1.749   2.228  0.0849  0.2757  0.1386
  214OCT     C1  427   4.648   1.094   0.195  0.1500 -0.1422 -0.1476
  214OCT     C2  428   4.311   0.957   0.014  0.1594  0.0899  0.0907
  215OCT     C1  429   5.680   3.926   2.178 -0.1462  0.4685 -0.1891
  215OCT     C2  430   5.837   4.353   1.979 -0.0875  0.1502  0.0858
  216OCT     C1  431   5.108   3.221   5.740 -0.0678  0.0419 -0.2268
  216OCT     C2  432   4.790   2.947   5.557  0.0760  0.3064  0.3977
  217OCT     C1  433   1.045   4.886   1.359  0.2590  0.1351  0.0525
  217OCT     C2  434   0.756   4.557   1.561 -0.0402  0.2513  0.0497
  218OCT     C1  435   1.912   0.076   2.760 -0.1231 -0.0811 -0.0083
  218OCT     C2  436   2.038   0.497   2.886  0.0379  0.1110  0.0865
  219OCT     C1  437   5.907   3.939   4.838  0.2119  0.0488  0.2037
  219OCT     C2  438   5.574   4.131   4.546 -0.1979  0.1863 -0.0774
  220OCT     C1  439   6.133   3.535   5.878 -0.2178 -0.0099 -0.3007
  220OCT     C2  440   6.288   3.726   6.186  0.0499 -0.2663 -0.4226
  221OCT     C1  441   2.926   0.264   2.317 -0.0951  0.0790  0.4631
  221OCT     C2  442   2.773   0.731   2.330 -0.4433 -0.1404  0.3945
  222OCT     C1  443   1.254   2.214   6.088 -0.1407  0.0116  0.1768
  222OCT     C2  444   1.443   2.044   5.626  0.3355 -0.1237 -0.0797
  223OCT     C1  445   3.827   0.412   4.910  0.0854  0.0162  0.3169
  223OCT     C2  446   3.566   0.203   4.906  0.1298 -0.0498  0.3331
  224OCT     C1  447   5.668   3.621   2.670 -0.0605  0.0942  0.1260
  224OCT     C2  448   5.837   3.182   2.905  0.2013 -0.0203 -0.2435
  225OCT     C1  449   4.970   2.240   1.120 -0.3680  0.0480 -0.0583
  225OCT     C2  450   4.593   2.467   0.960 -0.3376 -0.2628  0.0639
  226OCT     C1  451   1.919   2.056   4.418 -0.0371  0.1580 -0.1027
  226OCT     C2  452   2.247   2.393   4.515  0.2143  0.1065  0.0189
  227OCT     C1  453   5.958   2.231   1.071  0.1743 -0.1408  0.0632
  227OCT     C2  454   5.957   1.994   1.403  0.0597  0.0442 -0.1224
  228OCT     C1  455   1.490   2.698   4.011 -0.0653 -0.1451  0.3255
  228OCT     C2  456   1.097   2.579   3.941 -0.1451  0.4539  0.3812
  229OCT     C1  457   0.060   2.263   2.775  0.0679 -0.0934  0.1495
  229OCT     C2  458  -0.182   1.944   2.812 -0.0074  0.1028  0.2678
  230OCT     C1  459   4.374   3.668   1.158 -0.1475 -0.2536 -0.0712
  230OCT     C2  460   4.144   3.878   0.951  0.2960  0.0733  0.0960
  231OCT     C1  461   6.654   4.849   5.545  0.0487 -0.1175  0.2873
  231OCT     C2  462   7.099   4.799   5.573 -0.0979  0.3568 -0.1146
  232OCT     C1  463   2.318   5.472   1.453 -0.1931 -0.2402  0.1086
  232OCT     C2  464   2.625   5.763   1.520  0.4482 -0.1437  0.0273
  233OCT     C1  465   4.194   5.418   2.751  0.2094  0.2384 -0.4759
  233OCT     C2  466   4.145   5.827   2.999  0.4981  0.6287  0.1590
  234OCT     C1  467   4.055   2.779   3.096 -0.0131 -0.1564 -0.0252
  234OCT     C2  468   4.143   2.367   2.990 -0.2258 -0.1360  0.1809
  235OCT     C1  469   6.602   0.703   6.034 -0.1210  0.2053 -0.0289
  235OCT     C2  470   6.927   0.972   6.176  0.1216 -0.2106  0.1859
  236OCT     C1  471   6.144   2.878   4.471  0.0112 -0.2824  0.0312
  236OCT     C2  472   6.081   2.441   4.281  0.2710 -0.0659 -0.0319
  237OCT     C1  473   2.774   2.977   2.362 -0.1909 -0.2212 -0.1905
  237OCT     C2  474   3.119   3.323   2.455 -0.1589  0.0928  0.1975
  238OCT     C1  475   0.315   6.321   1.601  0.0757 -0.1484  0.2697
  238OCT     C2  476   0.155   5.985   1.721  0.1368  0.2332 -0.0492
  239OCT     C1  477   2.101   3.475   6.071  0.2161  0.0814 -0.0639
  239OCT     C2  478   2.120   3.185   6.453  0.1883  0.1632 -0.0524
  240OCT     C1  479   4.535   4.096   0.262  0.3759  0.2100  0.1874
  240OCT     C2  480   4.644   3.781  -0.023 -0.2862  0.0316  0.1894
  241OCT     C1  481   3.175   4.414   1.946 -0.0296  0.0229  0.0414
  241OCT     C2  482   3.178   4.324   1.507  0.0281  0.1095  0.0602
  242OCT     C1  483   1.712   3.489   4.720 -0.1054 -0.1863 -0.0108
  242OCT     C2  484   1.706   3.351   4.242 -0.3790  0.0533  0.1340
  243OCT     C1  485   3.468   1.228   3.879 -0.0958  0.3493  0.2632
  243OCT     C2  486   3.316   1.420   3.552  0.0194 -0.1243  0.0415
  244OCT     C1  487   4.214   0.261   5.224  0.0932 -0.0089 -0.2921
  244OCT     C2  488   4.209   0.509   5.592  0.2720 -0.0567  0.1271
  245OCT     C1  489   6.136   5.249   5.322  0.1725  0.3906 -0.0497
  245OCT     C2  490   5.883   4.780   5.333 -0.0791  0.1060  0.0441
  246OCT     C1  491   1.588   0.046   6.025 -0.1806 -0.1223 -0.4630
  246OCT     C2  492   1.862   0.010   5.776 -0.3409 -0.2003 -0.1690
  247OCT     C1  493   1.334   5.913   5.620 -0.2746  0.1025 -0.3687
  247OCT     C2  494   1.673   6.238   5.343  0.1368  0.1202 -0.1582
  248OCT     C1  495   3.524   5.515   4.743 -0.3391 -0.2851 -0.2815
  248OCT     C2  496   3.188   5.244   4.713  0.2676 -0.2449 -0.2795
  249OCT     C1  497   2.944   2.679   5.881 -0.2320 -0.1064  0.1217
  249OCT     C2  498   2.632   2.780   5.504  0.1359  0.2751 -0.1257
  250OCT     C1  499   4.592   0.052   0.777 -0.0056 -0.1604 -0.0332
  250OCT     C2  500   4.473  -0.206   0.548 -0.0773  0.1508  0.0359
  251OCT     C1  501   6.647   5.251   4.127 -0.0750  0.2561  0.4293
  251OCT     C2  502   6.761   5.325   4.565 -0.0591  0.3046  0.0941
  252OCT     C1  503   2.536   1.863   6.020  0.1657  0.2100 -0.1420
  252OCT     C2  504   2.830   2.168   5.889  0.1433  0.1058 -0.2032
  253OCT     C1  505   3.656   2.274   3.180 -0.2550 -0.1097 -0.3019
  253OCT     C2  506   3.450   2.634   3.235  0.0566  0.2196 -0.0423
  254OCT     C1  507   0.772   3.969   0.172  0.0836 -0.0621 -0.2320
  254OCT     C2  508   0.921   3.539   0.233  0.1288  0.0358  0.3086
  255OCT     C1  509   6.307   1.645   2.154 -0.0261  0.0250  0.3061
  255OCT     C2  510   6.650   1.873   2.095 -0.1790 -0.1970  0.1644
  256OCT     C1  511   3.460   4.133   5.646 -0.2750 -0.2015  0.2971
  256OCT     C2  512   3.634   4.191   5.248 -0.0726 -0.0908 -0.1710
  257OCT     C1  513   5.208   4.109   1.273 -0.0152 -0.4316  0.1726
  257OCT     C2  514   5.015   4.227   1.595 -0.2057 -0.4554  0.4922
  258OCT     C1  515   6.300   4.439   4.119 -0.3374  0.2233  0.3917
  258OCT     C2  516   6.111   4.169   4.451  0.2649 -0.1088  0.0997
  259OCT     C1  517   1.131   0.690   0.366  0.0594  0.4251  0.1762
  259OCT     C2  518   0.854   1.005   0.351  0.0019 -0.0511  0.1616
  260OCT     C1  519   5.767   2.040   0.695  0.0183 -0.1138  0.1830
  260OCT     C2  520   5.552   2.183   0.374  0.1672 -0.1278  0.0531
  261OCT     C1  521   3.644   5.842   0.845 -0.1280 -0.2891  0.1672
  261OCT     C2  522   4.098   5.893   0.918  0.1484 -0.1941 -0.2435
  262OCT     C1  523   5.214   1.205   4.934  0.1043 -0.2921 -0.4131
  262OCT     C2  524   5.542   1.061   4.736 -0.1101  0.1084  0.1444
  263OCT     C1  525   0.373   0.894   2.623  0.0492 -0.0671 -0.2161
  263OCT     C2  526   0.344   1.287   2.608 -0.0506 -0.0057 -0.0760
  264OCT     C1  527   3.033   1.513   2.954  0.0242 -0.1588  0.1490
  264OCT     C2  528   3.076   1.753   3.337 -0.2401 -0.1347  0.3094
  265OCT     C1  529   6.348   5.483   6.135  0.0198  0.1456  0.0179
  265OCT     C2  530   6.321   5.593   6.602  0.0244  0.0271 -0.0294
  266OCT     C1  531   2.615   2.007   1.488 -0.1847 -0.4954 -0.0238
  266OCT     C2  532   2.333   1.626   1.543  0.4521 -0.2078 -0.0860
  267OCT     C1  533   0.349   5.184   0.944  0.0403 -0.2190 -0.0153
  267OCT     C2  534   0.781   5.032   0.942  0.2397  0.2004  0.0653
  268OCT     C1  535   2.591   0.833   0.833  0.1295  0.0202  0.3149
  268OCT     C2  536   2.417   1.169   1.003 -0.0191 -0.1056 -0.1726
  269OCT     C1  537   5.137   5.618   2.823  0.4213  0.1231 -0.0495
  269OCT     C2  538   5.228   5.254   2.994 -0.1665  0.0083 -0.0493
  270OCT     C1  539   1.852   6.129   4.023  0.0197 -0.2153 -0.0476
  270OCT     C2  540   2.289   6.290   4.147  0.1022 -0.3362 -0.1344
  271OCT     C1  541   6.116   3.704   2.441 -0.1221 -0.0632  0.2120
  271OCT     C2  542   6.572   3.645   2.418  0.1119 -0.0529 -0.0165
  272OCT     C1  543   6.368   3.936   0.267 -0.1911  0.2976  0.1131
  272OCT     C2  544   6.724   4.300   0.163 -0.2091  0.0321  0.0165
  273OCT     C1  545   3.433   5.473   2.455 -0.0453  0.0833 -0.0418
  273OCT     C2  546   3.727   5.462   2.746  0.2660 -0.1720  0.3506
  274OCT     C1  547   4.110   5.021   0.486  0.1292  0.0630  0.1040
  274OCT     C2  548   3.914   4.703   0.586 -0.2083  0.0247  0.1463
  275OCT     C1  549   4.381   5.181   1.845 -0.1519  0.1647 -0.0741
  275OCT     C2  550   4.310   5.033   1.431 -0.0239 -0.1997 -0.0312
  276OCT     C1  551   5.517   1.648   5.914 -0.1037 -0.1912  0.1269
  276OCT     C2  552   5.630   1.115   5.822  0.1609  0.2291 -0.1277
  277OCT     C1  553   0.195   1.148   5.270 -0.3204 -0.1636 -0.3641
  277OCT     C2  554   0.471   1.190   5.604  0.1086  0.0067  0.0089
  278OCT     C1  555   4.516   0.855   5.323  0.2151 -0.0220  0.1946
  278OCT     C2  556   4.803   1.136   5.323  0.1643  0.3161  0.2682
  279OCT     C1  557   5.734   2.628   1.513  0.0034  0.2475  0.2733
  279OCT     C2  558   5.356   2.814   1.384  0.3066  0.2388 -0.3109
  280OCT     C1  559   6.722   1.461   6.275  0.1018  0.1798  0.3420
  280OCT     C2  560   6.423   1.039   6.394 -0.0204 -0.1763 -0.0333
  281OCT     C1  561   4.016   2.189   6.023  0.3289 -0.2016 -0.0039
  281OCT     C2  562   3.966   2.598   5.986  0.1488 -0.1115 -0.2740
  282OCT     C1  563   5.060   2.296   5.821  0.5339  0.0225  0.1570
  282OCT     C2  564   5.270   2.463   6.172  0.0010  0.2581  0.2210
  283OCT     C1  565   4.893   1.549   2.340 -0.0111  0.3235 -0.0056
  283OCT     C2  566   4.722   1.856   2.017  0.1068 -0.0045 -0.0727
  284OCT     C1  567   4.049   1.286   5.997 -0.1089  0.1186  0.0221
  284OCT     C2  568   4.350   1.002   5.809 -0.1924 -0.3580  0.1834
  285OCT     C1  569   6.770   2.787   2.077  0.1169 -0.0420  0.2762
  285OCT     C2  570   7.247   2.852   1.874 -0.1657  0.3081 -0.0899
  286OCT     C1  571   2.845   1.228   0.675  0.0696 -0.0336  0.1288
  286OCT     C2  572   3.139   1.144   0.896 -0.1653  0.1156 -0.0761
  287OCT     C1  573   4.956   0.436   2.228 -0.0370  0.1684 -0.3035
  287OCT     C2  574   4.811   0.715   1.818 -0.0899 -0.1939  0.4518
  288OCT     C1  575   0.426   2.052   6.023  0.1937  0.2220 -0.0656
  288OCT     C2  576   0.022   2.302   6.186  0.2135 -0.2585 -0.1993
  289OCT     C1  577   4.174   1.591   1.498 -0.1630  0.0661  0.1150
  289OCT     C2  578   3.980   1.276   1.391  0.1756 -0.0780 -0.0131
  290OCT     C1  579   5.246   0.892   3.463 -0.1731  0.0969 -0.0763
  290OCT     C2  580   5.128   1.124   3.769  0.0018 -0.3485  0.1709
  291OCT     C1  581   6.724   2.293   0.558 -0.0310 -0.0431  0.2205
  291OCT     C2  582   6.450   2.475   0.247  0.0536 -0.3322 -0.1138
  292OCT     C1  583   1.249   0.363   1.771 -0.1897  0.0346  0.0271
  292OCT     C2  584   1.703   0.459   1.872  0.0446 -0.2021 -0.4171
  293OCT     C1  585   2.774   5.806   3.103 -0.1083  0.0877 -0.2351
  293OCT     C2  586   2.477   6.030   3.303  0.1603 -0.1571  0.1822
  294OCT     C1  587   4.420   4.510   5.367 -0.0318 -0.1006 -0.2159
  294OCT     C2  588   4.385   4.601   5.823  0.0194 -0.1799 -0.1223
  295OCT     C1  589   6.163   6.107   1.776  0.0434  0.2359 -0.0847
  295OCT     C2  590   5.875   5.805   1.801 -0.0167  0.1299  0.4511
  296OCT     C1  591   5.556   5.819   6.157  0.0374  0.2330 -0.1795
  296OCT     C2  592   6.015   5.829   6.121  0.0832 -0.1620 -0.1721
  297OCT     C1  593   4.742   3.006   4.521 -0.0945  0.0206 -0.4652
  297OCT     C2  594   4.295   3.133   4.546  0.0297 -0.1973 -0.2986
  298OCT     C1  595   3.962   3.371   2.380  0.0330  0.2491 -0.4130
  298OCT     C2  596   3.933   3.470   2.019 -0.4634  0.0047 -0.0743
  299OCT     C1  597   4.640   5.081   2.900  0.0934  0.1757 -0.1976
  299OCT     C2  598   4.698   5.423   2.617 -0.2167 -0.3803 -0.3637
  300OCT     C1  599   6.790   3.644   0.220  0.0027 -0.3399  0.0108
  300OCT     C2  600   6.828   3.467   0.675  0.0720  0.0199 -0.2762
  301OCT     C1  601   2.522   1.129   6.014  0.0353 -0.2268 -0.3155
  301OCT     C2  602   2.073   1.072   6.027 -0.4401  0.1892  0.3563
  302OCT     C1  603   4.742   3.466   0.869 -0.1189  0.2144  0.0750
  302OCT     C2  604   4.574   3.025   0.995  0.3168  0.2845 -0.4061
  303OCT     C1  605   3.736   0.793   1.389  0.4606 -0.0404 -0.0959
  303OCT     C2  606   3.881   0.915   0.963  0.1463  0.0461 -0.1811
  304OCT     C1  607   0.448   2.929   5.720 -0.1467 -0.0066 -0.1810
  304OCT     C2  608   0.801   2.949   5.857  0.0102  0.1516  0.0578
  305OCT     C1  609   1.807   3.536   3.462 -0.0132 -0.2805  0.2829
  305OCT     C2  610   1.506   3.276   3.786  0.3035 -0.1157  0.0712
  306OCT     C1  611   0.314   4.256   2.970  0.2863  0.0033  0.0387
  306OCT     C2  612   0.216   4.670   2.829 -0.0973 -0.1319 -0.2113
  307OCT     C1  613   5.654   5.850   4.350 -0.3710 -0.2190 -0.1365
  307OCT     C2  614   5.382   5.974   3.953  0.0638  0.0133 -0.2142
  308OCT     C1  615   5.712   5.453   0.996 -0.0047 -0.0563  0.1193
  308OCT     C2  616   5.967   5.825   0.750  0.2958 -0.2281  0.2661
  309OCT     C1  617   0.603   2.485   3.876  0.1228  0.1243  0.1881
  309OCT     C2  618   0.623   2.227   3.595  0.0356  0.1351  0.1127
  310OCT     C1  619   4.608   2.008   0.839 -0.1936  0.2010 -0.0358
  310OCT     C2  620   4.730   1.537   1.046  0.1457  0.0348 -0.0272
  311OCT     C1  621   2.311   3.431   0.496  0.1177  0.0181  0.0713
  311OCT     C2  622   2.723   3.619   0.675 -0.1398 -0.0175 -0.0038
  312OCT     C1  623   5.933   0.236   4.191 -0.0365 -0.2806  0.2096
  312OCT     C2  624   6.331  -0.026   4.129 -0.0618  0.1075  0.3701
  313OCT     C1  625   6.572   3.147   3.393  0.1052  0.0146  0.0963
  313OCT     C2  626   7.016   2.944   3.340 -0.1750  0.0950  0.1613
  314OCT     C1  627   0.959   3.605   3.260 -0.1203  0.2642 -0.0599
  314OCT     C2  628   1.315   3.735   3.597  0.2084  0.0998  0.3054
  315OCT     C1  629   0.178   2.008   1.187  0.0441 -0.3619  0.1442
  315OCT     C2  630   0.462   1.804   1.426 -0.0400  0.0205 -0.0997
  316OCT     C1  631   5.310   0.650   0.786  0.0119 -0.1907  0.0285
  316OCT     C2  632   5.359   0.574   0.436  0.0237  0.2524  0.0435
  317OCT     C1  633   2.525   6.206   4.677 -0.2446  0.2695 -0.1047
  317OCT     C2  634   2.624   6.634   4.781 -0.1848 -0.0535  0.1155
  318OCT     C1  635   4.997   1.403   0.141  0.0199  0.1562  0.0718
  318OCT     C2  636   5.189   1.062   0.189  0.0742 -0.0708  0.2251
  319OCT     C1  637   1.176   3.332   5.954 -0.2825 -0.0389  0.0838
  319OCT     C2  638   1.104   3.768   6.063 -0.0770 -0.0143 -0.2684
  320OCT     C1  639   6.503   6.010   6.136 -0.2331  0.1840  0.0032
  320OCT     C2  640   6.929   5.985   6.303 -0.0773  0.1424  0.0549
  321OCT     C1  641   5.275   3.417   3.195 -0.0128  0.3231  0.2815
  321OCT     C2  642   5.199   3.375   3.645 -0.0323 -0.2642  0.0880
  322OCT     C1  643   2.499   0.245   3.865 -0.2266  0.3173 -0.1405
  322OCT     C2  644   2.643  -0.134   3.801  0.3369  0.1409  0.3516
  323OCT     C1  645   3.248   6.171   1.050 -0.0278 -0.1511  0.1184
  323OCT     C2  646   3.305   6.555   1.106 -0.0425  0.1201 -0.0861
  324OCT     C1  647   1.267   2.352   0.977 -0.0593 -0.2102 -0.0712
  324OCT     C2  648   1.462   2.693   0.934  0.1308  0.0250  0.0011
  325OCT     C1  649   4.439   2.099   3.391 -0.1033 -0.3229  0.0633
  325OCT     C2  650   4.046   2.206   3.506 -0.0940 -0.3173  0.3371
  326OCT     C1  651   5.136   4.189   4.737 -0.2035  0.0006 -0.0251
  326OCT     C2  652   5.344   4.426   5.042  0.3264  0.2257 -0.1022
  327OCT     C1  653   3.971   6.153   6.097  0.0670 -0.2888 -0.1279
  327OCT     C2  654   4.119   5.766   5.873 -0.2376 -0.0827 -0.1989
  328OCT     C1  655   4.198   2.059   0.229 -0.0917  0.0048  0.1248
  328OCT     C2  656   4.595   2.331   0.411 -0.0307  0.2409  0.0697
  329OCT     C1  657   5.542   4.310   0.417 -0.0806 -0.0559  0.3081
  329OCT     C2  658   5.663   3.952   0.204 -0.0207  0.0497  0.0921
  330OCT     C1  659   6.103   6.267   5.149 -0.0368  0.2852  0.2264
  330OCT     C2  660   6.301   5.991   4.828  0.1566 -0.2796 -0.2334
  331OCT     C1  661   6.658   2.120   3.335  0.0206 -0.1729  0.0429
  331OCT     C2  662   6.822   1.682   3.199 -0.1155 -0.0047  0.0063
  332OCT     C1  663   4.542   3.263   3.937  0.2133 -0.1457  0.1927
  332OCT     C2  664   4.633   2.759   3.993  0.2036 -0.4181  0.2104
  333OCT     C1  665   5.676   0.046   6.058  0.0141 -0.0164  0.0250
  333OCT     C2  666   6.117  -0.076   6.183 -0.1905  0.2080 -0.3199
  334OCT     C1  667   4.534   1.353   6.121 -0.2759  0.0128  0.0165
  334OCT     C2  668   4.255   1.426   6.490  0.1074  0.2896  0.1671
  335OCT     C1  669   1.719   2.949   3.322  0.1141  0.2447  0.0622
  335OCT     C2  670   1.895   2.537   3.042  0.2030 -0.0224  0.1931
  336OCT     C1  671   1.882   2.294   3.501 -0.0782  0.1151  0.0353
  336OCT     C2  672   1.963   1.918   3.273 -0.1087 -0.2286 -0.1505
  337OCT     C1  673   2.029   4.679   1.755 -0.0161  0.1938 -0.0638
  337OCT     C2  674   1.755   4.355   1.577  0.0254 -0.0548  0.4190
  338OCT     C1  675   6.639   1.565   1.089  0.0607 -0.0678 -0.0298
  338OCT     C2  676   6.942   1.369   1.170  0.0961  0.0787 -0.1189
  339OCT     C1  677   2.017   3.906   4.686 -0.1856  0.2054 -0.0928
  339OCT     C2  678   1.644   4.036   4.480  0.1307  0.1640  0.0097
  340OCT     C1  679   2.895   1.474   0.276 -0.2246 -0.1753 -0.1508
  340OCT     C2  680   2.589   1.539   0.040  0.2773  0.0805 -0.0178
  341OCT     C1  681   0.756   1.664   3.710  0.1723  0.0060 -0.3288
  341OCT     C2  682   0.599   1.789   3.252  0.0028  0.3720  0.0387
  342OCT     C1  683   6.547   4.932   3.158  0.1848  0.1097 -0.1286
  342OCT     C2  684   6.365   5.041   3.567 -0.0866  0.2137  0.0080
  343OCT     C1  685   5.459   4.939   5.193 -0.1488  0.0685 -0.0938
  343OCT     C2  686   5.400   4.975   5.689 -0.1470  0.0877  0.3042
  344OCT     C1  687   6.140   3.234   1.094  0.1163 -0.2208 -0.1143
  344OCT     C2  688   5.886   2.890   1.081 -0.0902  0.0297 -0.0375
  345OCT     C1  689   1.757   5.518   3.120 -0.2438 -0.1341  0.2029
  345OCT     C2  690   1.673   5.098   3.258 -0.1336  0.0120 -0.2682
  346OCT     C1  691   4.770   5.459   3.235  0.3942  0.3759  0.0776
  346OCT     C2  692   5.141   5.297   3.476  0.2850 -0.0634  0.1319
  347OCT     C1  693   2.453   3.956   3.665  0.0789 -0.1470  0.1317
  347OCT     C2  694   2.802   4.105   3.926 -0.0009  0.1365  0.1736
  348OCT     C1  695   1.274   4.825   5.405  0.1674 -0.2552  0.0915
  348OCT     C2  696   1.066   5.209   5.250 -0.1664 -0.1432  0.0592
  349OCT     C1  697   6.042   0.945   6.009 -0.0040  0.0756  0.0373
  349OCT     C2  698   6.070   0.589   6.250  0.0148 -0.3218  0.1261
  350OCT     C1  699   1.789   0.597   0.535  0.1106 -0.2133 -0.2861
  350OCT     C2  700   2.121   0.310   0.722 -0.0193  0.1463  0.0789
  351OCT     C1  701   4.433   4.649   3.550  0.1425 -0.0269  0.1173
  351OCT     C2  702   4.279   4.219   3.631 -0.1687  0.1612  0.0469
  352OCT     C1  703   0.043   4.595   3.373 -0.0377 -0.1607 -0.0829
  352OCT     C2  704  -0.013   4.139   3.394  0.2303  0.0088 -0.1025
  353OCT     C1  705   1.480   4.885   1.630 -0.1301  0.0341 -0.0666
  353OCT     C2  706   1.112   4.986   1.926 -0.0316 -0.1623 -0.2313
  354OCT     C1  707   1.545   4.484   4.138 -0.0588 -0.4368 -0.1729
  354OCT     C2  708   1.397   4.666   4.516  0.1396  0.2952 -0.1462
  355OCT     C1  709   0.737   3.782   2.283  0.2677  0.0451 -0.0810
  355OCT     C2  710   0.546   3.522   1.993  0.0353  0.0705  0.0273
  356OCT     C1  711   6.316   5.703   5.251  0.3554  0.1354 -0.0664
  356OCT     C2  712   6.504   5.364   5.665 -0.1212 -0.2003  0.1940
  357OCT     C1  713   3.008   3.743   0.290 -0.0153  0.3198 -0.0687
  357OCT     C2  714   3.194   4.144   0.320  0.0570  0.2407  0.0959
  358OCT     C1  715   6.820   4.949   3.727 -0.4179  0.0721 -0.1564
  358OCT     C2  716   6.680   4.776   4.118  0.1347 -0.2968 -0.1188
  359OCT     C1  717   0.650   6.049   3.821 -0.1392  0.0046  0.2011
  359OCT     C2  718   0.852   5.558   3.792  0.2144  0.3691  0.3034
  360OCT     C1  719   2.472   0.599   3.412 -0.2877  0.0024 -0.0742
  360OCT     C2  720   2.612   0.226   3.390 -0.1747 -0.0326  0.0054
  361OCT     C1  721   4.853   4.458   3.693 -0.2344 -0.0751 -0.0824
  361OCT     C2  722   4.688   4.209   3.933  0.2387  0.0058  0.3241
  362OCT     C1  723   2.081   5.048   6.001 -0.3260  0.0357  0.2126
  362OCT     C2  724   2.499   5.135   5.738  0.0617  0.0573 -0.2057
  363OCT     C1  725   3.272   0.106   1.955  0.1147 -0.0198  0.0757
  363OCT     C2  726   3.611  -0.051   2.224 -0.2354  0.2128  0.0200
  364OCT     C1  727   0.760   3.705   4.683  0.1609  0.0605 -0.1430
  364OCT     C2  728   0.738   4.107   4.830 -0.1947 -0.2655  0.1531
  365OCT     C1  729   3.090   0.196   5.959  0.0436  0.4088  0.1322
  365OCT     C2  730   2.816  -0.014   6.203  0.1378  0.1290  0.1363
  366OCT     C1  731   2.040   2.727   0.412 -0.0598  0.2350 -0.2180
  366OCT     C2  732   2.380   2.693   0.231 -0.1291 -0.3711  0.4913
  367OCT     C1  733   4.670   4.779   6.127 -0.0387  0.0804 -0.0496
  367OCT     C2  734   4.656   4.922   6.658  0.0581  0.1666 -0.1461
  368OCT     C1  735   1.726   5.953   1.298  0.3078  0.0035 -0.0168
  368OCT     C2  736   2.020   5.871   1.597 -0.0291 -0.3755  0.0329
  369OCT     C1  737   3.180   4.730   4.736  0.1004  0.0613  0.1816
  369OCT     C2  738   2.778   4.890   4.558  0.1546  0.1590 -0.0378
  370OCT     C1  739   4.188   4.228   1.792 -0.0222  0.2070 -0.0120
  370OCT     C2  740   4.074   4.534   1.503 -0.0725  0.4289  0.1422
  371OCT     C1  741   2.948   5.010   0.309 -0.0880  0.0371  0.1658
  371OCT     C2  742   2.538   4.943   0.575  0.3048  0.1083 -0.0225
  372OCT     C1  743   4.339   4.820   0.930  0.1604 -0.5553  0.0896
  372OCT     C2  744   4.540   4.527   0.590  0.0382 -0.1124 -0.0811
  373OCT     C1  745   5.979   3.903   0.622 -0.0557  0.0399  0.0946
  373OCT     C2  746   5.761   3.510   0.789  0.1854  0.1485  0.0120
  374OCT     C1  747   4.578   1.923   5.702 -0.0015  0.0931  0.1451
  374OCT     C2  748   4.643   2.293   5.397  0.1431  0.3521  0.2926
  375OCT     C1  749   4.858   3.179   2.985  0.0682 -0.1118  0.2050
  375OCT     C2  750   5.163   2.939   3.070  0.3748  0.0888 -0.0819
  376OCT     C1  751   4.345   3.695   0.471  0.2030  0.0043  0.0340
  376OCT     C2  752   3.919   3.562   0.634 -0.1916  0.2732  0.2293
  377OCT     C1  753   6.292   3.335   4.251 -0.2142  0.2664  0.0454
  377OCT     C2  754   6.240   3.651   4.587  0.1000 -0.2657  0.1436
  378OCT     C1  755   1.291   5.138   2.437  0.2760  0.2633  0.1953
  378OCT     C2  756   1.545   4.991   2.716  0.3576 -0.0123  0.3937
  379OCT     C1  757   3.281   1.301   2.567 -0.1310 -0.0014  0.0067
  379OCT     C2  758   3.628   1.075   2.856 -0.0512  0.0381 -0.2928
  380OCT     C1  759   0.957   4.484   1.062  0.0811  0.3756  0.0341
  380OCT     C2  760   1.331   4.786   0.929  0.2980 -0.0399  0.0734
  381OCT     C1  761   1.246   6.331   3.984 -0.1096  0.1659  0.2643
  381OCT     C2  762   1.129   6.661   4.319 -0.0317  0.1474 -0.1524
  382OCT     C1  763   2.639   4.376   1.479 -0.1636 -0.0688  0.2236
  382OCT     C2  764   2.217   4.440   1.270  0.3455 -0.0035 -0.4168
  383OCT     C1  765   1.078   1.129   5.695  0.1402 -0.2302  0.0221
  383OCT     C2  766   1.509   1.024   5.665 -0.1926  0.1279  0.0448
  384OCT     C1  767   5.456   6.246   3.523 -0.3000 -0.3447  0.3773
  384OCT     C2  768   5.259   6.441   3.877 -0.0110  0.2615 -0.1225
  385OCT     C1  769   2.284   6.045   6.139  0.4388  0.0124  0.1166
  385OCT     C2  770   2.509   5.876   5.748  0.0312 -0.1569 -0.0149
  386OCT     C1  771   3.303   3.665   1.232 -0.0196 -0.1558 -0.0527
  386OCT     C2  772   3.293   3.220   1.333 -0.1731 -0.0592 -0.2549
  387OCT     C1  773   6.163   5.621   1.319 -0.3441 -0.2814  0.0603
  387OCT     C2  774   5.895   6.032   1.279  0.1431  0.1579  0.2018
  388OCT     C1  775   6.276   2.521   0.806 -0.2269 -0.3016  0.3035
  388OCT     C2  776   6.029   2.497   0.393  0.2229  0.2501 -0.0777
  389OCT     C1  777   4.059   4.195   4.363 -0.1154 -0.1831  0.2398
  389OCT     C2  778   4.166   3.847   4.615 -0.5146 -0.1850 -0.0170
  390OCT     C1  779   0.358   3.984   5.245  0.0771  0.2646 -0.0756
  390OCT     C2  780   0.258   3.716   4.889 -0.1996  0.3028  0.2190
  391OCT     C1  781   2.195   0.948   4.107 -0.4235 -0.2127  0.0131
  391OCT     C2  782   2.484   1.234   4.014  0.2290  0.2252 -0.3953
  392OCT     C1  783   5.085   2.969   5.055 -0.1738 -0.2252 -0.1658
  392OCT     C2  784   5.249   2.883   4.538 -0.1165 -0.0883  0.1193
  393OCT     C1  785   2.923   5.718   3.703 -0.0960 -0.0499  0.2356
  393OCT     C2  786   2.560   5.675   3.668  0.0857 -0.0134 -0.0373
  394OCT     C1  787   4.177   3.872   5.151 -0.0300 -0.0083  0.0447
  394OCT     C2  788   4.629   3.877   5.230 -0.0045 -0.2007  0.1501
  395OCT     C1  789   4.489   5.711   6.212  0.3107  0.0621  0.1494
  395OCT     C2  790   4.388   6.036   6.373 -0.2305 -0.6492  0.1581
  396OCT     C1  791   5.031   5.186   5.969 -0.1434  0.3170 -0.3504
  396OCT     C2  792   5.299   5.412   6.211 -0.3203 -0.0874  0.2324
  397OCT     C1  793   1.871   6.192   0.075  0.0712 -0.1913  0.1464
  397OCT     C2  794   1.444   6.198   0.108  0.1834 -0.0653  0.0566
  398OCT     C1  795   0.673   1.213   5.199  0.3308  0.1078 -0.1193
  398OCT     C2  796   0.538   1.275   4.832 -0.0954  0.1752  0.1688
  399OCT     C1  797   2.445   1.106   1.460 -0.0072  0.2462 -0.2671
  399OCT     C2  798   2.841   1.009   1.259  0.0258  0.0519 -0.2411
  400OCT     C1  799   3.858   3.468   4.736  0.0689  0.3970 -0.2485
  400OCT     C2  800   3.556   3.416   4.512 -0.2123 -0.0798 -0.0120
  401OCT     C1  801   5.907   4.635   3.713  0.3391 -0.1768 -0.0765
  401OCT     C2  802   5.548   4.552   3.633  0.0833 -0.2244  0.0211
  402OCT     C1  803   1.956   2.817   3.773  0.1313 -0.1971 -0.0558
  402OCT     C2  804   2.033   2.643   4.155  0.1700 -0.3934  0.0213
  403OCT     C1  805   3.571   4.697   3.354  0.1052  0.1250 -0.0130
  403OCT     C2  806   3.191   4.602   3.031  0.1062  0.2865  0.2317
  404OCT     C1  807   6.727   4.271   5.340  0.3369  0.4199 -0.2206
  404OCT     C2  808   6.538   4.403   4.892  0.0580 -0.1649 -0.0546
  405OCT     C1  809   5.581   3.101   3.509 -0.1776 -0.0380  0.0159
  405OCT     C2  810   5.813   3.427   3.354 -0.0425 -0.0070  0.0576
  406OCT     C1  811   6.435   4.051   1.119  0.1703 -0.2783  0.2279
  406OCT     C2  812   6.664   3.587   1.216 -0.0816  0.3391 -0.1455
  407OCT     C1  813   1.663   1.512   1.390 -0.4443 -0.0229  0.1429
  407OCT     C2  814   1.992   1.280   1.533 -0.0901  0.0084 -0.3354
  408OCT     C1  815   6.538   0.782   0.424 -0.0859 -0.1549  0.1604
  408OCT     C2  816   6.876   0.713   0.331  0.0505  0.0387 -0.2023
  409OCT     C1  817   5.642   0.122   5.373 -0.0832  0.0330  0.1089
  409OCT     C2  818   5.340   0.164   4.866 -0.0681  0.0591  0.0020
  410OCT     C1  819   2.163   4.461   5.503  0.1426  0.4166 -0.1702
  410OCT     C2  820   2.129   4.478   5.034  0.1315 -0.2739 -0.2878
  411OCT     C1  821   0.846   5.895   1.971  0.0457  0.1799 -0.1156
  411OCT     C2  822   0.808   6.103   1.651 -0.1411  0.2292  0.1074
  412OCT     C1  823   4.129   2.218   4.441  0.0545  0.3263 -0.3452
  412OCT     C2  824   4.473   2.114   4.748  0.2188 -0.1438  0.0399
  413OCT     C1  825   4.516   0.492   0.063  0.1427 -0.1740 -0.1094
  413OCT     C2  826   4.757   0.159   0.294  0.1450  0.0048  0.1745
  414OCT     C1  827   6.821   5.870   5.793 -0.2594 -0.3534 -0.1840
  414OCT     C2  828   7.181   6.035   5.771 -0.0805  0.1210  0.0025
  415OCT     C1  829   0.822   5.111   4.068 -0.1347  0.0981  0.1255
  415OCT     C2  830   0.468   5.227   3.750  0.1451 -0.2027  0.3149
  416OCT     C1  831   0.410   0.843   3.184  0.0017 -0.0997  0.1131
  416OCT     C2  832   0.563   1.137   2.977 -0.0696  0.0706 -0.0110
  417OCT     C1  833   1.908   0.538   1.356 -0.1693  0.3952  0.2344
  417OCT     C2  834   2.096   0.788   1.492 -0.2726  0.1300 -0.0474
  418OCT     C1  835   2.841   5.449   0.611 -0.1167  0.0431 -0.1113
  418OCT     C2  836   3.229   5.601   0.646  0.0911 -0.2046 -0.1176
  419OCT     C1  837   0.036   1.677   4.166  0.2010 -0.1642  0.1672
  419OCT     C2  838   0.366   1.523   4.052 -0.3002  0.0787  0.3040
  420OCT     C1  839   2.147   1.543   1.048 -0.0918  0.1186  0.1509
  420OCT     C2  840   1.875   1.731   0.767 -0.0780  0.1684  0.0238
  421OCT     C1  841   1.305   5.219   0.574 -0.0301 -0.0928  0.1798
  421OCT     C2  842   1.097   4.912   0.409 -0.0177  0.2003 -0.2549
  422OCT     C1  843   5.121   0.138   0.905 -0.1642  0.2031 -0.0628
  422OCT     C2  844   4.819   0.507   0.975  0.3126 -0.3674  0.1169
  423OCT     C1  845   6.168   1.762   4.618 -0.4250 -0.2095 -0.3558
  423OCT     C2  846   6.447   1.645   4.925  0.0550  0.2431  0.0972
  424OCT     C1  847   6.687   3.382   6.126 -0.0125  0.3320  0.0257
  424OCT     C2  848   6.790   3.217   5.725  0.2212  0.0101 -0.4053
  425OCT     C1  849   0.251   3.649   2.598  0.1554 -0.0692 -0.0487
  425OCT     C2  850   0.192   3.810   2.951 -0.0154 -0.3178 -0.0408
  426OCT     C1  851   1.215   3.148   4.179  0.0005 -0.0772 -0.1810
  426OCT     C2  852   1.104   3.343   4.622  0.1134 -0.3517  0.2234
  427OCT     C1  853   1.241   2.184   2.435  0.0587 -0.0878 -0.0906
  427OCT     C2  854   1.557   2.372   2.621  0.0375  0.3519 -0.0460
  428OCT     C1  855   4.972   6.080   0.596 -0.1695  0.1011 -0.3877
  428OCT     C2  856   5.274   6.416   0.360 -0.1141 -0.1966  0.0534
  429OCT     C1  857   0.665   2.343   4.585  0.1987  0.0901  0.0820
  429OCT     C2  858   0.578   2.586   4.950  0.0273 -0.0487 -0.0980
  430OCT     C1  859   4.489   1.724   2.801  0.0238  0.0843 -0.2427
  430OCT     C2  860   4.650   2.178   2.941  0.1317  0.1024 -0.0118
  431OCT     C1  861   4.071   4.378   1.029  0.0221  0.0664 -0.0105
  431OCT     C2  862   3.870   4.061   1.293  0.0937 -0.0479 -0.0152
  432OCT     C1  863   2.161   2.776   5.622 -0.0093 -0.0956  0.3162
  432OCT     C2  864   2.119   2.825   5.316 -0.0419 -0.2769  0.0223
  433OCT     C1  865   4.676   3.651   1.690 -0.1405 -0.2363  0.0937
  433OCT     C2  866   4.252   3.759   1.694  0.0317 -0.2565  0.1493
  434OCT     C1  867   3.234   2.658   2.578  0.1172 -0.1837  0.1490
  434OCT     C2  868   3.352   2.278   2.462  0.3121 -0.2040  0.1553
  435OCT     C1  869   2.158   6.253   0.433  0.1169  0.0395 -0.2067
  435OCT     C2  870   2.510   6.597   0.432 -0.0750  0.1384  0.0775
  436OCT     C1  871   5.089   3.550   6.207 -0.1247 -0.0640 -0.0095
  436OCT     C2  872   5.376   3.666   5.936  0.2458 -0.1014 -0.1008
  437OCT     C1  873   4.238   3.192   0.725 -0.2343 -0.2372 -0.0219
  437OCT     C2  874   4.485   2.861   0.529 -0.0456  0.0539  0.2358
  438OCT     C1  875   5.817   2.769   2.116  0.1706 -0.0763 -0.0226
  438OCT     C2  876   5.668   2.819   2.527 -0.1842  0.0473 -0.0441
  439OCT     C1  877   3.696   1.148   0.240  0.3555  0.0255  0.2596
  439OCT     C2  878   3.482   1.457   0.124 -0.3023  0.1025 -0.2543
  440OCT     C1  879   5.947   5.423   4.374 -0.0045 -0.0112 -0.1528
  440OCT     C2  880   5.950   5.388   3.862 -0.0626  0.1615 -0.0761
  441OCT     C1  881   4.932   2.349   4.386 -0.0165  0.2425  0.1183
  441OCT     C2  882   4.606   2.357   4.359  0.3265 -0.1653  0.0600
  442OCT     C1  883   6.711   6.029   3.553 -0.0677 -0.0239  0.1270
  442OCT     C2  884   6.735   6.378   3.340 -0.1205  0.1418 -0.2364
  443OCT     C1  885   1.009   0.219   3.038 -0.0090 -0.1806 -0.6399
  443OCT     C2  886   1.140   0.369   2.597  0.0924 -0.0533 -0.0133
  444OCT     C1  887   6.238   3.235   4.879 -0.2794 -0.1880  0.1009
  444OCT     C2  888   5.823   3.199   4.669 -0.1171 -0.3050  0.0456
  445OCT     C1  889   2.465   6.283   0.818  0.1121 -0.1332  0.0790
  445OCT     C2  890   2.531   6.687   1.008 -0.1759 -0.2228 -0.0781
  446OCT     C1  891   2.231   0.541   5.617 -0.2153 -0.1989 -0.0316
  446OCT     C2  892   1.886   0.663   5.661 -0.3539  0.0545 -0.0638
  447OCT     C1  893   4.302   2.921   3.618  0.1787 -0.0875  0.1373
  447OCT     C2  894   4.515   2.714   3.314  0.2044  0.0733  0.0585
  448OCT     C1  895   2.742   2.849   1.069 -0.0621 -0.0049 -0.0766
  448OCT     C2  896   2.598   2.934   0.682  0.4025  0.0706 -0.0594
  449OCT     C1  897   3.369   0.148   5.401 -0.1937  0.0447  0.3816
  449OCT     C2  898   3.687   0.534   5.353 -0.2805 -0.1843 -0.2874
  450OCT     C1  899   3.932   4.982   1.690  0.1252 -0.0943 -0.0008
  450OCT     C2  900   3.578   4.652   1.689 -0.1725 -0.2124  0.3485
  451OCT     C1  901   6.182   5.775   4.154 -0.1100 -0.1993  0.1011
  451OCT     C2  902   6.414   5.649   4.472  0.1762 -0.1981 -0.0484
  452OCT     C1  903   0.233   1.736   0.113  0.0725 -0.0130 -0.1968
  452OCT     C2  904  -0.144   1.936   0.217  0.1052 -0.3703  0.0090
  453OCT     C1  905   3.800   3.584   1.237  0.0749  0.2395  0.1940
  453OCT     C2  906   4.095   3.269   1.229 -0.0108 -0.2462 -0.0574
  454OCT     C1  907   2.352   2.673   1.347  0.2283  0.0402  0.0463
  454OCT     C2  908   2.192   3.103   1.446  0.0244  0.2341 -0.0538
  455OCT     C1  909   0.873   5.519   4.756  0.1124 -0.0514 -0.0518
  455OCT     C2  910   0.838   5.909   4.940 -0.0704 -0.0253 -0.0338
  456OCT     C1  911   4.672   4.688   1.293  0.5315  0.1028  0.2385
  456OCT     C2  912   4.479   4.258   1.221 -0.0495  0.4088 -0.0165
  457OCT     C1  913   3.748   1.994   2.246 -0.2083 -0.4028 -0.0303
  457OCT     C2  914   3.809   1.939   1.833  0.2071 -0.1341  0.0775
  458OCT     C1  915   3.208   0.794   1.532  0.0875 -0.1226 -0.1402
  458OCT     C2  916   3.496   1.121   1.671 -0.0094  0.2300  0.1196
  459OCT     C1  917   0.750   3.590   0.663 -0.0343 -0.0560 -0.1555
  459OCT     C2  918   0.983   3.917   0.601 -0.1176  0.0696  0.4983
  460OCT     C1  919   3.148   0.968   4.202 -0.1527  0.1878 -0.3659
  460OCT     C2  920   3.329   1.029   4.577 -0.0339 -0.0422  0.2424
  461OCT     C1  921   2.576   0.039   2.921  0.0708  0.0067  0.0457
  461OCT     C2  922   2.535   0.371   2.607 -0.4456 -0.4170 -0.0069
  462OCT     C1  923   2.131   1.005   3.563 -0.0076  0.2224  0.0107
  462OCT     C2  924   2.296   0.944   3.061 -0.0265  0.2321  0.0962
  463OCT     C1  925   2.860   0.649   0.379  0.1760 -0.2068  0.0505
  463OCT     C2  926   2.751   0.976   0.182 -0.0331  0.2541 -0.0276
  464OCT     C1  927   6.428   0.859   5.564 -0.1797 -0.2004 -0.2829
  464OCT     C2  928   6.487   0.803   5.184  0.0370  0.0770  0.0993
  465OCT     C1  929   6.103   2.148   5.961 -0.0072  0.4523  0.2733
  465OCT     C2  930   6.182   2.387   5.623  0.3816 -0.0116  0.1389
  466OCT     C1  931   4.846   5.411   2.107 -0.0745  0.1812  0.1998
  466OCT     C2  932   5.222   5.168   1.971 -0.1504 -0.0985  0.2101
  467OCT     C1  933   5.276   3.902   2.581 -0.2330  0.0300  0.0512
  467OCT     C2  934   5.045   3.714   2.897  0.0732  0.2105  0.1824
  468OCT     C1  935   2.129   5.769   0.172 -0.2151  0.1613  0.1959
  468OCT     C2  936   2.230   5.706   0.617  0.1888 -0.4114 -0.0360
  469OCT     C1  937   3.185   1.200   6.239  0.3281 -0.1005 -0.0181
  469OCT     C2  938   3.460   1.117   6.098 -0.0189  0.0433  0.1846
  470OCT     C1  939   0.669   0.678   0.947  0.0945 -0.1087 -0.3615
  470OCT     C2  940   0.972   0.926   0.898 -0.0093  0.3601  0.0739
  471OCT     C1  941   5.544   3.046   0.641  0.0996 -0.0923 -0.0545
  471OCT     C2  942   6.095   2.977   0.582 -0.0550 -0.1304  0.2756
  472OCT     C1  943   4.579   3.030   4.989  0.0363  0.2932 -0.0314
  472OCT     C2  944   4.417   3.446   4.892  0.1037 -0.0011  0.1059
  473OCT     C1  945   4.538   4.830   4.820  0.1952  0.0745  0.0061
  473OCT     C2  946   4.885   4.602   4.641  0.3231 -0.1525 -0.3647
  474OCT     C1  947   6.086   3.713   1.140 -0.1286  0.0604 -0.0340
  474OCT     C2  948   6.349   3.606   0.860  0.0508  0.0069  0.1085
  475OCT     C1  949   6.468   5.850   0.654  0.2328  0.2572  0.1790
  475OCT     C2  950   6.899   6.085   0.527  0.1553  0.0474 -0.2279
  476OCT     C1  951   1.505   1.146   4.803  0.2438 -0.1351 -0.4111
  476OCT     C2  952   1.403   1.453   4.445 -0.4614 -0.0370  0.0145
  477OCT     C1  953   2.078   4.012   2.779  0.2566  0.0499 -0.0090
  477OCT     C2  954   2.036   3.863   2.292 -0.0728 -0.2601  0.0039
  478OCT     C1  955   5.408   4.604   1.973 -0.2941 -0.4632  0.1153
  478OCT     C2  956   5.016   4.707   1.852 -0.4001 -0.1785  0.0990
  479OCT     C1  957   4.983   2.101   3.951  0.0508  0.0283  0.1457
  479OCT     C2  958   4.781   2.451   3.635 -0.3629  0.0460  0.0843
  480OCT     C1  959   2.407   0.460   4.276 -0.2614 -0.0414  0.1949
  480OCT     C2  960   2.724   0.118   4.289  0.0412  0.0804 -0.0630
  481OCT     C1  961   2.124   0.525   3.812  0.1621 -0.1808 -0.2175
  481OCT     C2  962   1.723   0.899   3.902 -0.0910  0.0925 -0.0117
  482OCT     C1  963   4.504   6.289   5.927 -0.0256 -0.1456 -0.0124
  482OCT     C2  964   4.168   6.291   5.664 -0.0152 -0.5325 -0.2807
  483OCT     C1  965   5.303   1.807   4.232  0.0312 -0.1356 -0.0723
  483OCT     C2  966   5.778   1.982   4.363  0.2892  0.2177  0.1513
  484OCT     C1  967   6.766   0.496   0.796 -0.2596  0.1046  0.0273
  484OCT     C2  968   6.994   0.876   0.768  0.1878 -0.1142  0.1465
  485OCT     C1  969   2.317   5.749   4.330  0.3560 -0.3863 -0.0544
  485OCT     C2  970   1.943   5.615   4.564  0.1365 -0.1823 -0.1251
  486OCT     C1  971   5.365   3.080   3.996 -0.1140 -0.3477  0.0410
  486OCT     C2  972   5.818   3.199   4.051 -0.1355  0.1264 -0.0276
  487OCT     C1  973   3.259   2.600   1.347 -0.0595  0.0419 -0.1334
  487OCT     C2  974   2.912   2.501   1.469  0.0975 -0.1645 -0.3652
  488OCT     C1  975   1.732   6.156   2.258  0.0893 -0.0920  0.3381
  488OCT     C2  976   1.290   6.011   2.258 -0.1221 -0.4000 -0.0037
  489OCT     C1  977   0.272   0.474   1.195 -0.0354 -0.0347  0.2312
  489OCT     C2  978   0.576   0.493   1.527 -0.1992  0.1759  0.1936
  490OCT     C1  979   5.193   1.304   6.034 -0.0034 -0.1112 -0.1520
  490OCT     C2  980   4.845   1.285   5.757 -0.0750  0.0488 -0.1298
  491OCT     C1  981   1.212   4.184   4.888  0.0832 -0.0718  0.0076
  491OCT     C2  982   1.249   3.766   4.906  0.2183 -0.1016  0.0486
  492OCT     C1  983   4.821   2.761   1.449  0.0125  0.0794  0.2667
  492OCT     C2  984   4.848   2.893   1.856  0.1094  0.0239  0.3218
  493OCT     C1  985   0.587   0.032   6.037 -0.1219 -0.1260 -0.1738
  493OCT     C2  986   0.574  -0.333   6.274 -0.0778  0.0850 -0.3854
  494OCT     C1  987   3.781   2.941   0.014  0.2102  0.1600 -0.1280
  494OCT     C2  988   3.833   3.118  -0.392 -0.1245 -0.1422  0.0908
  495OCT     C1  989   5.977   4.960   3.100 -0.0573 -0.0733 -0.0703
  495OCT     C2  990   6.171   4.533   2.897  0.0569  0.3399  0.1747
  496OCT     C1  991   5.258   4.664   2.808 -0.0166 -0.0691 -0.3247
  496OCT     C2  992   5.456   4.833   3.171 -0.0132  0.1135  0.2166
  497OCT     C1  993   5.130   5.178   0.581  0.3035 -0.0082  0.0580
  497OCT     C2  994   5.512   5.187   0.257 -0.1428 -0.1025 -0.1625
  498OCT     C1  995   4.630   1.750   3.643  0.0729  0.0570 -0.0612
  498OCT     C2  996   4.849   1.611   3.819 -0.0694  0.3042 -0.2522
  499OCT     C1  997   3.382   1.807   2.611  0.0375  0.2762 -0.0855
  499OCT     C2  998   3.769   1.718   2.739 -0.2063  0.1040 -0.1680
  500OCT     C1  999   2.978   5.701   1.059 -0.3306  0.0497 -0.1006
  500OCT     C2 1000   3.436   5.789   1.308  0.3308  0.0733  0.1758
  501OCT     C1 1001   5.487   1.213   1.012 -0.0287 -0.0013 -0.0741
  501OCT     C2 1002   5.622   1.127   0.612 -0.1584 -0.0087 -0.0927
  502OCT     C1 1003   3.253   2.870   0.387 -0.0213  0.0407  0.1454
  502OCT     C2 1004   3.184   2.584   0.805  0.0958 -0.4429  0.2121
  503OCT     C1 1005   4.740   1.545   0.581 -0.1554  0.3967  0.1670
  503OCT     C2 1006   5.101   1.211   0.655  0.2367  0.1368 -0.0211
  504OCT     C1 1007   5.738   4.232   3.944 -0.3088  0.2098 -0.2008
  504OCT     C2 1008   5.816   4.611   4.293  0.2798  0.4196 -0.2584
  505OCT     C1 1009   5.386   3.424   4.486 -0.0935  0.2284  0.3539
  505OCT     C2 1010   4.963   3.287   4.158 -0.1497  0.0493  0.0270
  506OCT     C1 1011   3.359   3.883   3.906 -0.0334 -0.0649  0.2653
  506OCT     C2 1012   3.240   4.210   3.630  0.0854 -0.3695 -0.0003
  507OCT     C1 1013   2.505   2.971   3.727  0.0510  0.0630  0.0215
  507OCT     C2 1014   2.175   3.178   3.501  0.0498  0.0880 -0.0080
  508OCT     C1 1015   0.276   0.471   4.456 -0.0718  0.0580 -0.0236
  508OCT     C2 1016  -0.072   0.749   4.396 -0.2508 -0.0194  0.3032
  509OCT     C1 1017   2.760   3.761   5.017  0.0724 -0.1423 -0.2732
  509OCT     C2 1018   3.087   3.978   5.288  0.3069 -0.3533 -0.2715
  510OCT     C1 1019   3.612   2.538   2.011  0.0556 -0.2314 -0.3503
  510OCT     C2 1020   3.971   2.486   2.204 -0.0751 -0.0443  0.0981
  511OCT     C1 1021   0.922   4.997   4.558 -0.2208  0.2666 -0.3043
  511OCT     C2 1022   0.540   4.728   4.703  0.0472 -0.2026 -0.0839
  512OCT     C1 1023   0.622   0.572   4.117 -0.1245  0.2352 -0.2407
  512OCT     C2 1024   0.511   0.950   4.369 -0.2375 -0.0182  0.1733
  513OCT     C1 1025   6.118   4.908   4.069 -0.0808  0.4478  0.2005
  513OCT     C2 1026   6.332   5.122   4.428 -0.0401  0.0916 -0.2640
  514OCT     C1 1027   5.841   3.285   2.089  0.2147 -0.1372  0.0069
  514OCT     C2 1028   6.068   3.123   2.402 -0.2966  0.2494 -0.3423
  515OCT     C1 1029   3.550   5.988   5.009  0.1984  0.2680 -0.1051
  515OCT     C2 1030   3.618   5.638   5.272 -0.0757 -0.1396 -0.0741
  516OCT     C1 1031   3.404   4.674   0.326 -0.1309  0.1397  0.2573
  516OCT     C2 1032   3.668   4.422   0.229 -0.2217  0.1963 -0.0134
  517OCT     C1 1033   1.605   2.524   0.494  0.2672  0.3501  0.3256
  517OCT     C2 1034   1.201   2.621   0.404  0.1614 -0.0114  0.2013
  518OCT     C1 1035   2.891   4.767   1.687 -0.0062 -0.0661 -0.1842
  518OCT     C2 1036   3.133   4.905   2.092 -0.0362 -0.1812 -0.2420
  519OCT     C1 1037   1.214   1.574   6.060 -0.1563  0.1960  0.0515
  519OCT     C2 1038   1.605   1.336   6.069 -0.2751  0.3096  0.2040
  520OCT     C1 1039   4.506   4.411   2.411 -0.0367  0.0381  0.3305
  520OCT     C2 1040   4.594   4.862   2.327  0.0749 -0.2296 -0.2210
  521OCT     C1 1041   2.727   2.216   5.378 -0.2633  0.0057 -0.1516
  521OCT     C2 1042   2.413   1.933   5.572 -0.2771  0.0406  0.1588
  522OCT     C1 1043   1.778   5.414   2.528  0.3747  0.1991 -0.0928
  522OCT     C2 1044   1.984   5.004   2.414  0.0454 -0.1407 -0.0196
  523OCT     C1 1045   3.954   4.968   3.589  0.1829 -0.0995 -0.0735
  523OCT     C2 1046   4.219   5.197   3.881  0.2054 -0.0992  0.2157
  524OCT     C1 1047   6.742   1.278   3.647 -0.1806  0.2134  0.2258
  524OCT     C2 1048   6.742   1.120   4.024  0.0624  0.1211  0.0909
  525OCT     C1 1049   4.450   2.521   2.560 -0.0247 -0.2156 -0.4734
  525OCT     C2 1050   4.739   2.671   2.825 -0.1227 -0.1240  0.1824
  526OCT     C1 1051   2.682   5.886   0.635 -0.2338 -0.2017 -0.0405
  526OCT     C2 1052   2.585   6.026   0.181 -0.0447 -0.0170  0.0852
  527OCT     C1 1053   3.063   5.398   2.116 -0.0213  0.0899 -0.0364
  527OCT     C2 1054   3.018   5.569   1.705  0.0834  0.0505 -0.1219
  528OCT     C1 1055   1.573   5.692   0.886 -0.1128  0.0887 -0.0287
  528OCT     C2 1056   1.912   6.039   0.793 -0.0318  0.2198  0.2012
  529OCT     C1 1057   5.346   1.040   1.679  0.1551 -0.1337 -0.3323
  529OCT     C2 1058   5.564   0.805   1.371  0.1793  0.0601  0.1751
  530OCT     C1 1059   0.573   3.471   1.114 -0.0259 -0.1953  0.2195
  530OCT     C2 1060   0.307   3.682   1.031  0.0522 -0.1979  0.3171
  531OCT     C1 1061   3.493   1.501   3.112 -0.0684  0.0519  0.0712
  531OCT     C2 1062   3.654   1.759   3.325 -0.1366  0.1527  0.1543
  532OCT     C1 1063   1.770   3.759   3.911  0.0863 -0.0793  0.0438
  532OCT     C2 1064   2.147   3.430   3.920  0.1484  0.2304  0.0051
  533OCT     C1 1065   1.712   0.102   0.490  0.1666  0.1704 -0.1927
  533OCT     C2 1066   1.397   0.295   0.605 -0.1210  0.1524  0.2269
  534OCT     C1 1067   2.575   1.434   2.905 -0.2009 -0.3640 -0.1440
  534OCT     C2 1068   2.415   1.750   3.025  0.2507 -0.0537 -0.2389
  535OCT     C1 1069   1.591   5.493   4.242  0.1969  0.2515  0.1501
  535OCT     C2 1070   1.452   5.891   3.886 -0.0227  0.2056 -0.0106
  536OCT     C1 1071   3.816   0.416   1.119 -0.0149  0.1088  0.1900
  536OCT     C2 1072   3.465   0.322   1.591 -0.0345  0.0896  0.3551
  537OCT     C1 1073   5.631   1.486   4.474 -0.0686 -0.1821  0.0307
  537OCT     C2 1074   5.392   1.694   4.712  0.0602  0.2138  0.2594
  538OCT     C1 1075   3.062   0.611   0.918  0.0984 -0.0504  0.2065
  538OCT     C2 1076   3.399   0.709   1.038  0.2255  0.1995 -0.3133
  539OCT     C1 1077   6.582   1.817   0.704  0.1157 -0.0947 -0.2101
  539OCT     C2 1078   6.231   2.108   0.542 -0.2225 -0.2120 -0.4033
  540OCT     C1 1079   0.736   5.534   0.956  0.1954 -0.1153  0.1861
  540OCT     C2 1080   0.483   5.897   0.814  0.2846 -0.1128 -0.2019
  541OCT     C1 1081   6.510   4.266   2.521 -0.0608 -0.0599 -0.2894
  541OCT     C2 1082   6.839   4.071   2.559 -0.0593  0.0899  0.2723
  542OCT     C1 1083   4.282   5.389   0.963  0.0567 -0.1320 -0.1252
  542OCT     C2 1084   4.247   5.554   1.295 -0.0837 -0.0388  0.0280
  543OCT     C1 1085   0.964   5.620   2.396  0.0891 -0.2959 -0.0138
  543OCT     C2 1086   0.853   5.319   2.219 -0.0965 -0.0366  0.0826
  544OCT     C1 1087   1.608   3.337   2.396  0.0570  0.1670 -0.0340
  544OCT     C2 1088   1.581   3.619   2.168 -0.2971  0.1543 -0.4070
  545OCT     C1 1089   2.033   1.986   4.915  0.3953 -0.0604 -0.2127
  545OCT     C2 1090   1.894   1.633   4.665 -0.2165  0.0102 -0.1831
  546OCT     C1 1091   6.718   5.301   1.157  0.1971  0.1690 -0.0254
  546OCT     C2 1092   6.736   5.155   0.639  0.1584 -0.1567  0.2250
  547OCT     C1 1093   4.890   1.343   3.195 -0.2952  0.1374  0.0155
  547OCT     C2 1094   5.228   1.495   3.415  0.1926 -0.3429  0.1891
  548OCT     C1 1095   3.872   5.085   1.183 -0.1037  0.1124 -0.0459
  548OCT     C2 1096   3.646   4.650   1.156  0.2171  0.1889 -0.1593
  549OCT     C1 1097   2.947   6.194   3.439  0.1023  0.0234 -0.1669
  549OCT     C2 1098   3.054   6.502   3.129  0.2033  0.4641 -0.2209
  550OCT     C1 1099   0.993   1.456   0.217  0.0797 -0.0620 -0.1232
  550OCT     C2 1100   0.776   1.771  -0.094 -0.0559 -0.3660  0.0888
  551OCT     C1 1101   3.058   6.009   0.279 -0.1247 -0.0930  0.2204
  551OCT     C2 1102   3.324   6.242   0.072  0.2767 -0.1268 -0.0274
  552OCT     C1 1103   0.196   4.001   3.967 -0.2436  0.0962  0.3026
  552OCT     C2 1104   0.026   4.399   3.822  0.2819  0.0503  0.0927
  553OCT     C1 1105   0.321   6.273   3.523  0.1651 -0.0338 -0.4298
  553OCT     C2 1106   0.693   6.200   3.279  0.0847  0.0235  0.1513
  554OCT     C1 1107   4.950   3.637   1.312 -0.2910  0.2352 -0.0303
  554OCT     C2 1108   5.049   3.249   1.531 -0.0699  0.1019 -0.0317
  555OCT     C1 1109   2.166   0.048   3.223 -0.0195  0.0066 -0.2496
  555OCT     C2 1110   2.106   0.021   3.660  0.1955 -0.1101 -0.0499
  556OCT     C1 1111   5.856   0.753   5.471  0.0276  0.2852  0.4073
  556OCT     C2 1112   6.034   0.404   5.173  0.0033  0.0830 -0.1747
  557OCT     C1 1113   5.236   4.168   3.709 -0.1723 -0.0445 -0.0499
  557OCT     C2 1114   4.977   3.808   3.385 -0.3660 -0.2241 -0.1102
  558OCT     C1 1115   3.504   0.327   3.772  0.1267  0.2166  0.2582
  558OCT     C2 1116   3.041   0.298   3.646  0.1697  0.2007 -0.1672
  559OCT     C1 1117   4.335   3.167   5.369 -0.1137 -0.0059 -0.1061
  559OCT     C2 1118   4.439   3.537   5.526 -0.1499  0.0109  0.5108
  560OCT     C1 1119   4.470   4.271   4.764 -0.1390  0.0675  0.0477
  560OCT     C2 1120   4.658   4.116   4.419  0.1434 -0.1147 -0.2617
  561OCT     C1 1121   3.001   0.521   2.808  0.1990  0.1260  0.1259
  561OCT     C2 1122   3.251   0.831   2.618 -0.0673 -0.1561 -0.0826
  562OCT     C1 1123   5.610   1.423   1.523 -0.2554  0.1059 -0.0118
  562OCT     C2 1124   5.835   1.083   1.674 -0.1131  0.0375  0.1888
  563OCT     C1 1125   5.192   1.130   2.504  0.1706  0.1552 -0.1924
  563OCT     C2 1126   5.463   1.272   2.092 -0.0041 -0.1114 -0.0868
  564OCT     C1 1127   3.559   5.388   0.905 -0.2517  0.0924  0.2363
  564OCT     C2 1128   3.527   4.947   0.786  0.0994 -0.0461  0.0998
  565OCT     C1 1129   2.533   5.411   0.961 -0.0079  0.1127 -0.0998
  565OCT     C2 1130   2.772   5.309   1.350  0.0274 -0.3683 -0.1452
  566OCT     C1 1131   0.967   1.456   2.211  0.1530 -0.0192 -0.3355
  566OCT     C2 1132   1.097   1.797   2.027  0.0550 -0.0160  0.3579
  567OCT     C1 1133   1.747   5.446   0.453 -0.0550  0.0303  0.2254
  567OCT     C2 1134   1.669   5.853   0.399  0.0076 -0.0931  0.3413
  568OCT     C1 1135   3.136   1.421   4.913 -0.1124 -0.1959 -0.1245
  568OCT     C2 1136   2.863   1.161   4.628  0.0333 -0.1164  0.2810
  569OCT     C1 1137   3.653   3.453   3.975 -0.0586  0.1292  0.4509
  569OCT     C2 1138   4.034   3.394   4.210 -0.0655  0.2809  0.2967
  570OCT     C1 1139   0.819   2.278   0.675 -0.2216 -0.1566  0.4465
  570OCT     C2 1140   0.820   2.500   1.139 -0.0292  0.1942  0.0852
  571OCT     C1 1141   2.980   4.564   0.599  0.3886  0.2514 -0.1619
  571OCT     C2 1142   2.649   4.591   0.889  0.0616  0.0659 -0.4920
  572OCT     C1 1143   2.821   4.327   3.450  0.1543  0.3280 -0.0058
  572OCT     C2 1144   2.808   4.336   2.950 -0.1082 -0.0501 -0.0541
  573OCT     C1 1145   4.420   2.642   2.056 -0.1610 -0.0091  0.3682
  573OCT     C2 1146   4.627   2.917   2.391  0.0113  0.1108  0.1507
  574OCT     C1 1147   3.785   4.082   4.800  0.1005 -0.0368  0.1085
  574OCT     C2 1148   3.674   3.907   4.414  0.0233 -0.0334 -0.0963
  575OCT     C1 1149   5.039   5.349   4.911  0.2284  0.1815  0.2866
  575OCT     C2 1150   4.740   5.583   4.622  0.0553 -0.1282  0.2851
  576OCT     C1 1151   6.734   2.080   4.916  0.2037  0.2287  0.0777
  576OCT     C2 1152   6.896   2.467   4.674  0.1777  0.2918 -0.0020
  577OCT     C1 1153   6.451   1.422   2.905 -0.0782 -0.0072  0.0347
  577OCT     C2 1154   6.378   1.598   3.328 -0.0846 -0.0696  0.1542
  578OCT     C1 1155   6.439   2.537   6.070  0.0872  0.2314  0.1501
  578OCT     C2 1156   6.429   2.917   5.878  0.0800  0.1570  0.0365
  579OCT     C1 1157   0.287   1.770   2.779  0.1067 -0.0470  0.0927
  579OCT     C2 1158   0.232   2.000   2.392  0.2917  0.1704  0.1156
  580OCT     C1 1159   5.924   4.467   4.909  0.1245 -0.1013 -0.0884
  580OCT     C2 1160   6.221   4.663   4.548  0.1630  0.1521 -0.0443
  581OCT     C1 1161   1.390   6.220   1.809  0.1395  0.0116 -0.3714
  581OCT     C2 1162   1.821   6.321   1.805  0.0689 -0.1870 -0.3429
  582OCT     C1 1163   6.716   3.724   5.647 -0.1387 -0.2133  0.0198
  582OCT     C2 1164   6.369   3.720   5.320 -0.0538  0.0364  0.0337
  583OCT     C1 1165   2.550   2.024   3.463  0.0912  0.0070 -0.0116
  583OCT     C2 1166   2.312   2.261   3.185  0.1618  0.0509 -0.1108
  584OCT     C1 1167   6.023   1.172   0.313  0.4139  0.2260 -0.1316
  584OCT     C2 1168   5.955   0.767   0.357  0.1676  0.0785 -0.2654
  585OCT     C1 1169   2.109   1.547   5.848 -0.1224 -0.2456 -0.0528
  585OCT     C2 1170   1.916   1.281   5.576 -0.0690  0.0079 -0.2330
  586OCT     C1 1171   0.609   3.637   6.142 -0.1196 -0.1986  0.0275
  586OCT     C2 1172   0.279   3.664   5.936 -0.2173 -0.1399  0.3681
  587OCT     C1 1173   0.899   3.707   5.282  0.0699 -0.0320 -0.2657
  587OCT     C2 1174   1.257   3.913   5.578  0.2038  0.0969  0.2666
  588OCT     C1 1175   5.998   4.156   2.598  0.0882  0.2030 -0.2827
  588OCT     C2 1176   6.142   4.512   2.389 -0.1949  0.1349 -0.1406
  589OCT     C1 1177   2.687   5.273   4.902  0.0296  0.2491  0.4528
  589OCT     C2 1178   2.312   5.310   4.734 -0.0103 -0.0374  0.0035
  590OCT     C1 1179   4.233   3.893   2.216 -0.0300 -0.1559 -0.1049
  590OCT     C2 1180   4.427   3.544   2.177 -0.1421  0.0476 -0.0166
  591OCT     C1 1181   3.123   3.667   4.585 -0.0483 -0.0611  0.1034
  591OCT     C2 1182   3.422   3.756   4.871 -0.1575  0.1337  0.0863
  592OCT     C1 1183   4.628   1.510   1.630 -0.2910 -0.0707 -0.2149
  592OCT     C2 1184   4.908   1.902   1.495  0.3111  0.2584 -0.0138
  593OCT     C1 1185   6.571   5.500   3.687 -0.1462  0.1938  0.1606
  593OCT     C2 1186   6.233   5.781   3.692 -0.0541  0.2532  0.1055
  594OCT     C1 1187   4.464   4.095   2.877 -0.3311  0.2022 -0.2399
  594OCT     C2 1188   4.687   4.276   3.286  0.1591  0.1085  0.4370
  595OCT     C1 1189   5.563   4.914   6.195  0.2865 -0.0380  0.0094
  595OCT     C2 1190   5.776   4.781   6.567  0.0202  0.1785 -0.1013
  596OCT     C1 1191   2.479   4.460   0.403  0.0744  0.2211  0.1600
  596OCT     C2 1192   2.165   4.556   0.758  0.1596  0.1763 -0.0868
  597OCT     C1 1193   6.677   0.793   2.248  0.1107  0.0204  0.0708
  597OCT     C2 1194   6.428   1.180   2.429 -0.1771 -0.2081 -0.1381
  598OCT     C1 1195   2.611   1.469   5.637 -0.2251  0.0192 -0.1153
  598OCT     C2 1196   2.693   1.258   5.115  0.0354  0.0589  0.0361
  599OCT     C1 1197   6.171   1.964   3.641  0.0448 -0.0669 -0.0599
  599OCT     C2 1198   5.820   1.947   3.390 -0.0669 -0.1217  0.0325
  600OCT     C1 1199   2.176   5.544   2.826 -0.0211  0.0729  0.3446
  600OCT     C2 1200   2.321   5.991   2.816  0.1194  0.3915 -0.0099
  601OCT     C1 1201   2.417   4.272   2.513  0.0495  0.1055  0.1139
  601OCT     C2 1202   2.189   4.458   2.253  0.3198  0.0593  0.4008
  602OCT     C1 1203   3.964   1.741   6.234  0.0146  0.2707  0.3809
  602OCT     C2 1204   4.378   1.826   6.091  0.1900  0.2141 -0.0515
  603OCT     C1 1205   4.103   1.139   0.525 -0.3565 -0.1334 -0.1743
  603OCT     C2 1206   4.030   0.656   0.316 -0.0644 -0.0750 -0.2428
  604OCT     C1 1207   2.006   4.158   3.753 -0.3062 -0.2081 -0.1938
  604OCT     C2 1208   1.584   4.219   3.729 -0.0140  0.2878  0.0780
  605OCT     C1 1209   0.300   3.844   0.518 -0.2040 -0.1313 -0.0984
  605OCT     C2 1210  -0.144   3.964   0.662  0.2225 -0.1032  0.0226
  606OCT     C1 1211   2.205   1.661   5.278 -0.0495  0.1968 -0.2533
  606OCT     C2 1212   1.924   1.919   5.542 -0.3569 -0.1337  0.1282
  607OCT     C1 1213   5.436   3.099   6.114  0.0159  0.1233 -0.6706
  607OCT     C2 1214   5.682   3.167   5.771  0.2060  0.0044 -0.4347
  608OCT     C1 1215   4.906   1.584   5.051 -0.0335  0.0909  0.0421
  608OCT     C2 1216   4.443   1.774   5.131 -0.0491 -0.2738 -0.1752
  609OCT     C1 1217   2.133   0.526   5.066  0.1241  0.2237 -0.1918
  609OCT     C2 1218   2.199   0.895   5.242 -0.1523 -0.0634 -0.1612
  610OCT     C1 1219   4.067   2.341   1.162  0.1372 -0.2030 -0.1962
  610OCT     C2 1220   4.153   1.975   0.927 -0.0706 -0.2114  0.1359
  611OCT     C1 1221   0.852   4.500   0.320  0.4074  0.3931 -0.0542
  611OCT     C2 1222   0.639   4.238   0.655  0.0626  0.1753  0.1372
  612OCT     C1 1223   3.508   1.949   6.190 -0.0635  0.0843  0.2428
  612OCT     C2 1224   3.716   2.202   6.466 -0.0117  0.3421  0.0163
  613OCT     C1 1225   2.026   4.442   6.018  0.2178 -0.1693  0.2103
  613OCT     C2 1226   2.093   3.980   6.180 -0.1296  0.0835 -0.1711
  614OCT     C1 1227   6.204   0.250   5.617 -0.1481 -0.1196 -0.1470
  614OCT     C2 1228   6.460   0.112   5.921 -0.2341 -0.0591 -0.1501
  615OCT     C1 1229   4.373   5.827   4.858  0.0683  0.1309 -0.0083
  615OCT     C2 1230   4.634   5.551   5.233  0.1558  0.1584  0.0914
  616OCT     C1 1231   1.882   3.077   1.935  0.3287  0.1090 -0.1022
  616OCT     C2 1232   1.828   2.634   1.880 -0.1390 -0.3693 -0.0419
  617OCT     C1 1233   5.848   5.379   6.222 -0.0420  0.1564 -0.1684
  617OCT     C2 1234   6.131   5.099   6.407 -0.0668  0.2191 -0.2194
  618OCT     C1 1235   0.633   3.222   2.510  0.1381 -0.1540  0.0672
  618OCT     C2 1236   0.521   3.225   2.955 -0.2395  0.0374  0.2331
  619OCT     C1 1237   3.068   3.965   3.155  0.0948 -0.2731  0.2479
  619OCT     C2 1238   2.585   3.915   3.009  0.2405 -0.0937 -0.0535
  620OCT     C1 1239   2.544   0.760   4.781 -0.0020 -0.3044  0.2067
  620OCT     C2 1240   2.985   0.899   5.007  0.0444  0.0239 -0.2680
  621OCT     C1 1241   1.072   1.899   5.248  0.3861 -0.1789 -0.2292
  621OCT     C2 1242   0.978   1.557   5.416  0.2004 -0.1282 -0.0794
  622OCT     C1 1243   0.135   1.449   0.717  0.1882  0.0808 -0.1622
  622OCT     C2 1244   0.478   1.682   0.911 -0.2032 -0.1874 -0.1763
  623OCT     C1 1245   3.907   0.099   3.613  0.0177 -0.0131  0.2230
  623OCT     C2 1246   3.931  -0.364   3.545 -0.2512 -0.3404  0.2162
  624OCT     C1 1247   4.927   1.208   1.996 -0.1405 -0.1335 -0.2507
  624OCT     C2 1248   4.639   0.932   2.222  0.0889 -0.3168 -0.1224
  625OCT     C1 1249   0.323   5.469   1.712  0.1341  0.0420 -0.0366
  625OCT     C2 1250   0.095   5.260   2.019 -0.0847 -0.0822  0.2222
  626OCT     C1 1251   4.461   2.471   6.292 -0.0618 -0.1773 -0.0635
  626OCT     C2 1252   4.104   2.590   6.567 -0.0798  0.4511 -0.2700
  627OCT     C1 1253   0.955   2.210   0.226  0.0532  0.0138 -0.0648
  627OCT     C2 1254   0.957   2.556  -0.065  0.2807 -0.0994 -0.3472
  628OCT     C1 1255   3.675   2.945   2.268  0.5080 -0.0682 -0.1260
  628OCT     C2 1256   4.121   2.909   2.555 -0.0779 -0.3338 -0.0921
  629OCT     C1 1257   6.079   3.442   0.290 -0.0869  0.1593  0.0898
  629OCT     C2 1258   6.453   3.208   0.282 -0.2199  0.0783 -0.0294
  630OCT     C1 1259   4.818   4.414   5.106  0.0824  0.1574  0.1734
  630OCT     C2 1260   4.901   4.360   5.564 -0.1589  0.1177  0.0628
  631OCT     C1 1261   3.375   0.978   5.451  0.1499 -0.0544  0.0281
  631OCT     C2 1262   3.083   1.361   5.468  0.1618 -0.2073  0.1598
  632OCT     C1 1263   0.209   4.206   4.805 -0.2229  0.0549 -0.0274
  632OCT     C2 1264   0.192   3.882   4.431  0.1611  0.1799  0.2909
  633OCT     C1 1265   3.942   2.863   1.862  0.0779 -0.0690 -0.0061
  633OCT     C2 1266   3.710   3.278   1.605  0.0473  0.1865 -0.0239
  634OCT     C1 1267   4.341   0.007   3.470 -0.0307  0.1611 -0.1163
  634OCT     C2 1268   4.563   0.344   3.443  0.1344 -0.1050 -0.2796
  635OCT     C1 1269   1.515   5.767   6.172 -0.1176  0.0706  0.0429
  635OCT     C2 1270   1.804   5.918   5.843  0.2705  0.0702  0.2049
  636OCT     C1 1271   2.721   0.700   3.910  0.0528  0.0239 -0.0160
  636OCT     C2 1272   2.696   0.868   4.323 -0.2795 -0.1538  0.0403
  637OCT     C1 1273   3.488   5.026   5.067  0.2253 -0.0699 -0.0778
  637OCT     C2 1274   3.328   5.144   5.515  0.1423 -0.4604 -0.0169
  638OCT     C1 1275   4.355   2.649   4.739  0.0996 -0.0512 -0.0210
  638OCT     C2 1276   4.065   2.942   4.964 -0.2270 -0.1973  0.0324
  639OCT     C1 1277   5.802   2.261   2.103  0.2609 -0.2057  0.2601
  639OCT     C2 1278   5.598   1.748   2.174 -0.0581 -0.0620  0.1234
  640OCT     C1 1279   3.117   1.611   0.991  0.3143 -0.1769  0.3174
  640OCT     C2 1280   2.730   1.506   1.239 -0.1543  0.0191 -0.0817
  641OCT     C1 1281   2.470   3.573   1.409  0.1544  0.2050 -0.1709
  641OCT     C2 1282   2.319   3.969   1.407 -0.0324  0.1730 -0.0639
  642OCT     C1 1283   3.798   6.252   1.114 -0.3911  0.1774 -0.0533
  642OCT     C2 1284   4.027   6.400   0.729  0.0652 -0.1926  0.3628
  643OCT     C1 1285   0.694   2.259   2.976 -0.2314 -0.1260  0.0290
  643OCT     C2 1286   0.248   2.188   3.221  0.4124  0.0094 -0.0435
  644OCT     C1 1287   3.097   1.666   5.902  0.0213  0.1095 -0.0775
  644OCT     C2 1288   3.056   1.896   6.363 -0.0788 -0.1511 -0.2526
  645OCT     C1 1289   4.162   0.352   2.577  0.0681 -0.0007  0.0389
  645OCT     C2 1290   4.576   0.520   2.604  0.1754 -0.3530  0.2291
  646OCT     C1 1291   1.986   1.811   2.350 -0.3363 -0.1540  0.1352
  646OCT     C2 1292   1.887   1.992   2.730  0.1702  0.1982 -0.2297
  647OCT     C1 1293   0.579   0.005   2.707 -0.0779 -0.1141 -0.0761
  647OCT     C2 1294   0.289   0.162   3.041  0.0143  0.1532  0.0250
  648OCT     C1 1295   4.569   5.887   2.218  0.1040  0.1073 -0.1534
  648OCT     C2 1296   4.330   5.764   1.865 -0.0856 -0.5584  0.3856
  649OCT     C1 1297   1.277   3.966   2.086  0.1328  0.0053 -0.0201
  649OCT     C2 1298   1.099   3.535   1.997  0.1028  0.2073  0.2717
  650OCT     C1 1299   1.680   3.691   5.239 -0.1582  0.0471 -0.0155
  650OCT     C2 1300   1.959   3.263   5.054  0.0195 -0.3994 -0.2451
  651OCT     C1 1301   1.510   1.599   5.637  0.1930  0.0698  0.0503
  651OCT     C2 1302   1.681   1.789   5.980 -0.1259 -0.1220  0.1176
  652OCT     C1 1303   6.291   4.481   5.492  0.2953 -0.3014 -0.0993
  652OCT     C2 1304   6.226   4.145   5.125 -0.1102 -0.0017  0.0570
  653OCT     C1 1305   3.490   3.853   3.401  0.0935 -0.0066  0.3734
  653OCT     C2 1306   3.310   3.495   3.383  0.1453  0.0655  0.1217
  654OCT     C1 1307   4.889   2.716   0.131 -0.0392 -0.2164  0.1023
  654OCT     C2 1308   4.800   2.876  -0.237 -0.0547 -0.2012 -0.1328
  655OCT     C1 1309   5.544   3.196   1.715 -0.0302 -0.1357 -0.0107
  655OCT     C2 1310   5.946   3.146   1.547 -0.0809  0.2269 -0.0231
  656OCT     C1 1311   2.723   5.690   4.567  0.1400  0.0702 -0.0792
  656OCT     C2 1312   2.783   5.876   4.134 -0.2473 -0.0512 -0.0831
  657OCT     C1 1313   3.427   5.174   3.287  0.2365 -0.1021 -0.0237
  657OCT     C2 1314   3.288   5.468   2.929 -0.0769 -0.0185 -0.1634
  658OCT     C1 1315   0.283   6.050   4.118  0.0251  0.2353 -0.0224
  658OCT     C2 1316   0.056   5.836   4.428 -0.5519  0.0983  0.3938
  659OCT     C1 1317   1.502   0.367   5.656  0.0633 -0.0614 -0.0823
  659OCT     C2 1318   1.253   0.036   5.696 -0.0284  0.1096 -0.0606
  660OCT     C1 1319   1.694   5.182   0.883  0.0747 -0.2521 -0.0164
  660OCT     C2 1320   1.740   4.914   1.197  0.2626  0.1038  0.1267
  661OCT     C1 1321   4.152   0.837   1.679  0.0802 -0.1476 -0.2080
  661OCT     C2 1322   4.374   0.411   1.579 -0.1077 -0.1555 -0.0423
  662OCT     C1 1323   1.050   5.550   4.295  0.2779 -0.4255  0.0117
  662OCT     C2 1324   0.985   5.948   4.162  0.0598  0.1356  0.2136
  663OCT     C1 1325   3.459   4.336   4.567 -0.0301 -0.0055  0.1820
  663OCT     C2 1326   3.256   4.204   4.854  0.0067  0.2369 -0.1072
  664OCT     C1 1327   1.269   0.698   5.990  0.1385  0.0359  0.1036
  664OCT     C2 1328   1.017   1.004   6.235  0.1145 -0.1794 -0.1783
  665OCT     C1 1329   2.336   0.617   6.139  0.1074  0.0045  0.1103
  665OCT     C2 1330   2.678   0.447   6.359  0.1084 -0.0979  0.1558
  666OCT     C1 1331   3.524   3.641   2.430  0.0825 -0.1161  0.2333
  666OCT     C2 1332   3.424   3.369   2.035  0.3287 -0.2597  0.0492
  667OCT     C1 1333   1.885   1.282   5.083  0.3215  0.0909  0.1021
  667OCT     C2 1334   1.721   1.657   5.126 -0.2741 -0.0279  0.0800
  668OCT     C1 1335   1.483   2.064   0.597  0.0601 -0.1142  0.0397
  668OCT     C2 1336   1.109   1.827   0.596  0.0635  0.0886 -0.2415
  669OCT     C1 1337   1.279   5.607   5.093 -0.0036  0.0512 -0.1027
  669OCT     C2 1338   1.358   5.397   4.721 -0.1855  0.2115 -0.4837
  670OCT     C1 1339   6.799   1.561   2.387  0.1689  0.1550 -0.0802
  670OCT     C2 1340   6.818   1.324   2.067  0.2860  0.1063  0.0118
  671OCT     C1 1341   3.252   0.081   4.491  0.3072 -0.0416 -0.0577
  671OCT     C2 1342   3.537   0.174   4.246 -0.0136 -0.1716  0.0791
  672OCT     C1 1343   0.840   0.317   0.658  0.2263  0.1083  0.3115
  672OCT     C2 1344   0.444   0.476   0.464  0.1982 -0.1286 -0.1089
  673OCT     C1 1345   0.136   3.398   3.259 -0.0608 -0.2791 -0.0246
  673OCT     C2 1346  -0.218   3.736   3.215 -0.0947 -0.0081  0.2145
  674OCT     C1 1347   0.235   1.849   3.649  0.0004 -0.1803 -0.0264
  674OCT     C2 1348  -0.187   1.791   3.678 -0.2156  0.1839  0.0522
  675OCT     C1 1349   6.030   1.253   1.258  0.0125 -0.0288  0.0324
  675OCT     C2 1350   6.431   1.170   1.300 -0.0366  0.0780 -0.1225
  676OCT     C1 1351   1.931   0.578   4.392  0.2211  0.1843 -0.1001
  676OCT     C2 1352   1.694   0.248   4.026 -0.2539 -0.3625 -0.3152
  677OCT     C1 1353   2.768   1.507   4.315  0.0973  0.0716  0.3592
  677OCT     C2 1354   3.251   1.505   4.291  0.0972  0.0294  0.1628
  678OCT     C1 1355   4.398   0.891   3.175  0.0302  0.0178  0.0246
  678OCT     C2 1356   4.205   0.734   3.531  0.0865 -0.0367  0.2500
  679OCT     C1 1357   3.267   2.991   4.621  0.1224 -0.0391  0.2551
  679OCT     C2 1358   3.017   3.134   4.970  0.0488  0.4358  0.2611
  680OCT     C1 1359   1.224   4.411   1.477 -0.1659  0.3932 -0.2253
  680OCT     C2 1360   1.236   4.472   1.920  0.2537 -0.0530 -0.0448
  681OCT     C1 1361   5.142   3.147   0.180 -0.0679  0.0291 -0.0568
  681OCT     C2 1362   4.984   3.124   0.525  0.0199  0.1478  0.1083
  682OCT     C1 1363   5.368   2.686   0.294 -0.1185 -0.3525 -0.2454
  682OCT     C2 1364   5.630   2.543   0.745  0.2177 -0.1797 -0.0527
  683OCT     C1 1365   4.867   5.736   3.642 -0.1502 -0.0308  0.0509
  683OCT     C2 1366   5.215   5.846   3.440  0.0060 -0.0721  0.2498
  684OCT     C1 1367   2.902   4.905   6.147 -0.1222 -0.1177 -0.2549
  684OCT     C2 1368   2.487   4.847   6.365  0.2036 -0.0230  0.0461
  685OCT     C1 1369   6.092   6.121   0.343 -0.1171  0.0895 -0.3489
  685OCT     C2 1370   5.663   6.170   0.193 -0.1363 -0.1101  0.1820
  686OCT     C1 1371   4.484   4.094   5.710 -0.0169 -0.3218  0.2187
  686OCT     C2 1372   4.340   4.125   6.072 -0.1991 -0.3043  0.0035
  687OCT     C1 1373   3.814   2.966   4.526  0.0180 -0.2002 -0.1573
  687OCT     C2 1374   3.718   2.514   4.334  0.1557  0.1539 -0.0688
  688OCT     C1 1375   1.921   1.915   1.270 -0.2347 -0.2908 -0.0917
  688OCT     C2 1376   2.275   2.239   1.121 -0.1649  0.1645  0.0590
  689OCT     C1 1377   4.322   3.839   4.046  0.0455  0.2047  0.1275
  689OCT     C2 1378   4.840   3.742   3.988 -0.1244  0.1225  0.1195
  690OCT     C1 1379   4.028   1.264   4.610 -0.2527 -0.4980 -0.0698
  690OCT     C2 1380   3.997   0.897   4.475  0.3346 -0.2696 -0.0595
  691OCT     C1 1381   0.844   3.188   5.404  0.0049 -0.0687 -0.1714
  691OCT     C2 1382   0.726   3.479   5.696  0.1355  0.1973  0.1437
  692OCT     C1 1383   1.971   4.748   2.921 -0.0511 -0.1249 -0.1692
  692OCT     C2 1384   1.777   4.590   2.610 -0.0036  0.0203  0.3020
  693OCT     C1 1385   5.254   0.597   4.666 -0.0595 -0.0756 -0.1331
  693OCT     C2 1386   4.879   0.297   4.555 -0.1691  0.1877 -0.0850
  694OCT     C1 1387   3.707   2.028   5.680  0.0227  0.4324  0.0532
  694OCT     C2 1388   3.286   2.008   5.566  0.1426  0.2234 -0.0742
  695OCT     C1 1389   2.616   4.893   3.397  0.2065 -0.1419 -0.2684
  695OCT     C2 1390   2.681   4.828   2.957 -0.3015  0.2943 -0.1699
  696OCT     C1 1391   5.912   4.757   1.706  0.0905  0.1132 -0.2207
  696OCT     C2 1392   5.630   4.452   1.473  0.1140 -0.0069 -0.4290
  697OCT     C1 1393   1.589   5.391   1.353 -0.2204 -0.2393  0.0921
  697OCT     C2 1394   2.006   5.562   1.099 -0.0886  0.1815  0.1782
  698OCT     C1 1395   4.295   1.274   2.478 -0.2443 -0.0298 -0.1669
  698OCT     C2 1396   4.061   0.851   2.671 -0.3273 -0.3097 -0.2038
  699OCT     C1 1397   1.901   3.267   5.603 -0.3447  0.0158 -0.1597
  699OCT     C2 1398   1.622   3.052   5.683 -0.2152  0.4323 -0.0796
  700OCT     C1 1399   3.717   2.767   5.495  0.0057 -0.0634 -0.2969
  700OCT     C2 1400   4.180   2.736   5.378  0.0464  0.0542  0.0146
  701OCT     C1 1401   1.640   2.245   0.104  0.3504  0.0270 -0.0579
  701OCT     C2 1402   1.979   2.428   0.039  0.1950 -0.0138  0.3381
  702OCT     C1 1403   2.697   2.159   2.000  0.0736 -0.1514  0.0908
  702OCT     C2 1404   3.080   1.908   2.192  0.0008 -0.0487  0.2286
  703OCT     C1 1405   0.093   1.205   0.225 -0.0971 -0.3147 -0.3562
  703OCT     C2 1406  -0.261   1.361   0.397  0.1706  0.0609 -0.1538
  704OCT     C1 1407   3.579   5.129   2.061 -0.1415 -0.0468 -0.1164
  704OCT     C2 1408   3.878   5.110   2.349 -0.0152  0.1162  0.0329
  705OCT     C1 1409   1.107   0.400   1.040  0.0484 -0.0790  0.1097
  705OCT     C2 1410   0.958   0.172   1.351  0.0325 -0.0178 -0.0268
  706OCT     C1 1411   1.099   0.814   2.316 -0.3053 -0.2320  0.3441
  706OCT     C2 1412   0.848   1.113   2.551  0.0325  0.0513 -0.0227
  707OCT     C1 1413   3.528   4.727   5.723  0.2090 -0.3623  0.0747
  707OCT     C2 1414   3.476   4.795   6.193  0.1815 -0.3136  0.2341
  708OCT     C1 1415   1.221   5.888   4.610  0.0566 -0.3161 -0.1727
  708OCT     C2 1416   1.539   6.029   4.422  0.3408  0.0284 -0.2332
  709OCT     C1 1417   4.789   5.689   0.405 -0.2632  0.3067 -0.0369
  709OCT     C2 1418   4.846   6.093   0.148 -0.0919  0.0148 -0.1203
  710OCT     C1 1419   6.264   3.541   2.002 -0.2935  0.4399  0.2451
  710OCT     C2 1420   6.339   3.435   1.529  0.1738  0.2868  0.2734
  711OCT     C1 1421   4.701   3.363   3.442 -0.3000 -0.0598 -0.0321
  711OCT     C2 1422   4.533   3.747   3.592 -0.2320 -0.1790 -0.2537
  712OCT     C1 1423   4.140   1.692   5.654 -0.0240 -0.0645 -0.1975
  712OCT     C2 1424   4.357   1.373   5.484 -0.1553  0.1333  0.0729
  713OCT     C1 1425   0.032   1.155   3.065 -0.0582 -0.0501 -0.1073
  713OCT     C2 1426  -0.328   1.053   3.260 -0.3491  0.1637  0.0054
  714OCT     C1 1427   0.485   4.079   1.948  0.0356  0.0472  0.0226
  714OCT     C2 1428   0.745   4.361   2.188 -0.0002  0.0761  0.0015
  715OCT     C1 1429   5.891   3.282   5.238  0.3096 -0.1973 -0.1086
  715OCT     C2 1430   5.453   3.059   5.329 -0.0503  0.0071 -0.0376
  716OCT     C1 1431   4.895   4.784   0.744 -0.0127  0.4659 -0.1918
  716OCT     C2 1432   5.088   4.476   0.930 -0.0519  0.4566 -0.0333
  717OCT     C1 1433   5.928   5.274   0.579 -0.0223 -0.0272 -0.2577
  717OCT     C2 1434   6.321   5.368   0.884 -0.0718 -0.0272 -0.0983
  718OCT     C1 1435   1.699   2.422   5.978 -0.2819  0.1351 -0.1201
  718OCT     C2 1436   1.923   2.773   6.028 -0.1815 -0.2002 -0.0627
  719OCT     C1 1437   6.518   2.143   4.512  0.0037 -0.1152  0.1330
  719OCT     C2 1438   6.322   1.903   4.140 -0.0670 -0.3738  0.1540
  720OCT     C1 1439   2.498   3.024   3.162 -0.3230  0.1519  0.1491
  720OCT     C2 1440   2.286   2.721   3.396  0.2613  0.0796  0.1987
  721OCT     C1 1441   3.374   1.810   0.506 -0.0713 -0.1130 -0.0249
  721OCT     C2 1442   3.263   2.084   0.881  0.1969 -0.0661  0.1201
  722OCT     C1 1443   5.882   6.133   3.907 -0.1818 -0.1692 -0.1908
  722OCT     C2 1444   5.739   5.803   3.647  0.2648  0.0741 -0.3743
  723OCT     C1 1445   0.655   6.211   5.331  0.2003  0.0972 -0.0162
  723OCT     C2 1446   0.844   6.070   5.691 -0.0691  0.0866  0.1304
  724OCT     C1 1447   1.113   1.100   1.327 -0.3963 -0.0444 -0.1811
  724OCT     C2 1448   0.995   0.728   1.401  0.1690  0.0100  0.0397
  725OCT     C1 1449   1.555   3.801   1.684 -0.1752 -0.2134 -0.3673
  725OCT     C2 1450   1.491   3.341   1.780  0.1455 -0.0404 -0.0729
  726OCT     C1 1451   3.644   1.813   1.043 -0.2435 -0.2542 -0.1983
  726OCT     C2 1452   3.651   1.661   1.438 -0.2392  0.0692 -0.2855
  727OCT     C1 1453   3.682   3.040   1.088  0.1202 -0.0641 -0.0917
  727OCT     C2 1454   3.546   3.349   0.888 -0.3205  0.2650 -0.2472
  728OCT     C1 1455   3.709   4.267   3.983  0.1863  0.2120  0.1180
  728OCT     C2 1456   3.882   3.874   3.693  0.0749  0.0128 -0.4701
  729OCT     C1 1457   5.365   2.630   1.940 -0.1075 -0.1866 -0.1322
  729OCT     C2 1458   5.204   2.092   1.997 -0.1172  0.1103 -0.3458
  730OCT     C1 1459   4.843   5.061   1.539  0.0619 -0.2743  0.0841
  730OCT     C2 1460   4.646   5.474   1.520  0.3308  0.2471 -0.0207
  731OCT     C1 1461   5.145   4.646   6.002 -0.0766  0.0738  0.2164
  731OCT     C2 1462   4.819   4.824   5.665 -0.1973 -0.1772  0.4112
  732OCT     C1 1463   4.721   0.150   1.827  0.0268 -0.1116  0.0535
  732OCT     C2 1464   5.055  -0.046   1.957  0.1205  0.0668 -0.1322
  733OCT     C1 1465   5.894   1.412   6.211  0.2433 -0.3132  0.0418
  733OCT     C2 1466   6.208   1.510   6.364  0.1779 -0.5695 -0.2411
  734OCT     C1 1467   0.522   1.289   6.213  0.1861 -0.2075 -0.3859
  734OCT     C2 1468   0.254   1.587   5.998  0.1901  0.0626 -0.0949
  735OCT     C1 1469   5.172   0.052   5.605 -0.1569  0.2947 -0.0596
  735OCT     C2 1470   5.003  -0.344   5.687  0.3704 -0.2498 -0.1635
  736OCT     C1 1471   1.031   4.048   3.945 -0.0524  0.3165  0.7102
  736OCT     C2 1472   1.125   4.306   3.605 -0.1827  0.0031  0.1507
  737OCT     C1 1473   5.801   2.816   4.990  0.1088  0.0198  0.0872
  737OCT     C2 1474   5.929   2.525   4.801 -0.0420  0.0018 -0.2310
  738OCT     C1 1475   5.343   5.936   2.026 -0.0394  0.0307 -0.1436
  738OCT     C2 1476   5.198   5.746   2.306 -0.0184 -0.0428 -0.1115
  739OCT     C1 1477   1.240   4.728   6.246 -0.0920  0.1467  0.0449
  739OCT     C2 1478   1.599   4.926   6.359  0.0570 -0.0482 -0.2091
  740OCT     C1 1479   0.142   4.836   4.494  0.1290  0.0014  0.0796
  740OCT     C2 1480   0.481   5.173   4.435 -0.0249 -0.0064  0.0363
  741OCT     C1 1481   5.441   2.281   1.279 -0.8247  0.1375  0.0736
  741OCT     C2 1482   5.177   2.354   1.561 -0.1026 -0.3919 -0.0980
  742OCT     C1 1483   5.295   6.078   5.193 -0.1824 -0.2249  0.1836
  742OCT     C2 1484   5.432   5.730   4.905  0.0330 -0.2119 -0.1441
  743OCT     C1 1485   4.970   4.859   5.152 -0.0026  0.1230 -0.1052
  743OCT     C2 1486   5.085   5.175   5.430  0.0134 -0.1751  0.1446
  744OCT     C1 1487   5.211   3.521   0.740  0.0032  0.0584  0.1681
  744OCT     C2 1488   5.496   3.896   0.688  0.2357  0.2559 -0.0899
  745OCT     C1 1489   5.732   2.775   4.235  0.2588 -0.1061 -0.0119
  745OCT     C2 1490   5.748   2.694   3.784  0.2439 -0.1133  0.0866
  746OCT     C1 1491   3.823   0.005   5.348  0.1595  0.0935  0.0668
  746OCT     C2 1492   4.024  -0.422   5.270 -0.1751  0.1938 -0.0295
  747OCT     C1 1493   5.291   5.755   0.217 -0.3596 -0.0861 -0.3532
  747OCT     C2 1494   5.770   5.673   0.286  0.0965 -0.1268  0.1173
  748OCT     C1 1495   3.866   5.924   2.028  0.1595 -0.0431 -0.0608
  748OCT     C2 1496   3.375   5.909   2.037 -0.1748 -0.1237  0.2546
  749OCT     C1 1497   3.175   0.842   2.032 -0.1912 -0.1520 -0.2738
  749OCT     C2 1498   3.630   0.701   1.936 -0.0841 -0.1146 -0.3197
  750OCT     C1 1499   4.045   2.355   1.692 -0.1465 -0.2511  0.3194
  750OCT     C2 1500   4.285   2.016   1.795  0.1156 -0.0292  0.1127
  751OCT     C1 1501   2.675   4.998   2.178  0.1312 -0.1809 -0.2969
  751OCT     C2 1502   2.626   5.169   1.821  0.0435  0.1775  0.1230
  752OCT     C1 1503   6.463   0.074   4.673  0.0911  0.0397  0.1787
  752OCT     C2 1504   6.756   0.056   4.346 -0.1456  0.0725 -0.2161
  753OCT     C1 1505   2.393   2.714   2.764 -0.4973  0.3880 -0.0839
  753OCT     C2 1506   2.827   2.721   2.930  0.0221  0.3047  0.1946
  754OCT     C1 1507   5.781   0.477   1.031 -0.1179 -0.2258  0.1061
  754OCT     C2 1508   5.878  -0.030   0.853  0.1452 -0.0947  0.1840
  755OCT     C1 1509   6.114   4.127   1.544  0.0171 -0.0530  0.0340
  755OCT     C2 1510   5.852   4.111   1.147  0.0387 -0.4954 -0.0397
  756OCT     C1 1511   3.889   1.235   3.405  0.1391 -0.1336 -0.1761
  756OCT     C2 1512   4.104   1.278   3.010 -0.2640  0.2379 -0.2650
  757OCT     C1 1513   3.454   3.294   5.087 -0.0823 -0.2506 -0.1702
  757OCT     C2 1514   3.446   3.282   5.625 -0.0701  0.2076 -0.1186
  758OCT     C1 1515   2.926   1.337   3.840 -0.0786  0.4069 -0.1841
  758OCT     C2 1516   2.997   1.754   3.893  0.0703 -0.1234  0.1067
  759OCT     C1 1517   4.959   0.035   5.155  0.0667  0.2645 -0.0572
  759OCT     C2 1518   4.737   0.169   5.521 -0.1777 -0.0380 -0.2030
  760OCT     C1 1519   0.519   5.850   2.428  0.1905 -0.0774  0.0119
  760OCT     C2 1520   0.297   5.440   2.478  0.0727  0.0218  0.2634
  761OCT     C1 1521   4.114   6.317   2.220  0.2066  0.0735 -0.0817
  761OCT     C2 1522   3.932   6.314   2.624  0.0112 -0.1019 -0.1070
  762OCT     C1 1523   5.621   0.986   6.314  0.2202  0.0300  0.1030
  762OCT     C2 1524   5.516   0.486   6.364 -0.5621  0.1629 -0.3166
  763OCT     C1 1525   4.781   6.265   3.783  0.1582 -0.0173  0.1298
  763OCT     C2 1526   4.382   6.108   3.928 -0.3784 -0.0030  0.0566
  764OCT     C1 1527   2.413   2.361   0.608 -0.0614  0.1587  0.2277
  764OCT     C2 1528   2.844   2.488   0.453 -0.0388 -0.2700 -0.1981
  765OCT     C1 1529   6.437   2.943   1.351 -0.0768 -0.3717  0.1103
  765OCT     C2 1530   6.201   2.599   1.317 -0.1405  0.1986 -0.2328
  766OCT     C1 1531   2.370   2.617   1.916  0.0928 -0.1605  0.0866
  766OCT     C2 1532   2.499   3.024   1.957 -0.2513  0.1543 -0.0060
  767OCT     C1 1533   6.698   5.170   5.071  0.1763 -0.2203  0.0728
  767OCT     C2 1534   7.077   5.136   5.229 -0.0472 -0.2386  0.2500
  768OCT     C1 1535   0.821   0.225   1.908  0.1470 -0.1507 -0.0653
  768OCT     C2 1536   0.678   0.560   2.075  0.2267 -0.1764 -0.2665
  769OCT     C1 1537   2.990   4.561   3.810  0.2727 -0.1599  0.1124
  769OCT     C2 1538   3.140   4.872   3.516 -0.1216  0.0555 -0.0199
  770OCT     C1 1539   0.732   2.681   5.436  0.2708  0.1793  0.1677
  770OCT     C2 1540   0.829   2.430   5.779 -0.0179 -0.0234 -0.1137
  771OCT     C1 1541   0.474   4.731   3.720  0.1306 -0.0693  0.2147
  771OCT     C2 1542   0.561   4.394   3.791  0.1049  0.0481  0.0508
  772OCT     C1 1543   1.740   4.160   4.996 -0.1382  0.0447 -0.3042
  772OCT     C2 1544   1.650   4.602   4.965 -0.0428  0.0219 -0.0127
  773OCT     C1 1545   0.714   0.805   5.857 -0.1235  0.0807 -0.1384
  773OCT     C2 1546   0.824   0.352   5.773 -0.2916 -0.3857 -0.2602
  774OCT     C1 1547   3.320   3.280   6.290  0.0215  0.2364 -0.1212
  774OCT     C2 1548   2.868   3.417   6.227  0.1756  0.1688 -0.0535
  775OCT     C1 1549   5.521   2.294   2.520 -0.4946  0.0074  0.0454
  775OCT     C2 1550   5.835   2.015   2.566 -0.4191 -0.1171  0.3150
  776OCT     C1 1551   0.743   1.424   1.207 -0.2310  0.2781  0.0283
  776OCT     C2 1552   0.601   1.016   1.287 -0.0410  0.0713 -0.4707
  777OCT     C1 1553   0.031   0.826   3.525 -0.2001  0.1505 -0.1222
  777OCT     C2 1554   0.307   0.938   3.782 -0.2342 -0.2897 -0.1799
  778OCT     C1 1555   3.195   2.290   3.465  0.1068  0.1538 -0.3121
  778OCT     C2 1556   3.473   2.164   3.667 -0.3081  0.1254 -0.3237
  779OCT     C1 1557   5.930   0.064   3.130  0.1565 -0.0322 -0.3393
  779OCT     C2 1558   6.231   0.370   3.256  0.0149  0.0835  0.0253
  780OCT     C1 1559   6.814   4.826   0.316  0.2153 -0.0761  0.0185
  780OCT     C2 1560   7.167   4.427   0.350 -0.2632  0.0547  0.0774
  781OCT     C1 1561   5.111   3.100   1.058 -0.0953 -0.0643  0.0175
  781OCT     C2 1562   4.996   2.729   0.902 -0.1212 -0.0062 -0.0875
  782OCT     C1 1563   6.669   3.371   2.889 -0.0824 -0.1481 -0.2649
  782OCT     C2 1564   6.264   3.448   2.833 -0.2154  0.3454  0.0642
  783OCT     C1 1565   5.706   3.162   0.196  0.1253 -0.0616  0.2755
  783OCT     C2 1566   5.463   3.508   0.304 -0.0789 -0.0008  0.1919
  784OCT     C1 1567   4.097   2.462   0.667  0.0283 -0.0883  0.0955
  784OCT     C2 1568   4.106   2.810   1.011 -0.1963  0.0092 -0.3071
  785OCT     C1 1569   0.468   0.837   0.089  0.0618  0.2057 -0.2328
  785OCT     C2 1570   0.202   0.523  -0.129 -0.0478  0.1279  0.2633
  786OCT     C1 1571   4.284   3.260   3.242 -0.0299  0.2830 -0.2123
  786OCT     C2 1572   4.092   3.416   3.666 -0.3086 -0.0271  0.3177
  787OCT     C1 1573   3.958   1.046   4.039  0.1229 -0.1456  0.2632
  787OCT     C2 1574   4.278   0.840   3.984  0.3460 -0.0919 -0.2356
  788OCT     C1 1575   3.566   5.307   0.397  0.2302 -0.2405  0.1876
  788OCT     C2 1576   3.892   5.467   0.542  0.2746 -0.0005 -0.0492
  789OCT     C1 1577   5.150   4.459   3.253 -0.2069 -0.2625 -0.2744
  789OCT     C2 1578   4.931   4.776   3.257  0.1828 -0.0020 -0.4506
  790OCT     C1 1579   4.821   2.576   4.832 -0.2237  0.2836  0.0293
  790OCT     C2 1580   4.903   2.233   5.015  0.1729  0.0402 -0.0355
  791OCT     C1 1581   0.053   6.187   4.810  0.0357 -0.0079 -0.0389
  791OCT     C2 1582   0.285   5.997   5.051  0.1376  0.0077  0.1903
  792OCT     C1 1583   2.491   3.286   2.682  0.1497  0.1895  0.0383
  792OCT     C2 1584   2.786   3.489   2.924  0.0800 -0.0607  0.0686
  793OCT     C1 1585   5.787   5.874   5.279  0.2721 -0.1058  0.0133
  793OCT     C2 1586   5.614   5.444   5.252 -0.0219  0.2742  0.5577
  794OCT     C1 1587   1.087   6.123   6.106 -0.0438  0.3138 -0.0433
  794OCT     C2 1588   0.937   6.268   6.546  0.0732  0.1420  0.0241
  795OCT     C1 1589   1.232   5.794   0.257  0.0574  0.2232  0.1304
  795OCT     C2 1590   1.330   5.362   0.113  0.4633 -0.2233  0.0688
  796OCT     C1 1591   2.148   3.968   5.197 -0.1862 -0.5780 -0.1511
  796OCT     C2 1592   2.502   3.870   5.418  0.1501  0.1980  0.0707
  797OCT     C1 1593   5.338   1.858   3.714  0.1648 -0.0106  0.0973
  797OCT     C2 1594   5.667   1.528   3.804  0.0149 -0.1109  0.0026
  798OCT     C1 1595   5.311   3.098   2.200  0.0631  0.1083  0.3962
  798OCT     C2 1596   5.346   3.554   2.234 -0.0923 -0.0409 -0.4604
  799OCT     C1 1597   0.404   3.434   0.216  0.1520  0.1220  0.2821
  799OCT     C2 1598   0.088   3.150   0.359  0.2237  0.0609  0.0952
  800OCT     C1 1599   5.604   0.932   2.443 -0.2161 -0.0001 -0.2223
  800OCT     C2 1600   6.082   0.791   2.456 -0.2019 -0.0433 -0.1350
  801OCT     C1 1601   1.473   2.041   1.767  0.2049 -0.0065 -0.0211
  801OCT     C2 1602   1.067   2.258   1.949  0.1024  0.0815 -0.0383
  802OCT     C1 1603   3.455   3.981   2.780  0.3001 -0.0222  0.0875
  802OCT     C2 1604   3.276   4.332   2.587  0.0826  0.3154  0.4281
  803OCT     C1 1605   4.009   5.754   0.092 -0.2903 -0.2559 -0.1482
  803OCT     C2 1606   3.988   6.025   0.413 -0.0148  0.0610 -0.5923
  804OCT     C1 1607   1.023   0.214   5.293 -0.1091  0.1450 -0.3720
  804OCT     C2 1608   1.210  -0.186   5.200 -0.2049 -0.1237  0.0957
  805OCT     C1 1609   0.366   1.323   1.705  0.4032 -0.3836  0.1042
  805OCT     C2 1610   0.778   1.536   1.697 -0.2134  0.0912 -0.1175
  806OCT     C1 1611   1.226   5.845   1.487 -0.2603 -0.5435  0.1931
  806OCT     C2 1612   1.152   5.367   1.556 -0.0248  0.1984  0.0419
  807OCT     C1 1613   6.448   2.349   3.783 -0.2536 -0.2400  0.2108
  807OCT     C2 1614   6.070   2.469   3.528 -0.1991 -0.1122 -0.1008
  808OCT     C1 1615   0.284   5.721   1.294 -0.1171  0.1879  0.0665
  808OCT     C2 1616   0.770   5.664   1.426  0.0923 -0.0673  0.0058
  809OCT     C1 1617   3.155   6.080   1.522  0.1172 -0.0759 -0.3282
  809OCT     C2 1618   2.998   6.435   1.499  0.2967 -0.0954  0.3426
  810OCT     C1 1619   3.927   4.491   5.520  0.3443 -0.1945  0.2186
  810OCT     C2 1620   3.861   4.840   5.319  0.0956  0.3817  0.1196
  811OCT     C1 1621   3.139   1.414   2.092 -0.0007 -0.1272 -0.1068
  811OCT     C2 1622   3.400   1.669   1.878  0.1037 -0.0715 -0.0579
  812OCT     C1 1623   1.669   5.922   3.416  0.0940 -0.0891  0.2245
  812OCT     C2 1624   1.968   5.950   3.138  0.0980  0.2458 -0.1836
  813OCT     C1 1625   4.094   5.305   5.386  0.0667 -0.0119 -0.3930
  813OCT     C2 1626   4.449   5.072   5.349  0.0040  0.3146  0.1507
  814OCT     C1 1627   0.111   4.670   5.068  0.2565  0.3630 -0.2015
  814OCT     C2 1628   0.492   4.433   5.132  0.2668 -0.0418 -0.1900
  815OCT     C1 1629   2.154   0.224   4.676 -0.2938  0.2900 -0.0185
  815OCT     C2 1630   2.168  -0.023   5.068  0.1657 -0.1165 -0.0506
  816OCT     C1 1631   0.539   5.527   2.868 -0.1794  0.1401 -0.1301
  816OCT     C2 1632   0.966   5.412   2.877 -0.1055 -0.1023  0.3433
  817OCT     C1 1633   1.307   2.558   4.887  0.0592 -0.3288 -0.2656
  817OCT     C2 1634   1.066   2.287   4.846 -0.2871  0.1041 -0.0458
  818OCT     C1 1635   1.849   1.777   0.157  0.3524  0.0001  0.0436
  818OCT     C2 1636   1.348   1.848   0.109  0.1552  0.2274 -0.0656
  819OCT     C1 1637   2.291   1.615   0.490 -0.1774  0.2700 -0.1941
  819OCT     C2 1638   2.549   1.703   0.771 -0.1354  0.0702 -0.0204
  820OCT     C1 1639   5.105   1.896   0.380 -0.2866 -0.0619 -0.0046
  820OCT     C2 1640   5.129   2.302   0.592  0.1636 -0.0821  0.0575
  821OCT     C1 1641   2.438   6.350   1.543 -0.0062 -0.0791  0.3994
  821OCT     C2 1642   2.224   6.674   1.710 -0.4185 -0.0756  0.2291
  822OCT     C1 1643   3.568   1.496   4.662  0.1534  0.2728 -0.2168
  822OCT     C2 1644   3.474   1.740   5.112 -0.1883 -0.0163 -0.2904
  823OCT     C1 1645   6.459   0.033   2.049  0.0040 -0.0775 -0.2338
  823OCT     C2 1646   6.419   0.342   2.270 -0.1887 -0.1294  0.2096
  824OCT     C1 1647   4.004   4.690   2.120  0.2695  0.1114 -0.2491
  824OCT     C2 1648   3.526   4.598   2.257  0.2057 -0.0960  0.0419
  825OCT     C1 1649   1.053   0.951   5.141 -0.1469  0.2283 -0.4518
  825OCT     C2 1650   1.169   0.707   5.515  0.0097 -0.0541  0.1673
  826OCT     C1 1651   5.127   5.024   3.939 -0.0391 -0.0942 -0.3395
  826OCT     C2 1652   4.784   4.753   4.106  0.1297 -0.1170  0.0240
  827OCT     C1 1653   2.673   6.264   5.127 -0.5221 -0.0301  0.2501
  827OCT     C2 1654   3.090   6.232   4.975  0.2240 -0.0837  0.0810
  828OCT     C1 1655   2.850   1.959   0.458 -0.1280 -0.1263  0.2400
  828OCT     C2 1656   2.819   2.230   0.923 -0.1431 -0.0743 -0.0625
  829OCT     C1 1657   3.211   3.216   3.784  0.1016 -0.1887  0.1363
  829OCT     C2 1658   3.511   3.080   3.456 -0.0282  0.1007 -0.1581
  830OCT     C1 1659   5.447   1.606   0.578 -0.2817 -0.1693  0.2399
  830OCT     C2 1660   5.228   1.679   0.931  0.2582 -0.0758  0.2342
  831OCT     C1 1661   6.034   1.508   2.553 -0.1744 -0.1169  0.1737
  831OCT     C2 1662   5.676   1.393   2.506 -0.1172  0.0572  0.0705
  832OCT     C1 1663   4.741   0.968   2.762 -0.1491  0.0730  0.0139
  832OCT     C2 1664   4.875   0.628   3.132 -0.2061  0.2154  0.0642
  833OCT     C1 1665   5.980   1.240   2.168  0.1892  0.0359  0.2888
  833OCT     C2 1666   6.359   1.256   1.808  0.0613  0.0076 -0.2578
  834OCT     C1 1667   3.622   3.904   0.273  0.0408 -0.2185  0.0424
  834OCT     C2 1668   3.402   3.514   0.447  0.2216  0.0716 -0.1371
  835OCT     C1 1669   3.008   5.844   6.105  0.2790 -0.0250  0.1225
  835OCT     C2 1670   3.476   5.695   6.121  0.2002 -0.2107 -0.0487
  836OCT     C1 1671   0.829   2.869   0.816 -0.4750 -0.0063  0.1885
  836OCT     C2 1672   0.508   3.089   0.687 -0.0679  0.1547 -0.0804
  837OCT     C1 1673   5.495   1.531   0.059 -0.1331  0.0135 -0.1334
  837OCT     C2 1674   5.378   1.968  -0.136 -0.0532 -0.0373 -0.0632
  838OCT     C1 1675   0.080   3.652   1.595  0.2574 -0.0359 -0.1056
  838OCT     C2 1676  -0.332   3.867   1.726 -0.1547  0.0073 -0.3497
  839OCT     C1 1677   3.649   1.119   5.031 -0.2246 -0.2213 -0.4096
  839OCT     C2 1678   3.461   0.729   4.963  0.0393 -0.0652  0.1290
  840OCT     C1 1679   2.420   4.892   4.049  0.0889  0.2135  0.0660
  840OCT     C2 1680   2.161   5.127   3.659  0.5150  0.0884 -0.0602
  841OCT     C1 1681   3.299   3.760   6.211  0.0934  0.0213 -0.0393
  841OCT     C2 1682   3.257   3.698   5.801  0.1351 -0.0939 -0.1783
  842OCT     C1 1683   6.424   0.439   4.191  0.2318  0.0728  0.0738
  842OCT     C2 1684   6.912   0.575   3.953 -0.1324 -0.2722 -0.0008
  843OCT     C1 1685   1.320   2.725   5.957  0.0770  0.0922  0.0319
  843OCT     C2 1686   1.214   2.878   5.572 -0.0788  0.1063  0.1270
  844OCT     C1 1687   1.338   2.717   1.988  0.2370 -0.1504 -0.0711
  844OCT     C2 1688   1.313   2.479   1.578  0.1194 -0.2639 -0.0904
  845OCT     C1 1689   1.939   4.065   1.104 -0.4388  0.0714 -0.0685
  845OCT     C2 1690   1.793   3.886   0.851  0.2242 -0.4403 -0.0838
  846OCT     C1 1691   0.296   0.364   2.443  0.0949 -0.0561  0.1613
  846OCT     C2 1692   0.395  -0.000   2.112  0.1697 -0.1052 -0.1611
  847OCT     C1 1693   0.054   0.582   2.802  0.3035 -0.2002  0.0549
  847OCT     C2 1694  -0.124   0.462   3.213 -0.1618 -0.4495 -0.0786
  848OCT     C1 1695   1.700   2.211   2.207  0.1695 -0.1441 -0.0555
  848OCT     C2 1696   2.105   2.422   2.423 -0.0508  0.0417 -0.2401
  849OCT     C1 1697   5.440   2.354   3.514 -0.1202 -0.1329  0.0888
  849OCT     C2 1698   5.485   2.640   3.206 -0.0029 -0.0978 -0.2156
  850OCT     C1 1699   5.609   5.107   4.238 -0.3010  0.2719 -0.0574
  850OCT     C2 1700   5.602   4.971   3.836  0.3557  0.1252  0.1927
  851OCT     C1 1701   4.075   1.880   3.116 -0.4123  0.1040 -0.2153
  851OCT     C2 1702   4.007   1.747   3.629 -0.0857 -0.2680  0.0549
  852OCT     C1 1703   1.489   4.287   2.815  0.0616  0.2060  0.1002
  852OCT     C2 1704   1.074   4.077   2.515 -0.0644 -0.2804 -0.0304
  853OCT     C1 1705   3.873   4.254   2.518 -0.2873  0.1687 -0.1146
  853OCT     C2 1706   4.071   4.636   2.633 -0.3186  0.0919 -0.0075
  854OCT     C1 1707   0.557   0.074   1.145  0.3396  0.1705 -0.1696
  854OCT     C2 1708   0.201   0.099   0.750  0.1247  0.1119 -0.4791
  855OCT     C1 1709   5.797   0.329   1.545 -0.1040 -0.1304 -0.3905
  855OCT     C2 1710   6.223   0.084   1.210  0.1084 -0.0159 -0.4677
  856OCT     C1 1711   2.107   4.725   3.405 -0.0424  0.3500 -0.3235
  856OCT     C2 1712   1.813   4.381   3.255 -0.0081  0.1603  0.1251
  857OCT     C1 1713   2.609   5.580   2.094  0.0141 -0.0874  0.0005
  857OCT     C2 1714   2.870   5.963   1.999 -0.3617  0.1458  0.4809
  858OCT     C1 1715   0.820   3.977   1.186  0.0456 -0.0656  0.3813
  858OCT     C2 1716   0.560   3.794   1.527  0.1279  0.0453 -0.0631
  859OCT     C1 1717   3.642   6.198   1.579  0.1423 -0.0642  0.1221
  859OCT     C2 1718   3.878   5.919   1.458  0.1682 -0.3656 -0.2010
  860OCT     C1 1719   5.877   5.133   1.393 -0.4040  0.0592  0.0906
  860OCT     C2 1720   5.969   5.013   1.063  0.0589 -0.0282 -0.1426
  861OCT     C1 1721   4.597   5.881   0.920  0.0898 -0.1412 -0.0872
  861OCT     C2 1722   4.867   5.650   1.111  0.0242 -0.0814  0.0705
  862OCT     C1 1723   6.532   1.745   5.661 -0.0184  0.0625 -0.1931
  862OCT     C2 1724   6.594   1.895   6.100  0.1143  0.0225 -0.2786
  863OCT     C1 1725   3.189   2.155   5.113 -0.3756 -0.2380 -0.1865
  863OCT     C2 1726   3.628   2.294   5.190  0.0176 -0.1237  0.0843
  864OCT     C1 1727   4.662   3.893   2.458  0.0274 -0.1081 -0.1031
  864OCT     C2 1728   4.885   3.846   2.091 -0.2552 -0.2258 -0.1717
  865OCT     C1 1729   4.468   0.400   2.129 -0.0467 -0.3125  0.2649
  865OCT     C2 1730   4.131   0.708   2.186 -0.0121  0.1611  0.3644
  866OCT     C1 1731   1.716   1.448   2.661 -0.1192  0.0333 -0.3294
  866OCT     C2 1732   1.818   1.094   2.521 -0.4095  0.0420  0.1021
  867OCT     C1 1733   3.234   2.251   1.767 -0.2128 -0.0170  0.0950
  867OCT     C2 1734   3.075   2.679   2.073  0.0041  0.0623  0.5772
  868OCT     C1 1735   1.146   4.733   2.839  0.2349 -0.0370 -0.0792
  868OCT     C2 1736   0.648   4.965   2.918 -0.0283 -0.1424  0.3775
  869OCT     C1 1737   1.316   1.557   1.011 -0.0277  0.3127 -0.0786
  869OCT     C2 1738   1.458   1.946   1.122  0.1227  0.0984 -0.0904
  870OCT     C1 1739   2.951   0.654   3.332  0.0361  0.0606  0.2842
  870OCT     C2 1740   3.348   0.907   3.220 -0.4052  0.2632  0.0631
  871OCT     C1 1741   4.840   0.908   6.132 -0.2797  0.4720 -0.0817
  871OCT     C2 1742   5.190   0.806   5.998  0.1080  0.2898  0.1692
  872OCT     C1 1743   4.245   6.088   4.485  0.0406  0.2355 -0.2012
  872OCT     C2 1744   4.008   6.358   4.135 -0.2332 -0.2771 -0.2466
  873OCT     C1 1745   0.329   4.703   0.813  0.0681 -0.2411  0.0751
  873OCT     C2 1746   0.176   4.200   0.900 -0.0667 -0.2237 -0.2884
  874OCT     C1 1747   2.702   6.152   1.181  0.1717  0.1481  0.1937
  874OCT     C2 1748   2.337   5.900   1.117 -0.2081 -0.0301  0.1111
  875OCT     C1 1749   1.999   6.090   4.611 -0.1063 -0.2738 -0.1295
  875OCT     C2 1750   1.698   5.941   4.876  0.0048  0.0489 -0.1486
  876OCT     C1 1751   2.922   3.028   3.463 -0.1096 -0.0583  0.1115
  876OCT     C2 1752   2.729   2.527   3.422 -0.0616  0.0192  0.3749
  877OCT     C1 1753   6.160   5.912   2.226 -0.4178 -0.0011  0.0287
  877OCT     C2 1754   6.527   5.792   1.894 -0.3517 -0.5359 -0.0146
  878OCT     C1 1755   3.493   4.892   2.681 -0.0141  0.0656 -0.0457
  878OCT     C2 1756   3.117   5.115   2.659  0.2042  0.0769  0.1922
  879OCT     C1 1757   4.107   3.775   3.266  0.2941 -0.1593  0.0143
  879OCT     C2 1758   4.073   3.816   2.680 -0.1547 -0.0415 -0.0345
  880OCT     C1 1759   6.589   5.790   2.451 -0.1010  0.4445  0.1320
  880OCT     C2 1760   6.960   5.795   2.169 -0.2221  0.3367 -0.1459
  881OCT     C1 1761   4.528   6.170   5.276  0.1848  0.0345 -0.2673
  881OCT     C2 1762   4.505   5.965   5.529  0.0347  0.1928 -0.4108
  882OCT     C1 1763   6.235   4.306   0.734 -0.0335 -0.3452 -0.1495
  882OCT     C2 1764   6.695   4.489   0.655  0.1916  0.1180 -0.0150
  883OCT     C1 1765   1.301   5.053   4.173  0.1669 -0.0151  0.2479
  883OCT     C2 1766   1.303   5.350   3.844  0.1705 -0.1185  0.1067
  884OCT     C1 1767   2.075   1.348   3.104 -0.0222  0.1329 -0.3156
  884OCT     C2 1768   1.699   1.340   3.539  0.0816  0.1775  0.4900
  885OCT     C1 1769   5.373   5.026   1.007 -0.2264  0.0169  0.5227
  885OCT     C2 1770   5.205   5.330   1.322  0.0396 -0.0356  0.1072
  886OCT     C1 1771   2.251   3.479   3.081 -0.0079 -0.0030 -0.3184
  886OCT     C2 1772   2.064   3.047   2.924 -0.0841  0.4262 -0.1955
  887OCT     C1 1773   6.702   0.169   1.179 -0.1185 -0.0952  0.1556
  887OCT     C2 1774   6.950  -0.207   1.145  0.4714 -0.0304  0.2865
  888OCT     C1 1775   5.499   0.637   2.852  0.1317 -0.0350  0.1035
  888OCT     C2 1776   5.079   0.650   2.647 -0.2204  0.1139  0.0045
  889OCT     C1 1777   2.283   5.554   6.118 -0.0589 -0.3026 -0.4009
  889OCT     C2 1778   2.101   5.531   5.724  0.0846 -0.0565  0.3053
  890OCT     C1 1779   5.659   1.047   4.155  0.2511 -0.0554  0.2877
  890OCT     C2 1780   5.694   1.041   3.662  0.1026  0.0573 -0.0554
  891OCT     C1 1781   4.338   5.677   0.566 -0.2962  0.0889  0.1523
  891OCT     C2 1782   4.352   5.385   0.246  0.0511  0.1719  0.1545
  892OCT     C1 1783   3.484   5.525   1.717  0.0174 -0.0927 -0.0810
  892OCT     C2 1784   3.961   5.495   1.692  0.2429 -0.1432 -0.0215
  893OCT     C1 1785   4.949   2.545   2.178  0.1862 -0.1706 -0.0545
  893OCT     C2 1786   4.744   2.279   1.893 -0.2232  0.0439  0.1194
  894OCT     C1 1787   3.836   1.681   0.440 -0.0519 -0.1903 -0.2628
  894OCT     C2 1788   4.198   1.621   0.576  0.0157 -0.0425 -0.0998
  895OCT     C1 1789   5.971   0.337   2.119 -0.0630  0.1181  0.0976
  895OCT     C2 1790   6.243   0.725   1.948  0.0494 -0.2082  0.3595
  896OCT     C1 1791   1.115   4.451   5.777  0.0031 -0.1320 -0.0246
  896OCT     C2 1792   0.671   4.486   5.633  0.2389  0.1930 -0.0854
  897OCT     C1 1793   4.016   1.471   5.018 -0.1394  0.0554  0.0667
  897OCT     C2 1794   3.948   1.874   5.153 -0.0983  0.0782 -0.0063
  898OCT     C1 1795   6.304   1.038   4.280  0.1776 -0.2744 -0.0813
  898OCT     C2 1796   6.494   1.369   4.451  0.0131  0.0537  0.1916
  899OCT     C1 1797   2.761   4.100   1.947  0.1355  0.0286  0.1175
  899OCT     C2 1798   2.620   4.468   2.024  0.0172 -0.1179  0.1322
  900OCT     C1 1799   5.033   5.798   1.591 -0.2442 -0.0823 -0.0030
  900OCT     C2 1800   5.501   5.509   1.681  0.0711  0.1057 -0.0608
  901OCT     C1 1801   1.211   3.022   0.013  0.2114 -0.0486  0.0656
  901OCT     C2 1802   1.587   2.810   0.088  0.0745 -0.4636 -0.1021
  902OCT     C1 1803   5.101   3.946   5.197 -0.2693  0.2113  0.1498
  902OCT     C2 1804   5.482   3.987   5.263  0.0269  0.0630  0.1906
  903OCT     C1 1805   6.715   3.658   3.715 -0.1954  0.1216  0.0715
  903OCT     C2 1806   6.815   3.355   4.003 -0.0277 -0.2501 -0.0393
  904OCT     C1 1807   3.380   4.555   5.193  0.2283  0.1818 -0.2506
  904OCT     C2 1808   3.011   4.462   5.356  0.2021  0.1176 -0.2378
  905OCT     C1 1809   3.441   6.317   3.417 -0.2513  0.0401 -0.0215
  905OCT     C2 1810   3.476   6.789   3.305  0.0943  0.6218 -0.0561
  906OCT     C1 1811   1.140   3.951   4.460  0.1199  0.0943  0.1446
  906OCT     C2 1812   1.287   3.686   4.141 -0.1205  0.0967 -0.1637
  907OCT     C1 1813   3.736   5.949   5.631  0.1172  0.3271 -0.2370
  907OCT     C2 1814   3.460   6.166   5.863 -0.1917  0.0582  0.0453
  908OCT     C1 1815   2.839   1.206   2.424 -0.0042  0.0003 -0.0797
  908OCT     C2 1816   2.797   1.011   2.833 -0.3210  0.2025 -0.1097
  909OCT     C1 1817   4.930   1.350   4.530 -0.0428  0.1057  0.0367
  909OCT     C2 1818   5.241   1.342   4.256  0.3247 -0.3033 -0.1237
  910OCT     C1 1819   2.692   3.463   2.220  0.2678  0.1986  0.1385
  910OCT     C2 1820   2.950   3.229   1.928  0.0486 -0.3609 -0.2763
  911OCT     C1 1821   0.085   5.073   1.480 -0.2592  0.0461  0.0681
  911OCT     C2 1822  -0.309   5.329   1.767 -0.4391  0.0746 -0.0196
  912OCT     C1 1823   5.953   2.734   5.990 -0.0141 -0.0593  0.0563
  912OCT     C2 1824   5.809   2.483   6.289  0.2571 -0.0270  0.0684
  913OCT     C1 1825   0.474   1.473   2.204  0.3092  0.0618 -0.0359
  913OCT     C2 1826   0.634   1.793   2.172  0.0826 -0.2488  0.1135
  914OCT     C1 1827   4.165   3.543   5.978  0.1353 -0.0906  0.0387
  914OCT     C2 1828   4.619   3.345   5.993  0.1480  0.1258 -0.3102
  915OCT     C1 1829   0.793   1.761   2.642  0.0455 -0.0768 -0.0926
  915OCT     C2 1830   0.924   1.569   2.944  0.0662 -0.1709 -0.0069
  916OCT     C1 1831   6.338   1.700   1.467  0.2114 -0.0037  0.0274
  916OCT     C2 1832   6.790   1.616   1.587 -0.3947 -0.0502 -0.2979
  917OCT     C1 1833   1.890   3.683   0.255  0.1510  0.0441 -0.1239
  917OCT     C2 1834   1.628   3.810  -0.006 -0.1025  0.1759 -0.1778
  918OCT     C1 1835   0.633   2.958   0.173  0.0710 -0.1209 -0.2472
  918OCT     C2 1836   0.446   3.150  -0.201  0.2966 -0.0776  0.0428
  919OCT     C1 1837   5.455   5.100   4.730  0.0470 -0.0035  0.3433
  919OCT     C2 1838   5.496   4.680   4.685  0.1664  0.1384 -0.0893
  920OCT     C1 1839   0.520   5.590   4.146 -0.0957  0.0284 -0.0413
  920OCT     C2 1840   0.603   5.860   4.530 -0.0215 -0.1414 -0.0237
  921OCT     C1 1841   0.386   3.102   4.960  0.0369  0.0119  0.0649
  921OCT     C2 1842   0.367   3.410   5.312 -0.0728 -0.0518  0.1280
  922OCT     C1 1843   6.327   4.418   1.916  0.0769  0.0208 -0.1672
  922OCT     C2 1844   6.307   4.079   2.089  0.1810  0.1851  0.0047
  923OCT     C1 1845   5.243   5.447   4.380  0.1645  0.1619 -0.0376
  923OCT     C2 1846   5.287   5.503   3.907  0.0466 -0.0415  0.1096
  924OCT     C1 1847   6.756   0.364   5.657  0.0064 -0.0892 -0.0025
  924OCT     C2 1848   7.173   0.387   5.679  0.1838  0.1515  0.4472
  925OCT     C1 1849   0.757   5.834   0.299  0.0733  0.4061 -0.2318
  925OCT     C2 1850   0.908   5.602  -0.054  0.3007 -0.2380 -0.2544
  926OCT     C1 1851   1.170   2.427   5.401  0.2639 -0.4093  0.3248
  926OCT     C2 1852   1.635   2.515   5.460 -0.0667 -0.0321  0.1804
  927OCT     C1 1853   2.431   4.161   5.843 -0.1464 -0.4599  0.0176
  927OCT     C2 1854   2.582   4.572   5.674 -0.0014 -0.1059 -0.0536
  928OCT     C1 1855   3.776   2.050   4.074  0.2100 -0.0689 -0.1112
  928OCT     C2 1856   3.517   1.736   3.935  0.1921  0.0599  0.2886
  929OCT     C1 1857   0.792   1.170   3.929  0.0176 -0.3518  0.2910
  929OCT     C2 1858   0.843   1.353   4.358  0.1760 -0.1239 -0.2854
  930OCT     C1 1859   0.428   4.260   1.307 -0.1241 -0.2929  0.0206
  930OCT     C2 1860   0.048   4.063   1.359  0.2398 -0.0836  0.2170
  931OCT     C1 1861   4.072   3.936   0.127  0.4134 -0.1079  0.0605
  931OCT     C2 1862   4.018   4.094   0.536 -0.1345  0.1287 -0.0437
  932OCT     C1 1863   6.488   0.326   1.621  0.1450 -0.1946  0.1449
  932OCT     C2 1864   6.597  -0.130   1.601 -0.0564 -0.2231  0.2620
  933OCT     C1 1865   1.554   0.382   2.898  0.0138  0.2489  0.3668
  933OCT     C2 1866   1.576  -0.005   3.125 -0.1771 -0.0368 -0.0234
  934OCT     C1 1867   4.183   4.500   3.142 -0.4338 -0.1025 -0.1169
  934OCT     C2 1868   3.811   4.263   3.435  0.0879 -0.1530 -0.2639
  935OCT     C1 1869   6.604   6.228   5.531  0.2071 -0.1403  0.3483
  935OCT     C2 1870   6.642   6.088   5.187  0.1325 -0.0994  0.0568
  936OCT     C1 1871   5.178   2.781   2.583 -0.0155  0.1695  0.1487
  936OCT     C2 1872   5.295   3.233   2.663  0.2389  0.0485 -0.1170
  937OCT     C1 1873   2.386   4.243   4.656  0.2892  0.1689  0.0296
  937OCT     C2 1874   2.746   4.043   4.595  0.2239 -0.0113  0.0070
  938OCT     C1 1875   5.019   0.470   4.064  0.1455  0.4225 -0.0095
  938OCT     C2 1876   4.771   0.726   3.892 -0.0191  0.1237  0.3091
  939OCT     C1 1877   3.123   1.358   1.480 -0.1055  0.0387 -0.1270
  939OCT     C2 1878   2.888   1.180   1.760  0.5662 -0.1225  0.3817
  940OCT     C1 1879   0.113   1.303   4.480 -0.1420 -0.0677 -0.0201
  940OCT     C2 1880  -0.159   1.099   4.820 -0.3065 -0.0560 -0.3399
  941OCT     C1 1881   2.635   3.635   5.871  0.1142 -0.0092 -0.0792
  941OCT     C2 1882   2.824   3.944   6.142 -0.0638  0.2586  0.0254
  942OCT     C1 1883   1.511   0.099   1.415  0.2181  0.1293  0.1772
  942OCT     C2 1884   1.987   0.013   1.285  0.1489 -0.1544 -0.0278
  943OCT     C1 1885   6.462   0.790   2.821  0.2429 -0.3869 -0.0289
  943OCT     C2 1886   6.124   1.063   2.868 -0.1264 -0.0169  0.2681
  944OCT     C1 1887   0.764   5.335   3.302 -0.2529 -0.3151  0.1080
  944OCT     C2 1888   0.502   5.723   3.356  0.0513 -0.2330  0.2828
  945OCT     C1 1889   2.632   3.439   3.420  0.0668 -0.0451  0.1154
  945OCT     C2 1890   2.946   3.750   3.537 -0.2625 -0.1452 -0.2772
  946OCT     C1 1891   0.908   4.932   3.512  0.0582  0.2508 -0.1751
  946OCT     C2 1892   1.134   5.055   3.203 -0.0779 -0.1019  0.0076
  947OCT     C1 1893   6.331   6.115   3.137 -0.0586 -0.2590 -0.2885
  947OCT     C2 1894   6.437   5.717   3.227 -0.2087  0.1978 -0.3010
  948OCT     C1 1895   5.635   4.022   1.659 -0.0941  0.0066 -0.0833
  948OCT     C2 1896   5.914   3.630   1.634  0.3381 -0.0597  0.1971
  949OCT     C1 1897   2.711   5.357   6.235  0.1010  0.2813 -0.5018
  949OCT     C2 1898   2.432   5.371   6.601  0.1895 -0.0269  0.0781
  950OCT     C1 1899   0.296   2.357   1.579 -0.0235 -0.1220  0.1156
  950OCT     C2 1900   0.253   1.886   1.864 -0.3523 -0.2530  0.1069
  951OCT     C1 1901   3.446   0.053   2.823  0.0904 -0.0286  0.1738
  951OCT     C2 1902   3.803  -0.141   3.084 -0.0740  0.1286  0.0702
  952OCT     C1 1903   0.366   6.047   3.001  0.0656 -0.2418  0.3767
  952OCT     C2 1904   0.053   5.724   3.122 -0.2470 -0.1184 -0.0083
  953OCT     C1 1905   1.645   5.465   5.477  0.3975 -0.1040  0.1832
  953OCT     C2 1906   1.831   5.110   5.506 -0.1069 -0.0431 -0.2908
  954OCT     C1 1907   1.187   4.077   3.164 -0.0667  0.0058  0.3413
  954OCT     C2 1908   1.681   3.902   3.116  0.2188 -0.2472 -0.1067
  955OCT     C1 1909   3.522   1.242   1.157 -0.1596 -0.1705 -0.2988
  955OCT     C2 1910   3.588   1.268   0.728 -0.0368 -0.0619 -0.2651
  956OCT     C1 1911   3.776   5.439   5.779  0.0997  0.1647 -0.4405
  956OCT     C2 1912   3.876   5.322   6.254 -0.1066  0.1856 -0.1377
  957OCT     C1 1913   2.504   3.633   6.352  0.0525  0.2329  0.0271
  957OCT     C2 1914   2.506   3.998   6.541 -0.0195 -0.0177 -0.2596
  958OCT     C1 1915   3.107   3.451   4.169 -0.1871  0.1250 -0.0884
  958OCT     C2 1916   2.734   3.572   3.961 -0.0135  0.0666  0.1502
  959OCT     C1 1917   2.862   3.371   1.086  0.1091 -0.1035  0.0757
  959OCT     C2 1918   2.784   3.016   1.531 -0.0914  0.1221 -0.1735
  960OCT     C1 1919   5.030   1.798   5.627 -0.0757  0.0705 -0.2868
  960OCT     C2 1920   4.869   1.763   6.063  0.0434 -0.3920 -0.0646
  961OCT     C1 1921   2.286   1.455   2.403 -0.4143  0.1031  0.0697
  961OCT     C2 1922   2.596   1.616   1.940 -0.0855  0.2559 -0.0416
  962OCT     C1 1923   3.348   2.099   4.356 -0.0974  0.2037 -0.2419
  962OCT     C2 1924   3.366   2.389   4.709  0.0489  0.1820  0.2683
  963OCT     C1 1925   2.707   0.055   1.949  0.1111  0.0371 -0.1937
  963OCT     C2 1926   2.355  -0.338   1.959 -0.0750 -0.1921 -0.1141
  964OCT     C1 1927   5.063   0.523   5.163 -0.0926  0.0569  0.1171
  964OCT     C2 1928   4.684   0.438   4.964  0.1947 -0.2235  0.0163
  965OCT     C1 1929   3.291   5.382   3.880  0.1250 -0.0029  0.0277
  965OCT     C2 1930   3.066   5.455   4.278 -0.0268 -0.0279  0.0741
  966OCT     C1 1931   6.756   3.291   1.855 -0.0709 -0.3160  0.0547
  966OCT     C2 1932   7.087   3.260   2.218  0.0805  0.1479  0.1542
  967OCT     C1 1933   0.739   2.296   2.409  0.0529 -0.0708  0.0638
  967OCT     C2 1934   0.834   2.698   2.200 -0.0701  0.1330 -0.2852
  968OCT     C1 1935   5.353   2.165   4.566 -0.0534 -0.0099 -0.0001
  968OCT     C2 1936   5.332   2.551   4.952  0.0877 -0.1165  0.1510
  969OCT     C1 1937   4.744   2.062   2.454 -0.4373 -0.1266  0.0937
  969OCT     C2 1938   5.064   2.336   2.666  0.3550  0.1569  0.1027
  970OCT     C1 1939   2.876   5.480   5.385  0.4692  0.3622 -0.2292
  970OCT     C2 1940   2.979   5.701   4.978  0.1531 -0.3310  0.0988
  971OCT     C1 1941   0.047   5.216   2.908  0.2721  0.0749  0.4135
  971OCT     C2 1942   0.092   5.295   3.362 -0.0580 -0.1670  0.0912
  972OCT     C1 1943   0.337   3.045   4.050  0.2244 -0.1474  0.0889
  972OCT     C2 1944  -0.016   2.910   3.814  0.2277  0.0954  0.3211
  973OCT     C1 1945   1.022   4.671   4.913 -0.0760  0.0418  0.0340
  973OCT     C2 1946   0.777   4.755   5.273 -0.1032 -0.1079 -0.2030
  974OCT     C1 1947   4.915   3.384   4.803 -0.0310  0.2548 -0.0516
  974OCT     C2 1948   4.721   3.802   4.784  0.1587  0.1002  0.1086
  975OCT     C1 1949   1.710   2.231   3.938 -0.2842  0.2089  0.1377
  975OCT     C2 1950   1.993   1.904   3.763 -0.2623  0.0106  0.0367
  976OCT     C1 1951   3.616   2.203   1.410  0.1417  0.0529 -0.0795
  976OCT     C2 1952   3.618   2.505   0.967  0.1697  0.2317 -0.1334
  977OCT     C1 1953   4.968   0.097   3.337  0.2769  0.2206 -0.0265
  977OCT     C2 1954   5.201   0.408   3.524 -0.1191  0.1123 -0.3135
  978OCT     C1 1955   2.275   2.005   0.157 -0.3072  0.2725 -0.1731
  978OCT     C2 1956   2.698   2.251   0.028  0.0468  0.0683 -0.0926
  979OCT     C1 1957   6.483   2.155   1.114  0.0426  0.0046 -0.5396
  979OCT     C2 1958   6.698   2.540   1.069 -0.0686 -0.1635  0.1128
  980OCT     C1 1959   2.018   5.249   4.254  0.3332 -0.2080 -0.1799
  980OCT     C2 1960   1.778   5.122   4.511  0.2715  0.0440 -0.0189
  981OCT     C1 1961   0.728   0.700   5.340 -0.1553  0.0591 -0.2544
  981OCT     C2 1962   0.634   0.413   5.051 -0.0601 -0.3626 -0.0571
  982OCT     C1 1963   2.914   4.531   0.091  0.0415 -0.1181  0.2011
  982OCT     C2 1964   2.633   4.432  -0.164 -0.1260 -0.0822 -0.1829
  983OCT     C1 1965   6.441   4.772   0.980  0.1175 -0.0659  0.0020
  983OCT     C2 1966   6.040   4.549   1.215  0.2764 -0.0223  0.2568
  984OCT     C1 1967   5.232   0.428   1.774  0.0390  0.3446  0.0884
  984OCT     C2 1968   4.980   0.445   1.444 -0.0343 -0.0369 -0.0920
  985OCT     C1 1969   5.004   6.136   2.527 -0.1819  0.1321 -0.0004
  985OCT     C2 1970   4.700   6.374   2.360  0.0567 -0.1404  0.2373
  986OCT     C1 1971   6.650   2.940   4.404 -0.1809  0.0562 -0.0317
  986OCT     C2 1972   6.647   2.517   4.205  0.2010 -0.0259 -0.0193
  987OCT     C1 1973   5.855   5.397   2.766 -0.0399  0.2434 -0.0958
  987OCT     C2 1974   5.568   5.631   3.043  0.4215  0.0148  0.0075
  988OCT     C1 1975   6.549   4.747   2.646  0.0252  0.0387  0.3338
  988OCT     C2 1976   6.674   4.409   2.964 -0.1368 -0.0250  0.2186
  989OCT     C1 1977   3.956   5.836   4.092  0.2645  0.0684 -0.0116
  989OCT     C2 1978   3.654   5.487   4.242  0.0034  0.1249  0.0147
  990OCT     C1 1979   5.281   4.122   5.743 -0.0448 -0.1722 -0.1773
  990OCT     C2 1980   5.514   4.449   5.510  0.1489 -0.2665 -0.0372
  991OCT     C1 1981   5.246   6.176   3.034  0.1384 -0.0980  0.2929
  991OCT     C2 1982   5.445   6.494   2.943 -0.4112  0.2486 -0.1913
  992OCT     C1 1983   1.762   2.585   4.915 -0.1771 -0.0774 -0.0165
  992OCT     C2 1984   1.569   2.962   4.707 -0.0468 -0.0145 -0.0195
  993OCT     C1 1985   1.193   6.063   3.534  0.1354 -0.0908  0.2583
  993OCT     C2 1986   1.624   6.319   3.661 -0.2928  0.1272 -0.2286
  994OCT     C1 1987   3.122   0.486   4.169  0.0440  0.1085  0.1300
  994OCT     C2 1988   3.093  -0.054   4.019  0.1308 -0.0451 -0.0651
  995OCT     C1 1989   1.143   3.012   1.640 -0.0782 -0.2708  0.1856
  995OCT     C2 1990   0.776   3.099   1.958  0.2627  0.0226  0.0463
  996OCT     C1 1991   6.430   0.936   3.739 -0.0245  0.2811 -0.1818
  996OCT     C2 1992   6.474   0.512   3.676  0.0843  0.1024  0.3267
  997OCT     C1 1993   3.804   2.677   3.584  0.1692 -0.2160 -0.1138
  997OCT     C2 1994   3.585   2.558   3.875 -0.1012  0.1202 -0.1416
  998OCT     C1 1995   3.731   3.414   3.204 -0.0242  0.4534  0.0930
  998OCT     C2 1996   3.836   3.137   2.850 -0.2939 -0.0052  0.2316
  999OCT     C1 1997   4.875   2.175   6.351  0.0020 -0.0181  0.0500
  999OCT     C2 1998   4.616   1.777   6.526  0.0139  0.1429  0.0439
 1000OCT     C1 1999   0.397   3.825   3.373 -0.2372  0.4764 -0.2799
 1000OCT     C2 2000   0.750   3.928   3.560  0.1404 -0.3506  0.2508
 1001OCT     C1 2001   5.814   0.283   3.675  0.0446 -0.2853 -0.2864
 1001OCT     C2 2002   5.650   0.522   3.303  0.3401 -0.1000  0.0744
 1002OCT     C1 2003   5.093   2.635   4.020  0.0561 -0.0622  0.1854
 1002OCT     C2 2004   4.960   2.908   3.664  0.1906 -0.1395 -0.0782
 1003OCT     C1 2005   2.876   4.635   2.514  0.0445 -0.2439  0.0374
 1003OCT     C2 2006   2.452   4.798   2.544  0.1039  0.1740 -0.1312
 1004OCT     C1 2007   2.957   4.459   4.398  0.4763  0.2467 -0.0962
 1004OCT     C2 2008   3.200   4.307   4.123 -0.2052 -0.2351  0.0635
 1005OCT     C1 2009   3.018   0.964   5.849 -0.2578 -0.1283  0.1862
 1005OCT     C2 2010   2.729   0.573   5.860 -0.1566  0.2273 -0.0017
 1006OCT     C1 2011   1.066   2.207   4.331  0.0930 -0.0074  0.0719
 1006OCT     C2 2012   0.990   1.873   4.547 -0.0866 -0.3674 -0.2933
 1007OCT     C1 2013   6.819   4.718   2.115  0.0170 -0.2297  0.4277
 1007OCT     C2 2014   7.150   4.950   2.425 -0.1406  0.1298  0.0089
 1008OCT     C1 2015   6.834   4.135   1.975 -0.1178 -0.2046  0.1683
 1008OCT     C2 2016   7.010   3.747   2.095  0.0830 -0.4162 -0.2944
 1009OCT     C1 2017   4.506   0.043   4.298 -0.6078 -0.0731 -0.2067
 1009OCT     C2 2018   4.555   0.293   3.943 -0.0462 -0.1843 -0.1199
 1010OCT     C1 2019   5.277   1.154   2.968 -0.0424 -0.1052 -0.0744
 1010OCT     C2 2020   5.679   1.067   3.066  0.0227 -0.0751 -0.1224
 1011OCT     C1 2021   6.036   1.704   0.482  0.0086 -0.1038 -0.2902
 1011OCT     C2 2022   5.984   1.431   0.738 -0.1349 -0.0215 -0.0722
 1012OCT     C1 2023   1.714   5.230   1.924  0.0600  0.0433  0.0380
 1012OCT     C2 2024   1.615   4.784   2.144  0.2323 -0.1196  0.0734
 1013OCT     C1 2025   5.148   6.031   1.061  0.0265  0.0224 -0.3611
 1013OCT     C2 2026   5.511   5.867   1.075  0.1079  0.0703  0.1721
 1014OCT     C1 2027   4.511   0.116   2.938  0.0894 -0.2546 -0.4494
 1014OCT     C2 2028   4.942   0.187   2.832 -0.1353 -0.1752  0.0289
 1015OCT     C1 2029   0.106   0.426   1.664  0.1321  0.0609  0.0271
 1015OCT     C2 2030  -0.017   0.341   2.039 -0.2891 -0.1120 -0.2570
 1016OCT     C1 2031   0.601   2.137   5.436  0.1421  0.0933  0.0494
 1016OCT     C2 2032   0.519   1.783   5.550 -0.0808  0.0147 -0.2119
 1017OCT     C1 2033   1.956   1.484   4.067 -0.2274  0.0602 -0.1822
 1017OCT     C2 2034   1.782   1.155   4.343 -0.2768  0.0663 -0.1968
 1018OCT     C1 2035   4.252   2.806   1.475 -0.2643 -0.0366  0.2316
 1018OCT     C2 2036   4.477   2.357   1.453  0.1905 -0.4163  0.1810
 1019OCT     C1 2037   2.835   2.457   4.564  0.2358 -0.0247 -0.2488
 1019OCT     C2 2038   2.659   2.498   4.174  0.0672 -0.0375 -0.0669
 1020OCT     C1 2039   0.645   0.365   3.331 -0.1908 -0.0839  0.2181
 1020OCT     C2 2040   0.305   0.416   3.493  0.2457 -0.1646 -0.1087
 1021OCT     C1 2041   1.512   6.248   0.968 -0.3445  0.1254  0.1672
 1021OCT     C2 2042   1.315   6.143   0.667  0.1348  0.2559  0.1365
 1022OCT     C1 2043   2.776   4.129   0.603 -0.0400 -0.0623  0.2864
 1022OCT     C2 2044   3.171   3.835   0.720 -0.3180  0.0489  0.1912
 1023OCT     C1 2045   1.409   1.075   0.148  0.3111 -0.0438 -0.0804
 1023OCT     C2 2046   1.887   0.827   0.140  0.2388 -0.0766 -0.0939
 1024OCT     C1 2047   5.119   0.326   5.983  0.0244 -0.2111 -0.0014
 1024OCT     C2 2048   5.160  -0.089   6.162  0.1111 -0.1128 -0.0543
 1025OCT     C1 2049   0.306   2.415   4.272 -0.3051  0.0669  0.0928
 1025OCT     C2 2050   0.218   2.078   4.429  0.0517 -0.1612  0.4755
 1026OCT     C1 2051   0.991   0.839   3.167  0.0705  0.1714  0.0423
 1026OCT     C2 2052   0.734   0.627   2.852 -0.1983  0.0086  0.3166
 1027OCT     C1 2053   2.402   4.950   1.415  0.2222  0.0817 -0.0334
 1027OCT     C2 2054   1.977   5.154   1.537  0.1272  0.1128  0.2049
 1028OCT     C1 2055   5.471   4.395   2.388 -0.0413  0.0456  0.0530
 1028OCT     C2 2056   5.003   4.463   2.331 -0.0006  0.0101  0.0160
 1029OCT     C1 2057   2.040   0.930   4.757 -0.1625 -0.0144 -0.1063
 1029OCT     C2 2058   2.235   1.233   4.478  0.0107 -0.1630 -0.1893
 1030OCT     C1 2059   2.185   2.143   2.041 -0.2154 -0.1319 -0.1410
 1030OCT     C2 2060   1.937   1.767   1.821  0.2191 -0.0743 -0.0273
 1031OCT     C1 2061   3.256   4.030   2.209  0.2401  0.0653  0.1197
 1031OCT     C2 2062   2.953   3.925   2.517  0.4404 -0.1077 -0.1146
 1032OCT     C1 2063   3.603   2.504   0.467  0.0281 -0.0220 -0.2209
 1032OCT     C2 2064   3.734   2.138   0.665  0.0679 -0.1087  0.2536
 1033OCT     C1 2065   2.005   3.548   1.633 -0.0717 -0.1042  0.1054
 1033OCT     C2 2066   1.947   3.552   1.191 -0.1686 -0.1434 -0.0272
 1034OCT     C1 2067   6.289   2.986   1.866  0.0738 -0.0505  0.0898
 1034OCT     C2 2068   6.224   2.583   2.016  0.2290 -0.1072 -0.2007
 1035OCT     C1 2069   3.582   0.724   0.529  0.2584 -0.3774  0.2956
 1035OCT     C2 2070   3.236   0.979   0.430  0.2736  0.0647 -0.3496
 1036OCT     C1 2071   2.706   1.751   5.124 -0.0169  0.1925  0.2578
 1036OCT     C2 2072   2.352   1.582   4.843  0.0760 -0.0755 -0.3240
 1037OCT     C1 2073   5.846   3.739   5.510  0.4766  0.1632 -0.2261
 1037OCT     C2 2074   5.894   4.127   5.493 -0.1463 -0.1593  0.0413
 1038OCT     C1 2075   2.379   3.741   1.887 -0.0929  0.1806  0.0024
 1038OCT     C2 2076   2.251   4.198   1.864  0.0285 -0.0603  0.0371
 1039OCT     C1 2077   5.812   2.227   3.902  0.0576  0.2023 -0.2419
 1039OCT     C2 2078   5.422   2.275   4.108  0.2744  0.0412  0.3471
 1040OCT     C1 2079   2.680   3.461   4.529  0.2647 -0.0655  0.1436
 1040OCT     C2 2080   2.423   3.822   4.358  0.0141 -0.2233 -0.1830
 1041OCT     C1 2081   1.764   0.483   6.139 -0.0974  0.1754  0.3250
 1041OCT     C2 2082   1.551   0.455   6.470 -0.3669  0.2305  0.2426
 1042OCT     C1 2083   5.894   3.849   3.029  0.2659 -0.0888  0.0739
 1042OCT     C2 2084   5.892   4.339   3.260  0.0447 -0.1539  0.0113
 1043OCT     C1 2085   4.153   2.370   5.103 -0.0143  0.1032 -0.0929
 1043OCT     C2 2086   4.136   2.202   5.551 -0.2061 -0.0931 -0.2838
 1044OCT     C1 2087   3.414   3.860   1.744  0.4014  0.0799 -0.1308
 1044OCT     C2 2088   2.982   3.628   1.631 -0.2649  0.0403  0.0233
 1045OCT     C1 2089   1.094   1.453   4.877 -0.1804 -0.1646  0.1122
 1045OCT     C2 2090   1.364   1.331   5.223 -0.1639 -0.1770 -0.0348
 1046OCT     C1 2091   1.407   0.615   3.292 -0.0093 -0.0929 -0.1605
 1046OCT     C2 2092   1.784   0.421   3.523 -0.2962 -0.0713  0.0975
 1047OCT     C1 2093   1.409   1.937   4.226 -0.3020  0.0801  0.2325
 1047OCT     C2 2094   1.089   1.678   4.124  0.0780 -0.1006 -0.0292
 1048OCT     C1 2095   5.845   1.869   0.024 -0.1728  0.0333 -0.0610
 1048OCT     C2 2096   6.155   2.072   0.093  0.0774  0.0599  0.3057
 1049OCT     C1 2097   4.288   5.471   2.257 -0.0129 -0.0198 -0.0587
 1049OCT     C2 2098   4.098   5.834   2.457 -0.2430 -0.1628  0.0292
 1050OCT     C1 2099   4.120   4.473   4.993 -0.0505  0.0262 -0.0294
 1050OCT     C2 2100   3.716   4.660   4.857  0.1226 -0.0151 -0.0022
 1051OCT     C1 2101   3.196   2.603   5.379 -0.0816 -0.2892 -0.1232
 1051OCT     C2 2102   2.799   2.627   5.038 -0.1425 -0.0209  0.0867
 1052OCT     C1 2103   4.197   2.011   2.528 -0.0234 -0.2298 -0.0277
 1052OCT     C2 2104   4.203   1.646   2.115 -0.0174  0.2568 -0.1788
 1053OCT     C1 2105   5.104   2.529   5.350 -0.2762  0.3832 -0.0805
 1053OCT     C2 2106   5.371   2.688   5.704  0.2178  0.1894  0.0063
 1054OCT     C1 2107   6.163   3.792   4.067  0.0170 -0.2872 -0.1665
 1054OCT     C2 2108   5.816   3.640   4.350 -0.0040  0.2565 -0.2492
 1055OCT     C1 2109   6.821   5.609   0.242 -0.0040 -0.4490  0.0455
 1055OCT     C2 2110   6.592   5.238   0.075 -0.1111  0.0087 -0.2642
 1056OCT     C1 2111   3.263   6.023   5.424 -0.1797  0.0015  0.1921
 1056OCT     C2 2112   3.286   5.714   5.653 -0.1004 -0.4074 -0.1588
 1057OCT     C1 2113   2.302   3.572   4.926 -0.4470 -0.0609 -0.1658
 1057OCT     C2 2114   2.168   3.440   4.459 -0.0746  0.1246 -0.2572
 1058OCT     C1 2115   0.653   1.841   0.387 -0.0367 -0.0275  0.1088
 1058OCT     C2 2116   0.528   1.389   0.337  0.0612  0.0527  0.1858
 1059OCT     C1 2117   1.563   4.397   0.060 -0.3294 -0.6679  0.1553
 1059OCT     C2 2118   1.558   4.413  -0.322 -0.2262  0.2441  0.3081
 1060OCT     C1 2119   5.424   4.064   3.164 -0.1439  0.0695  0.1833
 1060OCT     C2 2120   5.540   4.280   2.885 -0.1441  0.0788  0.0948
 1061OCT     C1 2121   2.966   1.828   1.736 -0.1075  0.1700 -0.1012
 1061OCT     C2 2122   3.129   1.999   1.376  0.1132 -0.0359 -0.1378
 1062OCT     C1 2123   5.879   0.224   2.577 -0.1546 -0.0078 -0.0291
 1062OCT     C2 2124   5.970   0.537   2.865  0.0488 -0.1140  0.2505
 1063OCT     C1 2125   6.050   1.456   4.249 -0.1972 -0.0383  0.1140
 1063OCT     C2 2126   6.058   1.233   4.660 -0.1314 -0.0381 -0.1767
 1064OCT     C1 2127   6.096   4.363   0.232 -0.0991 -0.3781  0.2318
 1064OCT     C2 2128   6.248   4.796   0.439  0.0803 -0.0074 -0.3624
 1065OCT     C1 2129   3.787   1.472   2.306 -0.2617 -0.1818 -0.1553
 1065OCT     C2 2130   3.716   0.997   2.337 -0.3156 -0.0476  0.0527
 1066OCT     C1 2131   2.112   4.046   0.528 -0.0286  0.0954 -0.0541
 1066OCT     C2 2132   2.076   4.456   0.191  0.1525 -0.3820 -0.0890
 1067OCT     C1 2133   2.198   2.880   2.299 -0.0610  0.2404 -0.2045
 1067OCT     C2 2134   1.775   2.777   2.372  0.1787 -0.1910  0.2000
 1068OCT     C1 2135   0.393   2.424   0.987 -0.2302  0.1642  0.2752
 1068OCT     C2 2136   0.323   2.075   0.697  0.5016 -0.1011  0.0339
 1069OCT     C1 2137   3.494   3.713   5.337  0.2535  0.0916 -0.0246
 1069OCT     C2 2138   3.887   3.477   5.282  0.1268  0.1642 -0.1960
 1070OCT     C1 2139   6.776   1.744   4.596  0.0125 -0.2424  0.2613
 1070OCT     C2 2140   7.023   1.580   4.884  0.1124  0.1852 -0.1688
 1071OCT     C1 2141   1.637   3.841   2.606 -0.1609 -0.2155 -0.3288
 1071OCT     C2 2142   1.682   3.402   2.900 -0.3579 -0.0207  0.1685
 1072OCT     C1 2143   5.491   3.821   4.077  0.0859  0.2421 -0.1913
 1072OCT     C2 2144   5.528   3.764   3.618 -0.1018  0.0769  0.2123
 1073OCT     C1 2145   3.630   5.090   4.562 -0.2329 -0.3640  0.1302
 1073OCT     C2 2146   3.948   5.298   4.901 -0.1796  0.0377 -0.3443
 1074OCT     C1 2147   6.408   1.466   3.928 -0.2721  0.1923 -0.0591
 1074OCT     C2 2148   6.127   1.354   3.665  0.0697  0.0431  0.0512
 1075OCT     C1 2149   2.338   0.667   0.374  0.0172  0.5603 -0.3220
 1075OCT     C2 2150   2.338   1.094   0.453 -0.0122 -0.0464  0.3878
 1076OCT     C1 2151   0.743   0.751   3.601  0.1444  0.2492 -0.0078
 1076OCT     C2 2152   1.222   0.979   3.623 -0.0103  0.0592 -0.1027
 1077OCT     C1 2153   4.236   2.723   4.276  0.2860  0.1994  0.3173
 1077OCT     C2 2154   3.950   2.945   3.992  0.0858 -0.0014 -0.1649
 1078OCT     C1 2155   0.942   3.397   3.795 -0.0644  0.0328 -0.0600
 1078OCT     C2 2156   0.628   3.239   3.508 -0.0836  0.4235  0.1206
 1079OCT     C1 2157   0.059   0.846   5.666 -0.3170 -0.1575 -0.0824
 1079OCT     C2 2158  -0.040   1.256   5.735 -0.0745  0.0900  0.1369
 1080OCT     C1 2159   3.676   4.433   2.951 -0.1304 -0.0929 -0.0835
 1080OCT     C2 2160   3.868   4.062   2.986 -0.0340  0.0380 -0.2099
 1081OCT     C1 2161   4.335   0.841   1.128  0.2876  0.3944 -0.0153
 1081OCT     C2 2162   4.657   1.012   1.471  0.4303 -0.2739 -0.3740
 1082OCT     C1 2163   3.362   5.795   3.464 -0.1541 -0.2426 -0.1161
 1082OCT     C2 2164   3.676   5.734   3.182  0.0860  0.1031  0.0900
 1083OCT     C1 2165   0.058   5.597   0.715  0.0617  0.0291  0.0571
 1083OCT     C2 2166   0.390   5.538   0.469  0.1471 -0.2265  0.1734
 1084OCT     C1 2167   2.239   2.439   3.806  0.0298  0.0592 -0.3037
 1084OCT     C2 2168   2.272   2.120   4.092  0.4005  0.0461  0.1125
 1085OCT     C1 2169   6.650   2.554   1.612  0.0838  0.0979  0.1479
 1085OCT     C2 2170   6.699   2.102   1.562  0.0321 -0.4253  0.0110
 1086OCT     C1 2171   3.482   0.256   6.157  0.0005  0.2334 -0.0668
 1086OCT     C2 2172   3.695   0.243   5.782 -0.0595  0.1585  0.1899
 1087OCT     C1 2173   3.950   6.254   4.808 -0.0978  0.0076  0.2134
 1087OCT     C2 2174   4.340   6.466   4.746 -0.2360 -0.0514  0.1028
 1088OCT     C1 2175   1.728   2.392   1.448 -0.1325  0.1704  0.0704
 1088OCT     C2 2176   2.134   2.255   1.584  0.1400  0.0034 -0.0487
 1089OCT     C1 2177   2.290   3.749   0.887 -0.4665  0.1609  0.0512
 1089OCT     C2 2178   2.448   4.098   0.966 -0.1850 -0.1854 -0.0917
 1090OCT     C1 2179   5.476   1.888   1.597 -0.1322  0.3600 -0.2127
 1090OCT     C2 2180   5.246   1.625   1.785  0.1469  0.2880  0.2923
 1091OCT     C1 2181   4.248   1.415   3.957  0.2248  0.1408 -0.1962
 1091OCT     C2 2182   3.897   1.582   4.202  0.1094 -0.1673 -0.0603
 1092OCT     C1 2183   5.244   3.776   1.732  0.2165  0.2701 -0.1537
 1092OCT     C2 2184   5.282   4.135   1.977 -0.1019  0.1376  0.2422
 1093OCT     C1 2185   0.776   0.219   3.811  0.1385 -0.1904  0.3805
 1093OCT     C2 2186   0.342   0.161   4.032  0.0965 -0.0054 -0.2254
 1094OCT     C1 2187   4.462   1.102   4.391 -0.1863 -0.2387 -0.0375
 1094OCT     C2 2188   4.713   1.183   4.064  0.0415 -0.1983 -0.3142
 1095OCT     C1 2189   0.493   4.753   4.182 -0.2233 -0.1402 -0.2683
 1095OCT     C2 2190   0.361   4.364   4.337 -0.1649 -0.1610 -0.0712
 1096OCT     C1 2191   6.348   2.644   5.244 -0.0190 -0.0652  0.2816
 1096OCT     C2 2192   6.040   2.854   5.546  0.3671 -0.2006 -0.3035
 1097OCT     C1 2193   3.319   5.190   6.017  0.0160 -0.2150  0.2601
 1097OCT     C2 2194   2.889   5.403   5.848 -0.2633  0.0632  0.0086
 1098OCT     C1 2195   3.703   2.658   2.772 -0.0769 -0.1168 -0.1274
 1098OCT     C2 2196   3.761   2.194   2.717 -0.1737  0.0375  0.0681
 1099OCT     C1 2197   2.991   0.173   0.665  0.0552  0.3553  0.1872
 1099OCT     C2 2198   3.226   0.346   0.324 -0.1386 -0.0171  0.0901
 1100OCT     C1 2199   2.073   2.079   6.027  0.0805 -0.1142  0.2101
 1100OCT     C2 2200   2.366   2.335   5.779  0.0803  0.0244 -0.1525
 1101OCT     C1 2201   1.105   3.956   1.592 -0.0548 -0.3340  0.1253
 1101OCT     C2 2202   0.912   3.463   1.553  0.1769 -0.0401 -0.3180
 1102OCT     C1 2203   3.986   5.690   4.576 -0.1912  0.1709 -0.2301
 1102OCT     C2 2204   4.161   5.321   4.472  0.1859 -0.3202 -0.0483
 1103OCT     C1 2205   3.546   1.553   5.871 -0.1660  0.2334  0.0290
 1103OCT     C2 2206   3.718   1.556   5.463  0.2475 -0.1871  0.2042
 1104OCT     C1 2207   2.362   2.984   4.261  0.0041 -0.0806 -0.2454
 1104OCT     C2 2208   2.159   2.970   4.697  0.0730  0.3175 -0.2455
 1105OCT     C1 2209   1.364   4.999   5.859 -0.0517  0.0435 -0.2488
 1105OCT     C2 2210   1.181   5.400   5.843 -0.0283  0.0010 -0.0131
 1106OCT     C1 2211   5.738   3.570   6.251 -0.0848 -0.0522 -0.0412
 1106OCT     C2 2212   5.692   3.987   5.963 -0.3507 -0.2955  0.1741
 1107OCT     C1 2213   6.837   5.576   5.353 -0.2876  0.0901 -0.1997
 1107OCT     C2 2214   6.728   5.674   4.951 -0.0383 -0.1534  0.2177
 1108OCT     C1 2215   5.629   4.431   6.266  0.1783 -0.0743  0.0739
 1108OCT     C2 2216   5.339   4.284   6.296  0.1274  0.1109 -0.4060
 1109OCT     C1 2217   0.188   0.649   5.209  0.2807  0.0958  0.0992
 1109OCT     C2 2218   0.301   0.813   4.821  0.1304 -0.3774 -0.1202
 1110OCT     C1 2219   0.526   1.717   4.600 -0.1840 -0.0235  0.0428
 1110OCT     C2 2220   0.599   1.981   4.166  0.2261 -0.0827  0.3220
 1111OCT     C1 2221   0.248   0.105   0.089 -0.1177  0.3232  0.0667
 1111OCT     C2 2222   0.102   0.073  -0.320 -0.1531 -0.3683 -0.0440
 1112OCT     C1 2223   5.924   5.045   4.764 -0.0117  0.0083 -0.1368
 1112OCT     C2 2224   6.275   4.810   5.018 -0.3404  0.0979  0.0199
 1113OCT     C1 2225   0.318   3.987   0.001  0.0757  0.0407  0.3074
 1113OCT     C2 2226  -0.082   3.936  -0.237  0.4303 -0.0363 -0.0206
 1114OCT     C1 2227   4.859   5.930   5.031  0.0258 -0.0343  0.0585
 1114OCT     C2 2228   4.714   6.168   4.751 -0.1298  0.0228 -0.0526
 1115OCT     C1 2229   4.280   1.300   0.996 -0.2581 -0.0634 -0.1203
 1115OCT     C2 2230   4.591   1.080   0.741  0.0993 -0.0355 -0.2935
 1116OCT     C1 2231   4.649   4.578   2.867  0.0830  0.0453  0.1606
 1116OCT     C2 2232   4.988   4.225   2.877 -0.0980 -0.2274 -0.2810
 1117OCT     C1 2233   3.967   1.204   1.925  0.0701  0.0652  0.3116
 1117OCT     C2 2234   4.393   1.215   1.908  0.1096  0.1612  0.1620
 1118OCT     C1 2235   5.023   1.767   2.841 -0.0853  0.2951 -0.0962
 1118OCT     C2 2236   5.314   1.864   2.557 -0.0929 -0.1199 -0.0951
 1119OCT     C1 2237   2.643   6.230   2.409 -0.2427 -0.1306  0.1737
 1119OCT     C2 2238   2.221   6.279   2.400  0.0714 -0.0296 -0.1366
 1120OCT     C1 2239   6.444   5.955   1.106 -0.0185 -0.0377  0.0339
 1120OCT     C2 2240   6.665   5.743   1.418 -0.2869  0.1417 -0.0814
 1121OCT     C1 2241   6.655   4.276   4.378 -0.2132 -0.0756  0.0050
 1121OCT     C2 2242   6.636   3.799   4.204 -0.3035  0.0542  0.1710
 1122OCT     C1 2243   6.032   2.493   2.498 -0.0284 -0.0304 -0.3908
 1122OCT     C2 2244   6.437   2.671   2.494  0.2890 -0.1575  0.2022
 1123OCT     C1 2245   0.046   6.207   2.464 -0.2733 -0.0810  0.0214
 1123OCT     C2 2246  -0.111   6.167   2.862  0.0415 -0.0241  0.1105
 1124OCT     C1 2247   2.251   6.199   5.508  0.0389 -0.0461  0.2272
 1124OCT     C2 2248   1.981   5.817   5.351  0.0402  0.0979 -0.0920
 1125OCT     C1 2249   0.121   5.233   5.697  0.0316  0.0422  0.0293
 1125OCT     C2 2250   0.012   5.465   6.048 -0.0828 -0.0815 -0.0131
 1126OCT     C1 2251   3.966   0.429   4.373  0.0014  0.1600  0.0554
 1126OCT     C2 2252   3.927   0.489   3.899  0.0072 -0.1027  0.1830
 1127OCT     C1 2253   6.417   4.557   3.645  0.1285 -0.1710  0.1907
 1127OCT     C2 2254   6.490   4.135   3.790 -0.2104 -0.2918  0.1599
 1128OCT     C1 2255   1.784   5.508   5.026  0.0112 -0.0818  0.0500
 1128OCT     C2 2256   2.224   5.401   5.266  0.0987 -0.1389 -0.1220
 1129OCT     C1 2257   4.847   4.428   0.088 -0.0957  0.3972  0.0084
 1129OCT     C2 2258   5.038   4.384   0.464 -0.0291  0.4014 -0.0665
 1130OCT     C1 2259   2.875   2.277   2.513  0.1581  0.0166 -0.4224
 1130OCT     C2 2260   2.561   2.543   2.348 -0.1799 -0.2025  0.2447
 1131OCT     C1 2261   3.953   4.920   3.044  0.1646 -0.3076  0.0570
 1131OCT     C2 2262   3.947   5.339   3.229 -0.0454 -0.1342 -0.1645
 1132OCT     C1 2263   1.124   0.284   6.241  0.0835 -0.4128 -0.1573
 1132OCT     C2 2264   0.717   0.414   6.371 -0.0296 -0.0088 -0.1084
 1133OCT     C1 2265   6.331   4.192   3.290 -0.1645 -0.3235 -0.0490
 1133OCT     C2 2266   6.351   4.015   2.925  0.0412  0.0793 -0.0464
 1134OCT     C1 2267   5.428   0.426   2.355  0.2819  0.2884  0.0079
 1134OCT     C2 2268   5.567   0.051   2.257  0.0806 -0.0760 -0.0131
 1135OCT     C1 2269   0.479   2.599   6.167 -0.0380 -0.2676 -0.5419
 1135OCT     C2 2270   0.072   2.798   5.973 -0.1782  0.0116 -0.4748
 1136OCT     C1 2271   6.407   2.107   2.456  0.2287 -0.0196  0.2511
 1136OCT     C2 2272   6.409   2.323   2.872  0.1136  0.0040  0.2039
 1137OCT     C1 2273   1.050   1.981   3.309  0.0740 -0.0593  0.1827
 1137OCT     C2 2274   0.973   2.422   3.363  0.2589  0.1971 -0.0235
 1138OCT     C1 2275   1.373   4.607   3.263 -0.0538  0.0237 -0.0431
 1138OCT     C2 2276   1.363   4.755   3.622  0.0719 -0.0471  0.2191
 1139OCT     C1 2277   0.241   4.491   1.736 -0.0104 -0.1405 -0.0553
 1139OCT     C2 2278   0.529   4.759   1.925 -0.3774  0.1005  0.0152
 1140OCT     C1 2279   5.844   4.647   0.703  0.0805 -0.0668 -0.1390
 1140OCT     C2 2280   5.521   4.369   0.904 -0.0006 -0.1141  0.2912
 1141OCT     C1 2281   5.640   0.709   1.981 -0.0041  0.0094 -0.0286
 1141OCT     C2 2282   5.217   0.818   2.106  0.0665  0.0434 -0.0718
 1142OCT     C1 2283   2.050   0.474   2.363 -0.1251  0.0263  0.2699
 1142OCT     C2 2284   2.431   0.427   2.152  0.1272  0.1348  0.1669
 1143OCT     C1 2285   4.412   0.573   0.631  0.1568  0.0460 -0.1045
 1143OCT     C2 2286   4.311   0.362   1.050  0.2086  0.0926  0.1996
 1144OCT     C1 2287   6.597   3.919   4.805  0.0841  0.2350 -0.1500
 1144OCT     C2 2288   6.696   3.520   4.650  0.1354  0.0424 -0.1463
 1145OCT     C1 2289   3.894   0.312   1.926 -0.3133 -0.1634 -0.1403
 1145OCT     C2 2290   4.091  -0.017   1.675  0.1860 -0.0406  0.2243
 1146OCT     C1 2291   6.470   0.046   0.717  0.0874 -0.1389 -0.2489
 1146OCT     C2 2292   6.308   0.459   0.889  0.4289  0.0323 -0.2453
 1147OCT     C1 2293   5.800   2.013   4.884 -0.1536 -0.0683  0.0642
 1147OCT     C2 2294   6.202   2.183   4.990 -0.0178 -0.0440 -0.2024
 1148OCT     C1 2295   4.604   5.542   5.788 -0.0509  0.2551 -0.0640
 1148OCT     C2 2296   4.484   5.245   6.024  0.1824  0.3921 -0.1042
 1149OCT     C1 2297   1.178   3.043   2.312 -0.3108  0.1278 -0.1320
 1149OCT     C2 2298   1.219   2.760   2.569  0.1694 -0.0072  0.1569
 1150OCT     C1 2299   0.587   5.137   1.473  0.2270  0.4155 -0.0619
 1150OCT     C2 2300   0.476   4.778   1.281  0.1092 -0.0991  0.1934
 1151OCT     C1 2301   5.602   3.354   1.215  0.2153 -0.3714  0.0548
 1151OCT     C2 2302   5.465   3.717   1.239 -0.2058  0.0418  0.1295
 1152OCT     C1 2303   0.386   2.209   0.161 -0.1040 -0.0268 -0.1810
 1152OCT     C2 2304   0.586   2.553   0.425  0.0741 -0.0427  0.3552
 1153OCT     C1 2305   6.577   0.230   5.210 -0.2007  0.2369 -0.0947
 1153OCT     C2 2306   7.088   0.166   5.269 -0.0592  0.3837 -0.1768
 1154OCT     C1 2307   2.878   3.254   0.372 -0.0898  0.1023 -0.0144
 1154OCT     C2 2308   3.097   3.151   0.728  0.3205  0.3220 -0.4588
 1155OCT     C1 2309   0.086   2.313   2.060  0.2153 -0.2521 -0.2777
 1155OCT     C2 2310   0.361   2.653   2.320  0.0495 -0.1874 -0.0379
 1156OCT     C1 2311   2.684   0.515   1.410 -0.0084 -0.1824 -0.2789
 1156OCT     C2 2312   2.831   0.541   1.827  0.1527  0.1585 -0.0940
 1157OCT     C1 2313   1.553   0.710   2.362 -0.0438 -0.0555 -0.2200
 1157OCT     C2 2314   1.436   0.808   2.733 -0.1515 -0.0009 -0.1530
 1158OCT     C1 2315   2.296   0.903   2.477  0.0515  0.1622  0.0011
 1158OCT     C2 2316   2.511   1.038   2.033 -0.3445  0.3231 -0.0066
 1159OCT     C1 2317   1.180   0.220   3.522  0.0705 -0.0507  0.1159
 1159OCT     C2 2318   1.218   0.513   3.901 -0.0840  0.0853  0.1862
 1160OCT     C1 2319   2.922   1.219   3.333 -0.0694  0.0137  0.2577
 1160OCT     C2 2320   2.561   1.135   3.478 -0.0597 -0.3380 -0.0956
 1161OCT     C1 2321   1.309   0.831   4.241  0.0521 -0.2221  0.0095
 1161OCT     C2 2322   1.121   1.038   4.554 -0.3278  0.3279  0.2127
 1162OCT     C1 2323   5.984   1.649   5.737  0.0312  0.0223 -0.5861
 1162OCT     C2 2324   6.325   1.394   5.890 -0.0315  0.2585  0.0592
 1163OCT     C1 2325   1.102   3.426   1.066  0.0329 -0.1113 -0.0173
 1163OCT     C2 2326   1.368   3.583   0.806  0.3181 -0.2109 -0.0477
 1164OCT     C1 2327   1.478   0.757   0.901  0.1653  0.0634 -0.2274
 1164OCT     C2 2328   1.652   0.354   1.004  0.0072 -0.1806 -0.2253
 1165OCT     C1 2329   6.172   1.769   1.015 -0.0844 -0.1064 -0.1198
 1165OCT     C2 2330   5.713   1.695   1.116 -0.4362 -0.0452 -0.3050
 1166OCT     C1 2331   1.243   2.705   4.418  0.1254  0.0573  0.0792
 1166OCT     C2 2332   1.572   2.386   4.452  0.1556 -0.0581 -0.1611
 1167OCT     C1 2333   1.745   5.020   3.899 -0.2814 -0.3776 -0.0537
 1167OCT     C2 2334   1.973   4.694   3.908 -0.0654  0.0947  0.1860
 1168OCT     C1 2335   3.886   2.888   0.563 -0.0944  0.0433 -0.1287
 1168OCT     C2 2336   3.671   3.095   0.484 -0.1931  0.0636  0.0406
 1169OCT     C1 2337   4.084   0.413   3.061  0.1482  0.2799 -0.0951
 1169OCT     C2 2338   3.889   0.769   3.165  0.0973 -0.0474 -0.7022
 1170OCT     C1 2339   1.143   3.218   2.832  0.1129  0.2104 -0.1760
 1170OCT     C2 2340   1.330   3.278   3.295 -0.0842 -0.0043 -0.1744
 1171OCT     C1 2341   3.279   3.512   2.867  0.1723  0.1028  0.0879
 1171OCT     C2 2342   3.195   3.084   3.005 -0.0685  0.1940  0.1318
 1172OCT     C1 2343   1.773   5.527   3.719  0.1257 -0.1182  0.1211
 1172OCT     C2 2344   2.079   5.892   3.674 -0.1549  0.0794  0.2325
 1173OCT     C1 2345   0.525   5.492   5.909  0.1593  0.0516  0.2464
 1173OCT     C2 2346   0.413   5.567   6.340 -0.2813 -0.1483  0.0291
 1174OCT     C1 2347   3.556   5.982   2.670 -0.0793  0.2831  0.1426
 1174OCT     C2 2348   3.228   6.014   2.982  0.0695  0.1820 -0.0231
 1175OCT     C1 2349   5.759   5.339   2.184 -0.4838 -0.0744 -0.2089
 1175OCT     C2 2350   5.732   5.684   2.283  0.1329  0.0172  0.2996
 1176OCT     C1 2351   5.900   1.537   3.033 -0.1156 -0.0521 -0.0116
 1176OCT     C2 2352   6.197   1.913   2.940  0.1083  0.1043 -0.1221
 1177OCT     C1 2353   3.363   2.841   1.720  0.1809  0.1415  0.1996
 1177OCT     C2 2354   3.724   2.710   1.461  0.0301 -0.2512 -0.0682
 1178OCT     C1 2355   3.709   4.228   1.802  0.2023  0.0960 -0.2502
 1178OCT     C2 2356   3.758   3.942   2.165 -0.0172  0.2155  0.0235
 1179OCT     C1 2357   0.329   2.684   2.844 -0.3500  0.1756 -0.1082
 1179OCT     C2 2358   0.771   2.712   2.732  0.1197  0.1409  0.2362
 1180OCT     C1 2359   1.635   3.590   5.875 -0.0191  0.1604  0.0041
 1180OCT     C2 2360   1.612   3.336   6.238  0.1864 -0.0978 -0.0422
 1181OCT     C1 2361   5.729   6.174   4.833 -0.2255 -0.0990  0.0287
 1181OCT     C2 2362   6.028   6.221   4.463  0.4310 -0.1089 -0.1911
 1182OCT     C1 2363   5.091   4.296   4.233  0.0428 -0.1027  0.3788
 1182OCT     C2 2364   5.339   4.615   4.136  0.1222  0.2141  0.0744
 1183OCT     C1 2365   6.539   2.590   3.388  0.2151 -0.1788 -0.2370
 1183OCT     C2 2366   6.767   2.628   3.083 -0.2267 -0.2782  0.1351
   6.85653   6.35846   6.35846
