GROup of MAchos and Cynical Suckers
   23
    1ACT     C1    1  -0.438  -0.002   0.000
    1ACT    H1X    2  -0.516   0.077  -0.000
    1ACT    H1Y    3  -0.451  -0.065  -0.090
    1ACT    H1Z    4  -0.451  -0.065   0.090
    1ACT     C2    5  -0.299   0.063  -0.000
    1ACT    H2A    6  -0.289   0.128   0.090
    1ACT    H2B    7  -0.289   0.128  -0.090
    1ACT     C3    8  -0.183  -0.038   0.000
    1ACT     HX    9  -0.191  -0.102  -0.091
    1ACT     HY   10  -0.191  -0.102   0.091
    1ACT    O31   11  -0.058   0.032  -0.000
    1ACT    C31   12   0.050  -0.047  -0.000
    1ACT    O32   13   0.048  -0.169  -0.000
    1ACT    C32   14   0.176   0.040  -0.000
    1ACT    H2X   15   0.175   0.105   0.090
    1ACT    H2Y   16   0.175   0.105  -0.090
    1ACT    C33   17   0.301  -0.048  -0.000
    1ACT    H3X   18   0.300  -0.114  -0.090
    1ACT    H3Y   19   0.300  -0.114   0.090
    1ACT    C34   20   0.432   0.032   0.000
    1ACT    H4X   21   0.438   0.096   0.090
    1ACT    H4Y   22   0.438   0.096  -0.090
    1ACT    H4Z   23   0.520  -0.038   0.000
   0.00000   0.00000   0.00000
