;;
;; Generated by CHARMM-GUI (http://www.charmm-gui.org) v1.7
;;
;; psf2itp_mol.py
;;
;; Correspondance:
;; jul316@lehigh.edu or wonpil@lehigh.edu
;;
;; GROMACS topology file for ACTF
;;


[ moleculetype ]
; name	nrexcl
ACTF	     3

[ atoms ]
; nr	type	resnr	residu	atom	cgnr	charge	mass
     1      CG331      1     ACTF     C1      1     -0.270    12.0110   ; qtot -0.270
     2       HGA3      1     ACTF     H1      2      0.090     1.0080   ; qtot -0.180
     3       HGA3      1     ACTF     H2      3      0.090     1.0080   ; qtot -0.090
     4       HGA3      1     ACTF     H3      4      0.090     1.0080   ; qtot -0.000
     5      CG321      1     ACTF     C2      5     -0.188    12.0110   ; qtot -0.188
     6       HGA2      1     ACTF     H4      6      0.090     1.0080   ; qtot -0.098
     7       HGA2      1     ACTF     H5      7      0.090     1.0080   ; qtot -0.008
     8      CG321      1     ACTF     C3      8      0.081    12.0110   ; qtot  0.073
     9       HGA2      1     ACTF     H6      9      0.090     1.0080   ; qtot  0.163
    10       HGA2      1     ACTF     H7     10      0.090     1.0080   ; qtot  0.253
    11      OG302      1     ACTF     O1     11     -0.480    15.9994   ; qtot -0.227
    12      CG2O2      1     ACTF     C4     12      0.923    12.0110   ; qtot  0.696
    13      OG2D1      1     ACTF     O2     13     -0.632    15.9994   ; qtot  0.064
    14      CG321      1     ACTF     C5     14     -0.248    12.0110   ; qtot -0.184
    15       HGA2      1     ACTF     H8     15      0.090     1.0080   ; qtot -0.094
    16       HGA2      1     ACTF     H9     16      0.090     1.0080   ; qtot -0.004
    17      CG321      1     ACTF     C6     17     -0.176    12.0110   ; qtot -0.180
    18       HGA2      1     ACTF    H10     18      0.090     1.0080   ; qtot -0.090
    19       HGA2      1     ACTF    H11     19      0.090     1.0080   ; qtot  0.000
    20      CG331      1     ACTF     C7     20     -0.270    12.0110   ; qtot -0.270
    21       HGA3      1     ACTF    H12     21      0.090     1.0080   ; qtot -0.180
    22       HGA3      1     ACTF    H13     22      0.090     1.0080   ; qtot -0.090
    23       HGA3      1     ACTF    H14     23      0.090     1.0080   ; qtot  0.000

[ bonds ]
; ai	aj	funct	b0	Kb
    1     2     1
    1     3     1
    1     4     1
    1     5     1
    5     6     1
    5     7     1
    5     8     1
    8     9     1
    8    10     1
    8    11     1
   11    12     1
   12    13     1
   12    14     1
   14    15     1
   14    16     1
   14    17     1
   17    18     1
   17    19     1
   17    20     1
   20    21     1
   20    22     1
   20    23     1

[ pairs ]
; ai	aj	funct	c6	c12
    1     9     1 
    1    10     1 
    1    11     1 
    2     6     1 
    2     7     1 
    2     8     1 
    3     6     1 
    3     7     1 
    3     8     1 
    4     6     1 
    4     7     1 
    4     8     1 
    5    12     1 
    6     9     1 
    6    10     1 
    6    11     1 
    7     9     1 
    7    10     1 
    7    11     1 
    8    13     1 
    8    14     1 
    9    12     1 
   10    12     1 
   11    15     1 
   11    16     1 
   11    17     1 
   12    18     1 
   12    19     1 
   12    20     1 
   13    15     1 
   13    16     1 
   13    17     1 
   14    21     1 
   14    22     1 
   14    23     1 
   15    18     1 
   15    19     1 
   15    20     1 
   16    18     1 
   16    19     1 
   16    20     1 
   18    21     1 
   18    22     1 
   18    23     1 
   19    21     1 
   19    22     1 
   19    23     1 

[ angles ] 
; ai	aj	ak	funct	th0	cth	S0	Kub
    2     1     3     5
    2     1     4     5
    2     1     5     5
    3     1     4     5
    3     1     5     5
    4     1     5     5
    1     5     6     5
    1     5     7     5
    1     5     8     5
    6     5     7     5
    6     5     8     5
    7     5     8     5
    5     8     9     5
    5     8    10     5
    5     8    11     5
    9     8    10     5
    9     8    11     5
   10     8    11     5
    8    11    12     5
   11    12    13     5
   11    12    14     5
   13    12    14     5
   12    14    15     5
   12    14    16     5
   12    14    17     5
   15    14    16     5
   15    14    17     5
   16    14    17     5
   14    17    18     5
   14    17    19     5
   14    17    20     5
   18    17    19     5
   18    17    20     5
   19    17    20     5
   17    20    21     5
   17    20    22     5
   17    20    23     5
   21    20    22     5
   21    20    23     5
   22    20    23     5

[ dihedrals ]
; ai	aj	ak	al	funct	phi0	cp	mult
    2     1     5     6     9
    2     1     5     7     9
    2     1     5     8     9
    3     1     5     6     9
    3     1     5     7     9
    3     1     5     8     9
    4     1     5     6     9
    4     1     5     7     9
    4     1     5     8     9
    1     5     8     9     9
    1     5     8    10     9
    1     5     8    11     9
    6     5     8     9     9
    6     5     8    10     9
    6     5     8    11     9
    7     5     8     9     9
    7     5     8    10     9
    7     5     8    11     9
    5     8    11    12     9
    9     8    11    12     9
   10     8    11    12     9
    8    11    12    13     9
    8    11    12    14     9
   11    12    14    15     9
   11    12    14    16     9
   11    12    14    17     9
   13    12    14    15     9
   13    12    14    16     9
   13    12    14    17     9
   12    14    17    18     9
   12    14    17    19     9
   12    14    17    20     9
   15    14    17    18     9
   15    14    17    19     9
   15    14    17    20     9
   16    14    17    18     9
   16    14    17    19     9
   16    14    17    20     9
   14    17    20    21     9
   14    17    20    22     9
   14    17    20    23     9
   18    17    20    21     9
   18    17    20    22     9
   18    17    20    23     9
   19    17    20    21     9
   19    17    20    22     9
   19    17    20    23     9

[ dihedrals ]
; ai	aj	ak	al	funct	q0	cq
   12    14    13    11     2
