Great Red Owns Many ACres of Sand 
   29
    1TAG    C12    1  -0.490  -0.022  -0.012
    1TAG   H12A    2  -0.589   0.027  -0.003
    1TAG   H12B    3  -0.483  -0.071  -0.112
    1TAG   H12C    4  -0.482  -0.100   0.067
    1TAG    C11    5  -0.379   0.081   0.004
    1TAG    O12    6  -0.397   0.200   0.023
    1TAG    O11    7  -0.261   0.020  -0.007
    1TAG     C1    8  -0.148   0.107   0.007
    1TAG    H1A    9  -0.150   0.159   0.106
    1TAG    H1B   10  -0.149   0.184  -0.074
    1TAG     C2   11  -0.017   0.026  -0.005
    1TAG    H2A   12  -0.020  -0.024  -0.104
    1TAG    O21   13  -0.013  -0.067   0.105
    1TAG    C21   14   0.041  -0.190   0.099
    1TAG    O22   15   0.059  -0.259   0.198
    1TAG    C22   16   0.076  -0.239  -0.041
    1TAG   H22A   17   0.114  -0.343  -0.034
    1TAG   H22B   18  -0.015  -0.240  -0.105
    1TAG   H22C   19   0.154  -0.177  -0.088
    1TAG     C3   20   0.106   0.120   0.000
    1TAG    H3A   21   0.100   0.191  -0.085
    1TAG    H3B   22   0.102   0.178   0.095
    1TAG    O31   23   0.228   0.045  -0.006
    1TAG    C31   24   0.339   0.118  -0.000
    1TAG    O32   25   0.343   0.240   0.010
    1TAG    C32   26   0.460   0.027  -0.007
    1TAG   H32A   27   0.553   0.087  -0.002
    1TAG   H32B   28   0.459  -0.045   0.078
    1TAG   H32C   29   0.459  -0.030  -0.103
   0.00000   0.00000   0.00000
