;;
;; Generated by CHARMM-GUI (http://www.charmm-gui.org) v1.7
;;
;; psf2itp_mol.py
;;
;; Correspondance:
;; jul316@lehigh.edu or wonpil@lehigh.edu
;;
;; GROMACS topology file for TAG
;;


[ moleculetype ]
; name	nrexcl
TAG	     3

[ atoms ]
; nr	type	resnr	residu	atom	cgnr	charge	mass
     1       CTL3      1      TAG    C12      1     -0.310    12.0110   ; qtot -0.310
     2       HAL3      1      TAG   H12A      2      0.090     1.0080   ; qtot -0.220
     3       HAL3      1      TAG   H12B      3      0.090     1.0080   ; qtot -0.130
     4       HAL3      1      TAG   H12C      4      0.090     1.0080   ; qtot -0.040
     5         CL      1      TAG    C11      5      0.900    12.0110   ; qtot  0.860
     6        OBL      1      TAG    O12      6     -0.630    15.9994   ; qtot  0.230
     7        OSL      1      TAG    O11      7     -0.490    15.9994   ; qtot -0.260
     8       CTL2      1      TAG     C1      8      0.080    12.0110   ; qtot -0.180
     9       HAL2      1      TAG    H1A      9      0.090     1.0080   ; qtot -0.090
    10       HAL2      1      TAG    H1B     10      0.090     1.0080   ; qtot  0.000
    11       CTL1      1      TAG     C2     11      0.170    12.0110   ; qtot  0.170
    12       HAL1      1      TAG    H2A     12      0.090     1.0080   ; qtot  0.260
    13        OSL      1      TAG    O21     13     -0.490    15.9994   ; qtot -0.230
    14         CL      1      TAG    C21     14      0.900    12.0110   ; qtot  0.670
    15        OBL      1      TAG    O22     15     -0.630    15.9994   ; qtot  0.040
    16       CTL3      1      TAG    C22     16     -0.310    12.0110   ; qtot -0.270
    17       HAL3      1      TAG   H22A     17      0.090     1.0080   ; qtot -0.180
    18       HAL3      1      TAG   H22B     18      0.090     1.0080   ; qtot -0.090
    19       HAL3      1      TAG   H22C     19      0.090     1.0080   ; qtot  0.000
    20       CTL2      1      TAG     C3     20      0.080    12.0110   ; qtot  0.080
    21       HAL2      1      TAG    H3A     21      0.090     1.0080   ; qtot  0.170
    22       HAL2      1      TAG    H3B     22      0.090     1.0080   ; qtot  0.260
    23        OSL      1      TAG    O31     23     -0.490    15.9994   ; qtot -0.230
    24         CL      1      TAG    C31     24      0.900    12.0110   ; qtot  0.670
    25        OBL      1      TAG    O32     25     -0.630    15.9994   ; qtot  0.040
    26       CTL3      1      TAG    C32     26     -0.310    12.0110   ; qtot -0.270
    27       HAL3      1      TAG   H32A     27      0.090     1.0080   ; qtot -0.180
    28       HAL3      1      TAG   H32B     28      0.090     1.0080   ; qtot -0.090
    29       HAL3      1      TAG   H32C     29      0.090     1.0080   ; qtot  0.000

[ bonds ]
; ai	aj	funct	b0	Kb
    1     2     1
    1     3     1
    1     4     1
    1     5     1
    5     6     1
    5     7     1
    7     8     1
    8     9     1
    8    10     1
    8    11     1
   11    12     1
   11    13     1
   11    20     1
   13    14     1
   14    15     1
   14    16     1
   16    17     1
   16    18     1
   16    19     1
   20    21     1
   20    22     1
   20    23     1
   23    24     1
   24    25     1
   24    26     1
   26    27     1
   26    28     1
   26    29     1

[ pairs ]
; ai	aj	funct	c6	c12
    1     8     1 
    2     6     1 
    2     7     1 
    3     6     1 
    3     7     1 
    4     6     1 
    4     7     1 
    5     9     1 
    5    10     1 
    5    11     1 
    6     8     1 
    7    12     1 
    7    13     1 
    7    20     1 
    8    14     1 
    8    21     1 
    8    22     1 
    8    23     1 
    9    12     1 
    9    13     1 
    9    20     1 
   10    12     1 
   10    13     1 
   10    20     1 
   11    15     1 
   11    16     1 
   11    24     1 
   12    14     1 
   12    21     1 
   12    22     1 
   12    23     1 
   13    17     1 
   13    18     1 
   13    19     1 
   13    21     1 
   13    22     1 
   13    23     1 
   14    20     1 
   15    17     1 
   15    18     1 
   15    19     1 
   20    25     1 
   20    26     1 
   21    24     1 
   22    24     1 
   23    27     1 
   23    28     1 
   23    29     1 
   25    27     1 
   25    28     1 
   25    29     1 

[ angles ] 
; ai	aj	ak	funct	th0	cth	S0	Kub
    2     1     3     5
    2     1     4     5
    2     1     5     5
    3     1     4     5
    3     1     5     5
    4     1     5     5
    1     5     6     5
    1     5     7     5
    6     5     7     5
    5     7     8     5
    7     8     9     5
    7     8    10     5
    7     8    11     5
    9     8    10     5
    9     8    11     5
   10     8    11     5
    8    11    12     5
    8    11    13     5
    8    11    20     5
   12    11    13     5
   12    11    20     5
   13    11    20     5
   11    13    14     5
   13    14    15     5
   13    14    16     5
   15    14    16     5
   14    16    17     5
   14    16    18     5
   14    16    19     5
   17    16    18     5
   17    16    19     5
   18    16    19     5
   11    20    21     5
   11    20    22     5
   11    20    23     5
   21    20    22     5
   21    20    23     5
   22    20    23     5
   20    23    24     5
   23    24    25     5
   23    24    26     5
   25    24    26     5
   24    26    27     5
   24    26    28     5
   24    26    29     5
   27    26    28     5
   27    26    29     5
   28    26    29     5

[ dihedrals ]
; ai	aj	ak	al	funct	phi0	cp	mult
    2     1     5     6     9
    2     1     5     7     9
    3     1     5     6     9
    3     1     5     7     9
    4     1     5     6     9
    4     1     5     7     9
    1     5     7     8     9
    6     5     7     8     9
    5     7     8     9     9
    5     7     8    10     9
    5     7     8    11     9
    7     8    11    12     9
    7     8    11    13     9
    7     8    11    20     9
    9     8    11    12     9
    9     8    11    13     9
    9     8    11    20     9
   10     8    11    12     9
   10     8    11    13     9
   10     8    11    20     9
    8    11    13    14     9
   12    11    13    14     9
    8    11    20    21     9
    8    11    20    22     9
    8    11    20    23     9
   12    11    20    21     9
   12    11    20    22     9
   12    11    20    23     9
   13    11    20    21     9
   13    11    20    22     9
   13    11    20    23     9
   14    13    11    20     9
   11    13    14    15     9
   11    13    14    16     9
   13    14    16    17     9
   13    14    16    18     9
   13    14    16    19     9
   15    14    16    17     9
   15    14    16    18     9
   15    14    16    19     9
   11    20    23    24     9
   21    20    23    24     9
   22    20    23    24     9
   20    23    24    25     9
   20    23    24    26     9
   23    24    26    27     9
   23    24    26    28     9
   23    24    26    29     9
   25    24    26    27     9
   25    24    26    28     9
   25    24    26    29     9

[ dihedrals ]
; ai	aj	ak	al	funct	q0	cq
    5     7     1     6     2
   14    13    16    15     2
   24    23    26    25     2
