Chlorobenzene box
 1911
    1CB      Cl    1   1.722   2.465   1.464  0.0756 -0.3227 -0.1371
    1CB      R2    2   1.764   2.403   1.142 -0.0208 -0.1657 -0.1811
    1CB      R3    3   1.767   2.183   1.299  0.4735 -0.2070 -0.2352
    2CB      Cl    4   1.705   3.114   3.873 -0.0190 -0.1477  0.0796
    2CB      R2    5   1.958   3.085   4.083 -0.0872 -0.2168  0.1529
    2CB      R3    6   1.772   2.891   4.106 -0.1803 -0.1297  0.1442
    3CB      Cl    7   2.559   1.891   0.853  0.4077  0.1422 -0.2233
    3CB      R2    8   2.609   1.968   1.170 -0.2521  0.0161 -0.0744
    3CB      R3    9   2.570   2.182   1.010  0.3125  0.0941 -0.1259
    4CB      Cl   10   1.440   1.136   4.727 -0.2638  0.2456  0.1689
    4CB      R2   11   1.271   0.942   4.933  0.1525 -0.1528  0.1494
    4CB      R3   12   1.516   0.848   4.868  0.0065 -0.0802 -0.5893
    5CB      Cl   13   4.702   1.411   0.837  0.2842 -0.0393  0.1363
    5CB      R2   14   4.414   1.301   0.718  0.3867 -0.0847 -0.0755
    5CB      R3   15   4.511   1.156   0.924  0.1396  0.0763  0.1609
    6CB      Cl   16   1.726   0.853   1.089 -0.0342 -0.0492 -0.2139
    6CB      R2   17   1.408   0.797   1.019 -0.2056 -0.0673  0.5013
    6CB      R3   18   1.471   1.058   1.047  0.0540  0.0118 -0.4680
    7CB      Cl   19   2.166   0.843   2.686 -0.0368  0.0296 -0.2819
    7CB      R2   20   2.372   0.590   2.636 -0.0188  0.0224 -0.1726
    7CB      R3   21   2.112   0.531   2.594 -0.0196 -0.0280 -0.0995
    8CB      Cl   22   4.946   4.608   0.618 -0.1889  0.0560 -0.1508
    8CB      R2   23   4.842   4.921   0.630 -0.0703  0.1015 -0.2750
    8CB      R3   24   5.043   4.878   0.455  0.1441  0.0224 -0.0164
    9CB      Cl   25   0.396   0.858   1.218 -0.4485 -0.1056  0.1238
    9CB      R2   26   0.603   0.729   0.996 -0.1736  0.4290  0.0544
    9CB      R3   27   0.510   0.551   1.176 -0.3994 -0.0170 -0.4734
   10CB      Cl   28   4.397   1.328   2.023 -0.1549 -0.0726  0.0019
   10CB      R2   29   4.613   1.079   2.005  0.1459  0.1926 -0.1629
   10CB      R3   30   4.712   1.303   2.120 -0.1239  0.2359 -0.0079
   11CB      Cl   31   4.969   0.861   2.854  0.0009  0.0980  0.0498
   11CB      R2   32   4.665   0.733   2.867  0.0794 -0.0854  0.1128
   11CB      R3   33   4.781   0.767   3.108  0.1488 -0.1126  0.0835
   12CB      Cl   34   2.548   2.031   4.469 -0.0003 -0.1688 -0.0935
   12CB      R2   35   2.726   2.298   4.547 -0.1241 -0.1787  0.2392
   12CB      R3   36   2.870   2.097   4.438 -0.0878  0.1554 -0.3759
   13CB      Cl   37   3.540   3.365   2.185  0.2549 -0.3058 -0.0896
   13CB      R2   38   3.415   3.329   1.881 -0.0935  0.1358 -0.0085
   13CB      R3   39   3.599   3.526   1.902  0.2607 -0.1835 -0.0195
   14CB      Cl   40   0.797   0.273   0.409  0.0327 -0.2998  0.1894
   14CB      R2   41   0.594   0.435   0.613 -0.2028 -0.2241 -0.0993
   14CB      R3   42   0.713   0.220   0.724  0.1658  0.1721  0.3117
   15CB      Cl   43   3.413   3.514   3.293 -0.1479  0.1340  0.0168
   15CB      R2   44   3.155   3.354   3.166  0.2550 -0.0802 -0.5745
   15CB      R3   45   3.159   3.618   3.111  0.1650 -0.0769 -0.5667
   16CB      Cl   46   4.666   2.538   0.104  0.0543  0.0277 -0.2222
   16CB      R2   47   4.537   2.806   0.246  0.2108 -0.0611  0.0944
   16CB      R3   48   4.354   2.626   0.165  0.1202 -0.0404  0.2491
   17CB      Cl   49   4.568   4.680   3.298  0.2496  0.1991  0.1973
   17CB      R2   50   4.864   4.667   3.152  0.1220 -0.0740 -0.0477
   17CB      R3   51   4.657   4.609   2.988 -0.0818  0.2296  0.0912
   18CB      Cl   52   1.397   3.949   2.798 -0.2060 -0.4944 -0.0505
   18CB      R2   53   1.635   3.806   2.976 -0.0862 -0.4902 -0.2052
   18CB      R3   54   1.718   3.903   2.738 -0.1929 -0.2749 -0.1568
   19CB      Cl   55   4.788   2.059   1.118 -0.1326 -0.2676 -0.1692
   19CB      R2   56   4.943   2.136   0.837 -0.0135  0.3141  0.0419
   19CB      R3   57   4.807   2.341   0.948 -0.1025  0.0793  0.3830
   20CB      Cl   58   0.994   0.447   4.314 -0.1015 -0.0421  0.0790
   20CB      R2   59   1.074   0.138   4.230  0.3288  0.0707  0.0527
   20CB      R3   60   1.168   0.214   4.471  0.1228  0.1443  0.1116
   21CB      Cl   61   2.506   1.456   2.135 -0.2560  0.0666 -0.0486
   21CB      R2   62   2.300   1.685   2.016 -0.2679 -0.0336 -0.2238
   21CB      R3   63   2.476   1.590   1.835  0.1734  0.3078  0.0072
   22CB      Cl   64   2.156   4.875   3.022  0.1034 -0.0727 -0.1590
   22CB      R2   65   1.860   4.729   3.023 -0.0795  0.2808  0.1298
   22CB      R3   66   1.938   4.819   2.780 -0.1725  0.1194  0.0382
   23CB      Cl   67   0.296   1.826   0.652 -0.0634 -0.0700 -0.2529
   23CB      R2   68   0.156   1.534   0.590  0.1413 -0.2133 -0.0566
   23CB      R3   69   0.037   1.673   0.787  0.2953 -0.3550  0.1409
   24CB      Cl   70   3.830   0.546   1.707 -0.0162  0.0862 -0.1731
   24CB      R2   71   4.049   0.451   1.935 -0.1596  0.2949  0.0559
   24CB      R3   72   3.805   0.338   1.963 -0.1386  0.2147 -0.0792
   25CB      Cl   73   3.589   4.801   1.066 -0.1795  0.1568  0.0012
   25CB      R2   74   3.652   5.054   0.865 -0.0948  0.2307  0.1196
   25CB      R3   75   3.548   5.126   1.103 -0.0533  0.1555  0.1607
   26CB      Cl   76   0.062   4.311   2.923  0.2925  0.0719  0.0412
   26CB      R2   77   0.228   4.577   2.820  0.0522  0.2464  0.0952
   26CB      R3   78  -0.032   4.573   2.746  0.0156  0.1022  0.2268
   27CB      Cl   79   4.575   2.006   2.785  0.0202 -0.0386 -0.0263
   27CB      R2   80   4.805   2.216   2.676  0.0025 -0.0077 -0.0045
   27CB      R3   81   4.759   2.007   2.511  0.0787 -0.0384  0.0128
   28CB      Cl   82   4.025   4.932   2.009  0.1638  0.0989  0.0836
   28CB      R2   83   4.082   4.608   1.988 -0.1121  0.0293  0.3336
   28CB      R3   84   4.015   4.692   2.235  0.4467  0.3648  0.3891
   29CB      Cl   85   2.430   1.203   0.502  0.1746  0.0666 -0.0847
   29CB      R2   86   2.517   0.945   0.317 -0.2855 -0.0397 -0.1635
   29CB      R3   87   2.490   1.175   0.179 -0.2745 -0.0395 -0.1654
   30CB      Cl   88   2.223   3.229   1.994 -0.0344  0.0573  0.1105
   30CB      R2   89   2.150   3.163   2.309  0.1357  0.0343  0.1459
   30CB      R3   90   2.322   3.369   2.276 -0.1387  0.2532  0.0510
   31CB      Cl   91   3.512   0.073   2.751 -0.0165 -0.0042  0.1683
   31CB      R2   92   3.827   0.167   2.787  0.1260 -0.2249 -0.3991
   31CB      R3   93   3.791  -0.101   2.779 -0.1454 -0.2193  0.1400
   32CB      Cl   94   2.807   2.929   1.233 -0.2846  0.0426 -0.3221
   32CB      R2   95   2.750   2.606   1.197  0.1714 -0.0756 -0.0552
   32CB      R3   96   2.648   2.712   1.424  0.0444 -0.0356 -0.1301
   33CB      Cl   97   3.595   4.752   2.461  0.0720  0.0281  0.0431
   33CB      R2   98   3.697   5.047   2.354  0.0527 -0.0144 -0.0941
   33CB      R3   99   3.541   4.914   2.178  0.2909 -0.2271 -0.1501
   34CB      Cl  100   0.948   3.220   1.471 -0.0537 -0.0885 -0.2043
   34CB      R2  101   0.979   3.279   1.794  0.0899  0.1617 -0.2609
   34CB      R3  102   1.214   3.259   1.662  0.0307  0.1412 -0.3642
   35CB      Cl  103   1.246   2.051   1.315  0.2498 -0.1202  0.0420
   35CB      R2  104   1.408   2.165   1.051  0.1903 -0.1135  0.0083
   35CB      R3  105   1.284   2.356   1.196  0.0543 -0.1383 -0.0725
   36CB      Cl  106   4.084   2.488   4.072  0.2092 -0.1726  0.2434
   36CB      R2  107   3.798   2.327   4.109  0.0184  0.1951  0.4168
   36CB      R3  108   4.015   2.167   4.105 -0.2038 -0.1149  0.0094
   37CB      Cl  109   2.690   5.025   3.122 -0.1468  0.2305 -0.1386
   37CB      R2  110   2.705   5.083   3.446  0.2510 -0.1921 -0.0714
   37CB      R3  111   2.536   4.885   3.377 -0.0633  0.0976 -0.1604
   38CB      Cl  112   3.042   3.824   2.472 -0.0750 -0.4113  0.1593
   38CB      R2  113   3.304   3.716   2.303  0.1017 -0.1192  0.2406
   38CB      R3  114   3.083   3.753   2.152  0.1975 -0.0647  0.1115
   39CB      Cl  115   1.834   2.654   3.705  0.2773 -0.0638  0.1240
   39CB      R2  116   1.889   2.924   3.524 -0.2125 -0.1231 -0.1312
   39CB      R3  117   2.088   2.864   3.696 -0.0317  0.3133 -0.1742
   40CB      Cl  118   2.030   2.914   4.539  0.1469 -0.2269  0.2134
   40CB      R2  119   1.731   2.777   4.562  0.0926 -0.1091  0.2182
   40CB      R3  120   1.727   3.045   4.537  0.2070 -0.0772  0.5084
   41CB      Cl  121   3.718   2.941   2.232 -0.0005  0.0097  0.0046
   41CB      R2  122   3.765   3.025   1.917  0.1935  0.1361  0.0652
   41CB      R3  123   3.904   2.807   1.994 -0.0136 -0.0192  0.0105
   42CB      Cl  124   3.867   4.252   4.470 -0.1635  0.1927  0.0447
   42CB      R2  125   3.607   4.370   4.635 -0.1631  0.2344  0.0159
   42CB      R3  126   3.816   4.304   4.792 -0.3388 -0.1947  0.0847
   43CB      Cl  127   1.475   1.558   1.389 -0.0033  0.3282  0.1127
   43CB      R2  128   1.236   1.605   1.167  0.2348 -0.1667 -0.2685
   43CB      R3  129   1.151   1.610   1.423 -0.1338 -0.0752 -0.3864
   44CB      Cl  130   4.924   3.247   0.143  0.1488 -0.2721  0.1005
   44CB      R2  131   4.813   3.044  -0.093  0.1144 -0.0311 -0.0948
   44CB      R3  132   5.057   3.148  -0.142  0.1266 -0.0142 -0.0017
   45CB      Cl  133   0.378   0.885   2.004  0.0290  0.2345 -0.0124
   45CB      R2  134   0.052   0.934   1.997  0.0376  0.2678 -0.3066
   45CB      R3  135   0.168   0.993   2.234 -0.2489 -0.2730 -0.0141
   46CB      Cl  136   0.251   4.634   1.909 -0.2109 -0.2151  0.0479
   46CB      R2  137   0.178   4.319   1.844  0.4158 -0.3765  0.0645
   46CB      R3  138   0.435   4.385   1.794  0.2271  0.2110 -0.2102
   47CB      Cl  139   1.147   0.171   5.056  0.3180 -0.1180 -0.0168
   47CB      R2  140   1.411   0.231   5.243  0.2398 -0.1607  0.1086
   47CB      R3  141   1.418   0.350   5.001  0.2062  0.1405  0.2516
   48CB      Cl  142   0.940   1.226   4.343  0.1156  0.3405  0.0487
   48CB      R2  143   1.270   1.226   4.336  0.1132  0.3116 -0.1292
   48CB      R3  144   1.158   1.455   4.247  0.0838  0.2737 -0.1898
   49CB      Cl  145   3.221   3.211   4.351 -0.2356 -0.0113 -0.2794
   49CB      R2  146   3.021   3.097   4.588  0.0756 -0.0223 -0.0148
   49CB      R3  147   3.182   3.300   4.667  0.2929 -0.1303 -0.1703
   50CB      Cl  148   4.568   4.597   2.358  0.2245  0.2747 -0.2717
   50CB      R2  149   4.666   4.901   2.443  0.2210  0.1802  0.0835
   50CB      R3  150   4.494   4.787   2.617  0.2059 -0.0185 -0.0580
   51CB      Cl  151   2.028   4.186   1.447 -0.0628  0.1494  0.3914
   51CB      R2  152   1.814   3.940   1.396 -0.0040  0.0994  0.3845
   51CB      R3  153   2.031   3.870   1.540  0.3999 -0.0600 -0.2603
   52CB      Cl  154   2.649   3.341   1.050 -0.0570 -0.0238  0.1459
   52CB      R2  155   2.704   3.665   1.082  0.0257 -0.0135 -0.0797
   52CB      R3  156   2.863   3.510   1.236  0.0290  0.0501 -0.0185
   53CB      Cl  157   2.824   1.141   1.640  0.3595  0.4706 -0.2892
   53CB      R2  158   2.981   0.904   1.473 -0.0609  0.1025 -0.1815
   53CB      R3  159   2.934   1.127   1.329  0.0198 -0.0184 -0.4004
   54CB      Cl  160   2.889   2.671   4.321 -0.2353 -0.2693 -0.2219
   54CB      R2  161   3.126   2.779   4.119 -0.1363 -0.1177 -0.0281
   54CB      R3  162   2.887   2.899   4.083 -0.1466 -0.1667 -0.1255
   55CB      Cl  163   4.843   3.516   1.696 -0.0350  0.1206  0.2053
   55CB      R2  164   4.786   3.274   1.479 -0.2580  0.2170  0.1537
   55CB      R3  165   4.925   3.482   1.378  0.1241  0.0199  0.2560
   56CB      Cl  166   4.147   1.080   5.021  0.3271 -0.2216 -0.0996
   56CB      R2  167   3.965   0.880   5.210  0.0867 -0.1206 -0.2203
   56CB      R3  168   4.099   1.070   5.347 -0.1501  0.0029 -0.1545
   57CB      Cl  169   0.916   2.342   3.775  0.4554 -0.1560 -0.0289
   57CB      R2  170   0.967   2.156   4.043 -0.1769 -0.1217  0.1334
   57CB      R3  171   0.877   2.405   4.097  0.1150  0.0426 -0.1032
   58CB      Cl  172   3.575   1.667   2.164 -0.2911  0.0906  0.2234
   58CB      R2  173   3.502   1.983   2.224 -0.4562  0.1170 -0.0973
   58CB      R3  174   3.754   1.914   2.291 -0.3534  0.3691 -0.2085
   59CB      Cl  175   1.447   3.714   4.668  0.1626 -0.2013  0.1719
   59CB      R2  176   1.428   3.978   4.865  0.3517 -0.0925  0.0472
   59CB      R3  177   1.433   4.037   4.601 -0.1561 -0.2479 -0.0083
   60CB      Cl  178   4.900   1.897   3.675  0.1918  0.0455 -0.0648
   60CB      R2  179   5.079   1.666   3.827  0.0377 -0.1282 -0.1431
   60CB      R3  180   4.874   1.568   3.681 -0.1057  0.0657 -0.0762
   61CB      Cl  181   3.292   2.787   2.304 -0.2572 -0.5664 -0.2287
   61CB      R2  182   3.385   2.537   2.109  0.4906 -0.2775 -0.2788
   61CB      R3  183   3.410   2.780   1.996 -0.0692 -0.1552 -0.1721
   62CB      Cl  184   4.319   4.250   2.713  0.1872 -0.1879 -0.0400
   62CB      R2  185   4.638   4.229   2.794  0.1041 -0.1571  0.3156
   62CB      R3  186   4.518   3.991   2.754  0.2297 -0.1620 -0.0819
   63CB      Cl  187   2.148   2.178   0.795  0.2520  0.3121  0.1700
   63CB      R2  188   2.030   1.870   0.814  0.4082  0.2486  0.1298
   63CB      R3  189   1.854   2.061   0.889  0.1352  0.1879 -0.3174
   64CB      Cl  190   1.841   4.486   3.830  0.1548  0.0610  0.1686
   64CB      R2  191   2.123   4.572   3.977  0.1650  0.1053  0.1231
   64CB      R3  192   1.996   4.776   3.853  0.1303  0.0785  0.1145
   65CB      Cl  193   3.982   2.697   0.925 -0.0131  0.4651 -0.3924
   65CB      R2  194   3.838   2.849   1.180  0.2528  0.1251 -0.0275
   65CB      R3  195   3.685   2.659   1.063  0.3310 -0.1131  0.2466
   66CB      Cl  196   3.460   0.561   4.327  0.0286 -0.1110  0.1534
   66CB      R2  197   3.591   0.261   4.280  0.1042 -0.0522 -0.0200
   66CB      R3  198   3.755   0.465   4.214  0.1311  0.0335  0.2928
   67CB      Cl  199   0.459   3.264   1.940  0.0551 -0.0034  0.0312
   67CB      R2  200   0.223   3.329   1.718 -0.1039 -0.0096  0.1961
   67CB      R3  201   0.474   3.353   1.622 -0.1675  0.2023  0.0748
   68CB      Cl  202   3.074   4.725   4.299  0.0662 -0.2762  0.1109
   68CB      R2  203   3.347   4.685   4.480 -0.1405 -0.0299  0.4912
   68CB      R3  204   3.342   4.915   4.337  0.0550 -0.2580  0.0994
   69CB      Cl  205   2.594   1.377   1.162 -0.2468 -0.0064  0.1276
   69CB      R2  206   2.869   1.548   1.227 -0.2536  0.0603 -0.0171
   69CB      R3  207   2.667   1.594   1.400 -0.1563 -0.0306  0.1224
   70CB      Cl  208   2.866   0.367   2.769  0.0017  0.0157  0.1619
   70CB      R2  209   2.658   0.420   3.019 -0.2782 -0.0748 -0.0471
   70CB      R3  210   2.791   0.640   2.938 -0.1727 -0.0482  0.1896
   71CB      Cl  211   2.370   0.751   4.943  0.0699  0.1800  0.3892
   71CB      R2  212   2.382   0.428   5.012 -0.0398  0.0989  0.0508
   71CB      R3  213   2.438   0.488   4.755  0.1357  0.3672  0.1470
   72CB      Cl  214   0.717   4.656   4.421  0.2940  0.0515 -0.1119
   72CB      R2  215   0.785   4.388   4.240  0.2732 -0.1140  0.1208
   72CB      R3  216   0.897   4.386   4.486 -0.0350 -0.0864  0.2662
   73CB      Cl  217   3.135   0.135   3.116 -0.2257  0.2046  0.2159
   73CB      R2  218   3.300  -0.067   3.317 -0.1985 -0.1571 -0.1566
   73CB      R3  219   3.171   0.134   3.444 -0.0948 -0.3118  0.2073
   74CB      Cl  220   2.548   1.990   1.612 -0.1478 -0.0996  0.2767
   74CB      R2  221   2.619   2.309   1.568 -0.4610 -0.1080 -0.4382
   74CB      R3  222   2.396   2.265   1.713 -0.2011 -0.0271  0.0073
   75CB      Cl  223   1.995   0.844   3.093  0.1907 -0.0851 -0.0429
   75CB      R2  224   1.759   0.800   3.319  0.0678  0.1355 -0.1254
   75CB      R3  225   1.712   1.005   3.148  0.2507  0.0908 -0.2319
   76CB      Cl  226   4.465   2.652   1.148 -0.0723 -0.1337  0.0208
   76CB      R2  227   4.761   2.627   1.292  0.0401 -0.0007 -0.1831
   76CB      R3  228   4.666   2.880   1.277 -0.0079 -0.0233 -0.2673
   77CB      Cl  229   4.022   0.304   3.642  0.2279  0.0356 -0.1698
   77CB      R2  230   4.087   0.624   3.594 -0.0026  0.1009 -0.0605
   77CB      R3  231   3.976   0.569   3.834 -0.2058 -0.0246 -0.1803
   78CB      Cl  232   1.324   0.077   2.157  0.1791 -0.0034  0.2291
   78CB      R2  233   1.271   0.328   1.949  0.2325 -0.0619  0.1441
   78CB      R3  234   1.158   0.360   2.192 -0.0125 -0.0890  0.0367
   79CB      Cl  235   0.930   2.720   0.529  0.3396  0.0182 -0.2616
   79CB      R2  236   1.057   2.657   0.827 -0.0308  0.2337 -0.0511
   79CB      R3  237   1.072   2.450   0.655  0.1586  0.0964  0.1255
   80CB      Cl  238   0.857   4.541   1.884  0.0756 -0.2181 -0.0879
   80CB      R2  239   1.134   4.558   1.705  0.2044  0.1079  0.1339
   80CB      R3  240   1.067   4.308   1.781  0.2364 -0.0153 -0.2263
   81CB      Cl  241   2.099   1.826   4.488  0.1242 -0.0309 -0.2578
   81CB      R2  242   1.829   1.996   4.405 -0.1289 -0.1973  0.1848
   81CB      R3  243   2.009   1.969   4.205 -0.2952  0.1798 -0.0276
   82CB      Cl  244   0.367   0.289   1.703  0.0661  0.3793  0.2511
   82CB      R2  245   0.207   0.406   1.439  0.2005  0.3512  0.1560
   82CB      R3  246   0.336   0.595   1.583  0.2561  0.3466  0.1129
   83CB      Cl  247   0.353   2.003   4.018  0.0423  0.1080  0.1609
   83CB      R2  248   0.354   2.235   4.253  0.3558  0.4384 -0.1534
   83CB      R3  249   0.192   2.290   4.043 -0.1858 -0.0137  0.1185
   84CB      Cl  250   4.077   3.187   0.850  0.0973  0.4196 -0.3447
   84CB      R2  251   4.296   3.009   0.679  0.0101 -0.0202 -0.0140
   84CB      R3  252   4.358   3.039   0.940 -0.3794 -0.2646  0.1153
   85CB      Cl  253   4.770   0.335   3.120 -0.2638  0.1649  0.2597
   85CB      R2  254   4.800   0.062   3.304  0.1792  0.0036 -0.0363
   85CB      R3  255   4.636   0.035   3.092  0.0464  0.0409  0.0601
   86CB      Cl  256   0.092   3.155   2.326 -0.0369 -0.2271  0.3460
   86CB      R2  257   0.395   3.242   2.423 -0.0525  0.0351  0.1712
   86CB      R3  258   0.197   3.388   2.534 -0.0988  0.0299  0.0958
   87CB      Cl  259   4.968   4.197   2.467 -0.1247 -0.3282  0.0095
   87CB      R2  260   4.901   4.248   2.148  0.1080 -0.2288 -0.0255
   87CB      R3  261   5.031   4.453   2.268  0.1574 -0.3282  0.0930
   88CB      Cl  262   0.256   2.429   2.507 -0.1421 -0.1231 -0.1523
   88CB      R2  263  -0.016   2.391   2.324 -0.1721  0.0927 -0.1561
   88CB      R3  264   0.120   2.619   2.274  0.0160 -0.0180 -0.1611
   89CB      Cl  265   4.001   1.663   4.814 -0.1308  0.2145  0.2126
   89CB      R2  266   4.039   1.991   4.815  0.0230  0.1971  0.3023
   89CB      R3  267   3.854   1.902   4.640  0.4016  0.2856 -0.1641
   90CB      Cl  268   3.276   4.557   3.595 -0.1857 -0.0083 -0.0606
   90CB      R2  269   3.152   4.649   3.887 -0.4434 -0.0735 -0.1470
   90CB      R3  270   3.096   4.818   3.684  0.3053  0.3393 -0.0468
   91CB      Cl  271   4.797   0.824   1.595 -0.1229 -0.2713 -0.1204
   91CB      R2  272   4.993   0.781   1.334  0.2194 -0.0613  0.0935
   91CB      R3  273   4.790   0.953   1.291  0.1904 -0.1352 -0.0747
   92CB      Cl  274   3.255   4.096   0.827  0.1891 -0.0106 -0.0875
   92CB      R2  275   3.320   4.378   0.986  0.0497 -0.0517  0.0460
   92CB      R3  276   3.185   4.197   1.133  0.2657 -0.2473  0.0104
   93CB      Cl  277   4.023   1.584   2.219 -0.4420  0.0838  0.0431
   93CB      R2  278   4.072   1.753   1.940 -0.2563 -0.0637 -0.0157
   93CB      R3  279   4.042   1.487   1.905 -0.2391 -0.0822  0.1042
   94CB      Cl  280   3.733   4.861   3.369  0.1919  0.0221 -0.1273
   94CB      R2  281   3.910   4.622   3.226  0.0293 -0.0659 -0.1840
   94CB      R3  282   3.980   4.673   3.482  0.2669  0.0360 -0.2661
   95CB      Cl  283   3.776   4.960   4.638  0.1394 -0.0834  0.2794
   95CB      R2  284   3.987   4.958   4.892  0.1627 -0.1804  0.2598
   95CB      R3  285   3.970   4.723   4.761  0.0630 -0.1647  0.2437
   96CB      Cl  286   1.016   0.029   3.165  0.0930  0.0503  0.3880
   96CB      R2  287   1.338  -0.020   3.111  0.0272 -0.1318  0.1411
   96CB      R3  288   1.285   0.138   3.323  0.2783 -0.1054  0.1882
   97CB      Cl  289   0.660   4.998   0.054  0.1660 -0.3377 -0.2611
   97CB      R2  290   0.731   4.748   0.257  0.1528  0.0169  0.1967
   97CB      R3  291   0.601   4.953   0.375 -0.1351  0.1039 -0.2458
   98CB      Cl  292   4.053   4.012   0.346 -0.1078  0.0909 -0.0708
   98CB      R2  293   4.233   3.983   0.071 -0.0419  0.0276 -0.0213
   98CB      R3  294   4.139   3.749   0.166  0.1830  0.0120  0.1745
   99CB      Cl  295   0.471   5.044   4.668 -0.1706  0.3310 -0.2127
   99CB      R2  296   0.713   5.269   4.660 -0.0561  0.2069 -0.2695
   99CB      R3  297   0.678   5.135   4.428 -0.2254  0.2712 -0.2829
  100CB      Cl  298   0.867   4.742   4.814  0.0152 -0.2462 -0.3555
  100CB      R2  299   0.595   4.564   4.869 -0.2817  0.2846 -0.0173
  100CB      R3  300   0.823   4.444   4.949 -0.4171 -0.1271 -0.2169
  101CB      Cl  301   1.858   0.545   4.940 -0.4267 -0.0797  0.1826
  101CB      R2  302   1.797   0.494   5.260 -0.1312  0.0425  0.2618
  101CB      R3  303   1.871   0.272   5.125 -0.5332 -0.0679  0.2082
  102CB      Cl  304   1.771   1.984   1.673  0.1184  0.1611 -0.3449
  102CB      R2  305   2.098   1.958   1.712  0.0821  0.0970 -0.0620
  102CB      R3  306   1.961   1.733   1.773  0.0004  0.0503 -0.3957
  103CB      Cl  307   1.819   0.033   1.757  0.2091  0.1273  0.0427
  103CB      R2  308   1.931   0.343   1.757  0.0760  0.1788  0.3576
  103CB      R3  309   1.662   0.323   1.768  0.0692  0.0519  0.0576
  104CB      Cl  310   2.761   3.044   3.593 -0.0336 -0.2850  0.1166
  104CB      R2  311   2.540   3.286   3.629  0.1906 -0.0432 -0.0945
  104CB      R3  312   2.546   3.111   3.835  0.0742  0.1692  0.0946
  105CB      Cl  313   2.087   3.062   0.200 -0.3791 -0.1554  0.1012
  105CB      R2  314   2.246   3.024   0.487 -0.0807 -0.0187 -0.0415
  105CB      R3  315   2.013   2.888   0.471  0.0209 -0.2265  0.1713
  106CB      Cl  316   1.956   3.875   4.162 -0.2528  0.0024  0.2644
  106CB      R2  317   1.752   4.090   4.307 -0.2481  0.3557 -0.2285
  106CB      R3  318   1.965   4.204   4.185 -0.2318  0.0702 -0.4784
  107CB      Cl  319   2.777   1.036   4.850 -0.1611  0.2312  0.2490
  107CB      R2  320   2.634   1.175   4.587  0.2084  0.2147  0.0311
  107CB      R3  321   2.665   0.908   4.567 -0.0315  0.1674  0.2259
  108CB      Cl  322   0.455   5.018   1.379  0.1881 -0.1233 -0.2842
  108CB      R2  323   0.544   4.882   1.667 -0.2136  0.1801 -0.0040
  108CB      R3  324   0.750   4.929   1.498  0.0140 -0.1041  0.1835
  109CB      Cl  325   2.949   3.081   2.150 -0.1732  0.1700  0.3190
  109CB      R2  326   2.821   3.383   2.181  0.0462  0.2734  0.2361
  109CB      R3  327   2.976   3.351   1.963 -0.1911  0.0212  0.0985
  110CB      Cl  328   2.762   0.843   2.524  0.2915 -0.0616 -0.3186
  110CB      R2  329   2.509   0.961   2.348  0.3000  0.0345 -0.2674
  110CB      R3  330   2.697   1.145   2.408  0.1481  0.0787  0.1054
  111CB      Cl  331   0.381   4.308   2.442 -0.1779 -0.6490  0.1190
  111CB      R2  332   0.623   4.295   2.218  0.0731  0.1004  0.3185
  111CB      R3  333   0.445   4.093   2.200  0.1642  0.0591 -0.4587
  112CB      Cl  334   2.501   4.676   3.750  0.0120 -0.3366 -0.0636
  112CB      R2  335   2.536   4.465   4.002 -0.0145 -0.0479  0.1876
  112CB      R3  336   2.700   4.679   4.013  0.1285 -0.1328 -0.1526
  113CB      Cl  337   1.298   2.799   1.442 -0.0832 -0.1550 -0.1328
  113CB      R2  338   1.170   2.991   1.205  0.0717 -0.3021 -0.3392
  113CB      R3  339   1.338   2.800   1.114  0.3491 -0.1875 -0.0849
  114CB      Cl  340   1.948   2.098   0.086 -0.3317  0.0272  0.1929
  114CB      R2  341   2.070   2.148   0.389 -0.0311  0.0432  0.0729
  114CB      R3  342   2.251   2.055   0.211 -0.2354 -0.0869 -0.0715
  115CB      Cl  343   4.278   3.287   0.345 -0.0203 -0.0374 -0.0445
  115CB      R2  344   4.452   3.397   0.087  0.0598 -0.0275  0.0134
  115CB      R3  345   4.309   3.174   0.036 -0.4045  0.3041 -0.2191
  116CB      Cl  346   1.210   2.249   4.438 -0.0943  0.1416 -0.0969
  116CB      R2  347   1.233   1.923   4.395 -0.3616  0.1470 -0.3131
  116CB      R3  348   0.983   2.009   4.448 -0.2872  0.3147 -0.2291
  117CB      Cl  349   3.065   0.403   1.503 -0.1024  0.0204  0.0163
  117CB      R2  350   2.859   0.230   1.694  0.0672  0.1703  0.3439
  117CB      R3  351   3.115   0.145   1.703  0.0118 -0.0925 -0.1537
  118CB      Cl  352   3.661   4.335   3.539  0.0867  0.1065  0.0626
  118CB      R2  353   3.555   4.033   3.460  0.1893  0.0802  0.0235
  118CB      R3  354   3.817   4.074   3.409  0.2308  0.1005  0.2416
  119CB      Cl  355   4.131   3.786   1.600 -0.3187 -0.1202  0.0753
  119CB      R2  356   4.025   4.096   1.558  0.0801  0.0612  0.3480
  119CB      R3  357   4.097   3.972   1.329 -0.5362 -0.0099  0.1750
  120CB      Cl  358   1.731   4.377   2.729  0.0461  0.0791 -0.0174
  120CB      R2  359   1.728   4.256   3.036  0.2267  0.1030 -0.0053
  120CB      R3  360   1.974   4.272   2.926  0.1871  0.3005 -0.0697
  121CB      Cl  361   3.029   1.777   0.860 -0.2275 -0.0265 -0.2903
  121CB      R2  362   3.353   1.757   0.805 -0.1408 -0.1324  0.2125
  121CB      R3  363   3.202   1.735   0.583  0.1815 -0.4360  0.0132
  122CB      Cl  364   2.251   4.281   2.350 -0.0208 -0.1202  0.1297
  122CB      R2  365   2.161   4.576   2.469  0.0180 -0.0708  0.0368
  122CB      R3  366   2.312   4.430   2.639  0.3392  0.1291 -0.0676
  123CB      Cl  367   2.261   4.030   0.459 -0.3582 -0.1816 -0.1036
  123CB      R2  368   2.366   3.979   0.150 -0.0186 -0.0454 -0.0149
  123CB      R3  369   2.174   4.168   0.172  0.1957  0.1879 -0.1077
  124CB      Cl  370   4.202   3.736   2.906 -0.3392 -0.0629 -0.1276
  124CB      R2  371   4.383   3.466   2.960  0.1378  0.2146 -0.2763
  124CB      R3  372   4.146   3.418   2.841  0.0939 -0.1616 -0.0538
  125CB      Cl  373   4.413   2.329   4.337  0.2508  0.1649  0.4020
  125CB      R2  374   4.281   2.075   4.501  0.1398  0.1002  0.2156
  125CB      R3  375   4.524   2.023   4.394  0.0844  0.0475  0.1144
  126CB      Cl  376   2.489   0.487   3.518 -0.1404  0.0037 -0.1396
  126CB      R2  377   2.453   0.730   3.738 -0.2268  0.0214 -0.1730
  126CB      R3  378   2.653   0.558   3.795 -0.1897  0.0788 -0.1294
  127CB      Cl  379   4.661   4.708   1.496  0.0988  0.2081 -0.1095
  127CB      R2  380   4.822   4.424   1.544 -0.0508  0.1636  0.1459
  127CB      R3  381   4.972   4.645   1.586  0.0818  0.1255 -0.1078
  128CB      Cl  382   4.079   4.573   1.563  0.1525  0.2479 -0.0752
  128CB      R2  383   4.349   4.438   1.695 -0.0346 -0.0798 -0.0168
  128CB      R3  384   4.340   4.426   1.425  0.2166  0.3398 -0.0528
  129CB      Cl  385   1.945   4.517   1.700  0.0309  0.0307 -0.2060
  129CB      R2  386   2.111   4.343   1.927 -0.2641 -0.0764 -0.0681
  129CB      R3  387   2.119   4.610   1.965 -0.4620 -0.1017  0.1786
  130CB      Cl  388   1.194   2.855   1.875 -0.2982  0.0665  0.1454
  130CB      R2  389   0.970   2.734   2.085 -0.0314  0.0077  0.4027
  130CB      R3  390   1.164   2.559   2.017 -0.2860 -0.0790 -0.1487
  131CB      Cl  391   3.670   3.267   4.624  0.0995  0.0001 -0.2862
  131CB      R2  392   3.960   3.119   4.570 -0.0222 -0.2661 -0.2263
  131CB      R3  393   3.846   3.056   4.806  0.1148  0.2446 -0.0100
  132CB      Cl  394   2.783   4.079   0.940  0.3364  0.1922  0.1285
  132CB      R2  395   2.843   4.030   0.619  0.0974 -0.3193  0.1516
  132CB      R3  396   2.648   4.210   0.669  0.1721 -0.1982  0.0155
  133CB      Cl  397   2.885   0.653   0.181 -0.0736 -0.3053  0.1230
  133CB      R2  398   3.174   0.553   0.304  0.0863  0.3146  0.2854
  133CB      R3  399   2.961   0.478   0.451  0.1518 -0.1695  0.1503
  134CB      Cl  400   1.757   0.107   3.030 -0.1053 -0.2366 -0.2081
  134CB      R2  401   1.579   0.374   3.104 -0.0174 -0.2738  0.1623
  134CB      R3  402   1.810   0.428   2.976 -0.1675 -0.2052 -0.0883
  135CB      Cl  403   1.909   1.578   2.800  0.1675 -0.0981  0.0006
  135CB      R2  404   1.782   1.293   2.690 -0.0902 -0.1476  0.4058
  135CB      R3  405   1.667   1.386   2.916 -0.0472  0.3104  0.2503
  136CB      Cl  406   2.467   2.137   3.779  0.0296 -0.0731 -0.0614
  136CB      R2  407   2.733   1.999   3.918  0.1569  0.4042  0.1913
  136CB      R3  408   2.512   1.995   4.074 -0.0301 -0.0967 -0.0635
  137CB      Cl  409   3.209   3.287   3.620  0.2469  0.1157  0.0145
  137CB      R2  410   3.237   3.191   3.934  0.0249  0.0972  0.0302
  137CB      R3  411   2.997   3.300   3.873  0.0378  0.0261 -0.1526
  138CB      Cl  412   1.649   1.623   4.766 -0.3706  0.1560 -0.0270
  138CB      R2  413   1.721   1.401   4.534 -0.3681 -0.0212  0.1406
  138CB      R3  414   1.606   1.626   4.439 -0.3255 -0.0719 -0.0364
  139CB      Cl  415   3.832   1.111   2.067 -0.0104 -0.2764 -0.1457
  139CB      R2  416   3.922   1.088   1.750 -0.0582  0.3397 -0.2151
  139CB      R3  417   4.084   0.955   1.920  0.0437  0.1107 -0.4830
  140CB      Cl  418   3.157   0.568   3.158  0.1510 -0.0750 -0.0650
  140CB      R2  419   2.952   0.482   3.402  0.0606  0.1067 -0.0748
  140CB      R3  420   3.173   0.611   3.485  0.0295  0.1693 -0.0887
  141CB      Cl  421   3.510   0.825   1.842 -0.2070  0.0122  0.1433
  141CB      R2  422   3.406   0.720   1.547 -0.0560  0.0292  0.0834
  141CB      R3  423   3.390   0.534   1.742 -0.1159  0.0046  0.0553
  142CB      Cl  424   0.436   2.270   2.872  0.0828 -0.1332 -0.3887
  142CB      R2  425   0.518   1.950   2.871  0.0164 -0.1615  0.1530
  142CB      R3  426   0.529   2.066   3.115 -0.1146  0.2115 -0.0114
  143CB      Cl  427   1.418   2.324   1.699  0.0174 -0.0612 -0.2007
  143CB      R2  428   1.585   2.517   1.908  0.2819 -0.0942 -0.3765
  143CB      R3  429   1.553   2.263   1.994 -0.1376  0.0390 -0.1077
  144CB      Cl  430   0.398   1.068   3.531 -0.1374 -0.0026 -0.5629
  144CB      R2  431   0.199   1.234   3.735 -0.0161 -0.2614 -0.2240
  144CB      R3  432   0.319   1.388   3.548  0.2764  0.0822  0.2251
  145CB      Cl  433   3.063   4.130   1.809  0.1032  0.4670  0.1221
  145CB      R2  434   3.261   4.371   1.701  0.2378  0.1162 -0.4598
  145CB      R3  435   3.264   4.149   1.547  0.1239 -0.2661  0.0642
  146CB      Cl  436   1.495   0.854   0.299  0.0771  0.0925 -0.0545
  146CB      R2  437   1.618   1.059   0.527 -0.2153  0.2361 -0.0214
  146CB      R3  438   1.387   0.939   0.599 -0.1413  0.0329 -0.1147
  147CB      Cl  439   2.970   0.098   4.139 -0.2769 -0.0365  0.0725
  147CB      R2  440   3.079   0.400   4.061  0.2905 -0.2108  0.1459
  147CB      R3  441   2.985   0.259   3.851  0.0235  0.0108  0.1110
  148CB      Cl  442   4.739   1.770   1.431 -0.0773  0.0017 -0.0940
  148CB      R2  443   4.841   1.492   1.286 -0.0025 -0.1405  0.2238
  148CB      R3  444   5.025   1.690   1.287 -0.0133 -0.1289  0.1032
  149CB      Cl  445   2.185   4.720   0.613 -0.1967  0.1013  0.0026
  149CB      R2  446   2.489   4.798   0.512 -0.2149  0.0776 -0.0710
  149CB      R3  447   2.292   4.896   0.356 -0.2483  0.1694  0.0272
  150CB      Cl  448   3.651   0.448   0.826  0.2046 -0.0576  0.3212
  150CB      R2  449   3.651   0.533   1.145 -0.3638  0.0624  0.3004
  150CB      R3  450   3.611   0.739   0.975  0.1760  0.0398  0.1264
  151CB      Cl  451   0.142   3.317   2.978  0.3659  0.0248  0.2690
  151CB      R2  452   0.243   3.630   3.009  0.2635  0.0716  0.1432
  151CB      R3  453   0.440   3.456   2.945  0.3045  0.1251  0.1232
  152CB      Cl  454   2.952   4.302   4.142 -0.0373 -0.2687 -0.1869
  152CB      R2  455   2.864   4.005   4.028 -0.3479 -0.2993  0.1179
  152CB      R3  456   2.859   4.200   3.842 -0.1694 -0.4767 -0.0779
  153CB      Cl  457   3.320   1.718   2.535  0.1018 -0.0069 -0.1363
  153CB      R2  458   3.483   1.959   2.692  0.2668  0.1382 -0.5184
  153CB      R3  459   3.615   1.724   2.684 -0.1291 -0.1535  0.3458
  154CB      Cl  460   2.844   4.552   0.110  0.2927 -0.2244  0.6737
  154CB      R2  461   2.583   4.400   0.242 -0.0028 -0.2811  0.0613
  154CB      R3  462   2.801   4.244   0.218  0.0241 -0.2978  0.3756
  155CB      Cl  463   4.641   4.513   0.314 -0.1529 -0.0839  0.1675
  155CB      R2  464   4.399   4.382   0.495 -0.5830  0.1601 -0.2101
  155CB      R3  465   4.453   4.640   0.554 -0.1694  0.0116  0.1048
  156CB      Cl  466   0.309   2.844   1.001 -0.1782 -0.1443  0.1469
  156CB      R2  467  -0.010   2.792   0.933 -0.2049  0.0878  0.0866
  156CB      R3  468   0.033   2.932   1.160 -0.1431  0.0054  0.1264
  157CB      Cl  469   0.321   3.183   3.428 -0.0700 -0.2896 -0.0110
  157CB      R2  470   0.523   2.951   3.310  0.1688 -0.0943  0.0038
  157CB      R3  471   0.429   2.899   3.558  0.1740 -0.2023 -0.0161
  158CB      Cl  472   1.537   3.152   2.045 -0.0974  0.1358  0.2080
  158CB      R2  473   1.311   3.066   2.269 -0.2898 -0.1729 -0.0940
  158CB      R3  474   1.533   2.912   2.271 -0.2032 -0.0495  0.0128
  159CB      Cl  475   4.450   2.230   2.116 -0.0887 -0.0141 -0.0533
  159CB      R2  476   4.305   1.985   2.281 -0.0075  0.0127  0.0587
  159CB      R3  477   4.361   2.202   2.432  0.0916  0.0268  0.0025
  160CB      Cl  478   1.781   0.161   2.516 -0.0161 -0.2463 -0.0681
  160CB      R2  479   1.741   0.300   2.219 -0.0713 -0.0529  0.0277
  160CB      R3  480   1.669   0.458   2.425  0.2460 -0.0724  0.1594
  161CB      Cl  481   3.879   2.515   4.799  0.0434 -0.2378 -0.1057
  161CB      R2  482   3.803   2.583   4.485  0.0190 -0.3110 -0.1158
  161CB      R3  483   4.041   2.460   4.516  0.1823  0.0033 -0.0762
  162CB      Cl  484   4.906   3.993   1.617  0.0923 -0.0828  0.1072
  162CB      R2  485   4.611   4.050   1.755  0.0875  0.2270 -0.0241
  162CB      R3  486   4.608   4.041   1.485  0.1541 -0.0438 -0.0191
  163CB      Cl  487   1.051   0.506   1.316 -0.2760  0.2101 -0.3566
  163CB      R2  488   0.839   0.260   1.257 -0.3176  0.1199  0.1219
  163CB      R3  489   0.895   0.297   1.518  0.3788  0.0403  0.0055
  164CB      Cl  490   1.177   3.286   3.831 -0.1155 -0.0574  0.0704
  164CB      R2  491   1.048   3.341   4.130  0.1664  0.1748  0.1547
  164CB      R3  492   0.908   3.166   3.979 -0.0575  0.1657  0.3669
  165CB      Cl  493   3.895   2.469   0.531 -0.0761  0.0823 -0.3769
  165CB      R2  494   3.695   2.720   0.606 -0.1324  0.0189 -0.3135
  165CB      R3  495   3.591   2.477   0.660  0.0281 -0.0096 -0.1191
  166CB      Cl  496   0.654   3.056   4.323  0.1217  0.1739 -0.1277
  166CB      R2  497   0.608   3.357   4.196 -0.1729  0.1546 -0.0723
  166CB      R3  498   0.462   3.163   4.077 -0.2368  0.0899  0.1075
  167CB      Cl  499   0.143   4.069   4.310 -0.2352 -0.0340 -0.0698
  167CB      R2  500   0.379   4.145   4.527  0.0326 -0.2272 -0.2859
  167CB      R3  501   0.319   4.344   4.355 -0.0860 -0.1195 -0.1229
  168CB      Cl  502   2.347   1.529   3.896 -0.1368  0.0924  0.3268
  168CB      R2  503   2.248   1.250   3.751  0.1294 -0.0200  0.3547
  168CB      R3  504   2.507   1.312   3.706  0.0437  0.2842  0.2553
  169CB      Cl  505   2.600   0.169   0.707 -0.0698  0.0189  0.0354
  169CB      R2  506   2.319   0.098   0.866  0.1410 -0.1734  0.3321
  169CB      R3  507   2.368   0.362   0.842 -0.0321 -0.1396  0.3360
  170CB      Cl  508   4.930   1.712   4.317  0.4311 -0.0964  0.0813
  170CB      R2  509   4.919   1.978   4.123  0.1316 -0.1038  0.0834
  170CB      R3  510   4.725   1.797   4.073 -0.0479 -0.0334  0.4900
  171CB      Cl  511   0.906   3.166   0.740  0.1826 -0.1153 -0.1526
  171CB      R2  512   0.731   3.033   0.986  0.2133  0.1419  0.0113
  171CB      R3  513   0.625   2.992   0.741  0.0312  0.1233  0.0912
  172CB      Cl  514   2.481   2.735   4.451  0.0005  0.0066  0.2122
  172CB      R2  515   2.606   3.039   4.421  0.3629 -0.1861 -0.3951
  172CB      R3  516   2.398   2.988   4.256 -0.1809 -0.0544  0.2079
  173CB      Cl  517   2.428   1.935   3.360 -0.3202 -0.3354 -0.0124
  173CB      R2  518   2.363   1.626   3.457 -0.2605 -0.2755  0.2268
  173CB      R3  519   2.582   1.733   3.572 -0.0660 -0.2715 -0.1316
  174CB      Cl  520   0.465   1.382   2.248  0.1657  0.0105 -0.0461
  174CB      R2  521   0.218   1.381   2.029  0.0437  0.0143  0.0893
  174CB      R3  522   0.464   1.361   1.919 -0.0181 -0.0190 -0.0450
  175CB      Cl  523   0.005   2.606   3.459 -0.0536  0.0060  0.3161
  175CB      R2  524  -0.008   2.906   3.322  0.0563 -0.1226  0.0146
  175CB      R3  525  -0.241   2.823   3.430  0.0054  0.0396  0.0310
  176CB      Cl  526   3.234   0.651   0.833 -0.2949  0.2173 -0.0347
  176CB      R2  527   3.202   0.582   1.155  0.0915  0.0679 -0.0236
  176CB      R3  528   3.165   0.842   1.093  0.0077  0.0958  0.1402
  177CB      Cl  529   3.249   4.489   2.918 -0.1987 -0.2781  0.2868
  177CB      R2  530   3.465   4.736   2.946 -0.3136 -0.1112 -0.2109
  177CB      R3  531   3.421   4.602   3.176  0.0179  0.1021 -0.0149
  178CB      Cl  532   4.994   2.229   1.852 -0.0554 -0.1463  0.0460
  178CB      R2  533   5.060   2.070   1.570 -0.2297 -0.0858 -0.0301
  178CB      R3  534   4.890   2.278   1.543 -0.1239  0.0194  0.0944
  179CB      Cl  535   2.175   0.634   2.138 -0.0307 -0.0070 -0.1001
  179CB      R2  536   2.025   0.912   2.233  0.0340 -0.0152  0.0271
  179CB      R3  537   1.860   0.730   2.120  0.0179  0.1368 -0.2003
  180CB      Cl  538   4.037   3.009   2.894 -0.1802  0.3105  0.1689
  180CB      R2  539   3.770   2.970   2.703 -0.2677  0.1082  0.3281
  180CB      R3  540   3.953   3.143   2.604 -0.1105 -0.3063 -0.1536
  181CB      Cl  541   2.367   3.403   0.113 -0.1833  0.0764  0.3079
  181CB      R2  542   2.509   3.457   0.406 -0.0583 -0.0104  0.2639
  181CB      R3  543   2.671   3.339   0.225 -0.1177  0.0926  0.1420
  182CB      Cl  544   3.798   0.684   2.254  0.0470 -0.0551  0.1355
  182CB      R2  545   3.701   0.636   2.565  0.0190  0.1988  0.1684
  182CB      R3  546   3.567   0.833   2.437 -0.0568  0.0125 -0.0465
  183CB      Cl  547   4.889   3.727   4.199  0.0978  0.2372 -0.0392
  183CB      R2  548   4.991   3.831   3.903  0.4474 -0.0745 -0.0356
  183CB      R3  549   4.974   3.562   3.926  0.4588 -0.0541  0.2388
  184CB      Cl  550   2.826   2.452   3.756  0.2223 -0.2159  0.0698
  184CB      R2  551   2.643   2.422   4.030 -0.0680 -0.0066 -0.0953
  184CB      R3  552   2.597   2.649   3.891  0.3782  0.0890 -0.1015
  185CB      Cl  553   2.231   3.977   3.496 -0.2032  0.1835 -0.2274
  185CB      R2  554   2.305   4.198   3.730 -0.1747 -0.1313  0.0687
  185CB      R3  555   2.507   4.146   3.560 -0.2279  0.1754 -0.0953
  186CB      Cl  556   0.822   2.606   1.271 -0.3178  0.1763  0.2865
  186CB      R2  557   0.807   2.282   1.331 -0.1316  0.1764  0.3404
  186CB      R3  558   0.983   2.415   1.487  0.1298  0.2294  0.0146
  187CB      Cl  559   1.403   4.008   4.056  0.1566 -0.1277  0.2635
  187CB      R2  560   1.292   4.271   4.222  0.0400 -0.0912  0.1300
  187CB      R3  561   1.502   4.323   4.060  0.0621 -0.0960  0.1570
  188CB      Cl  562   1.001   3.979   0.858 -0.0592 -0.0582 -0.0302
  188CB      R2  563   1.030   3.865   0.550 -0.2860 -0.3519  0.0529
  188CB      R3  564   0.794   3.986   0.602 -0.0934  0.0647  0.0002
  189CB      Cl  565   3.592   2.161   3.550  0.0878  0.1840 -0.0388
  189CB      R2  566   3.734   2.452   3.613  0.0523  0.1782  0.0684
  189CB      R3  567   3.500   2.469   3.480 -0.0333  0.2091  0.2201
  190CB      Cl  568   2.942   1.424   3.820  0.2038  0.0852  0.1871
  190CB      R2  569   3.145   1.167   3.861  0.0384 -0.0262  0.3257
  190CB      R3  570   3.161   1.353   4.057  0.0195 -0.0262  0.3272
  191CB      Cl  571   0.331   4.333   0.518 -0.2959  0.0587 -0.0618
  191CB      R2  572   0.449   4.634   0.584 -0.0437 -0.0390 -0.0531
  191CB      R3  573   0.623   4.434   0.634 -0.1975 -0.1849 -0.0905
  192CB      Cl  574   4.773   2.694   4.405 -0.1943 -0.1096 -0.1003
  192CB      R2  575   4.818   2.520   4.128 -0.2397 -0.0310 -0.1575
  192CB      R3  576   4.928   2.407   4.348 -0.2766 -0.1364 -0.1922
  193CB      Cl  577   1.201   2.186   3.457 -0.2077  0.2749  0.1860
  193CB      R2  578   0.951   1.977   3.406  0.2880 -0.3158  0.0595
  193CB      R3  579   0.977   2.167   3.215 -0.0930 -0.2078  0.1074
  194CB      Cl  580   1.728   3.213   0.918  0.0771  0.1783  0.1809
  194CB      R2  581   1.540   3.413   0.736  0.0692  0.1932  0.2053
  194CB      R3  582   1.403   3.271   0.920  0.1232  0.4510  0.4501
  195CB      Cl  583   0.047   2.919   4.128 -0.0220 -0.1210 -0.1206
  195CB      R2  584   0.062   3.103   3.855  0.0510 -0.0590 -0.0756
  195CB      R3  585   0.030   2.839   3.809 -0.0095 -0.0406 -0.1418
  196CB      Cl  586   2.797   4.061   1.388 -0.1939  0.5218 -0.3886
  196CB      R2  587   2.569   3.864   1.524  0.2289  0.0728 -0.2997
  196CB      R3  588   2.487   3.990   1.299 -0.1471  0.0312 -0.1931
  197CB      Cl  589   3.030   4.879   2.186 -0.0375  0.0793  0.3935
  197CB      R2  590   2.955   4.786   1.879 -0.1375  0.1076  0.4092
  197CB      R3  591   3.210   4.734   1.950 -0.1395  0.0181  0.3528
  198CB      Cl  592   4.461   1.686   0.074  0.1246  0.1106  0.2787
  198CB      R2  593   4.405   1.426   0.270  0.2536  0.0216  0.1990
  198CB      R3  594   4.196   1.492   0.112  0.1959  0.0108  0.2702
  199CB      Cl  595   1.748   2.954   1.351  0.2118 -0.1812 -0.2232
  199CB      R2  596   1.887   3.025   1.642 -0.2409  0.1428 -0.0743
  199CB      R3  597   1.653   2.890   1.661 -0.1779 -0.0038 -0.2995
  200CB      Cl  598   2.372   0.679   1.219 -0.1082 -0.0800 -0.1995
  200CB      R2  599   2.377   0.988   1.335 -0.1132 -0.3154  0.4737
  200CB      R3  600   2.130   0.881   1.317 -0.1699 -0.1177 -0.2736
  201CB      Cl  601   0.630   3.371   5.055  0.0725 -0.4997  0.0140
  201CB      R2  602   0.375   3.540   5.181 -0.0795 -0.2120 -0.6338
  201CB      R3  603   0.342   3.272   5.183  0.0195 -0.2413  0.1019
  202CB      Cl  604   4.974   0.311   0.846  0.2121  0.1449  0.2743
  202CB      R2  605   5.214   0.521   0.760  0.3930 -0.0424  0.3124
  202CB      R3  606   5.153   0.525   1.023  0.1472  0.2143  0.2561
  203CB      Cl  607   0.579   2.360   4.930  0.2549 -0.1124 -0.0100
  203CB      R2  608   0.382   2.320   4.669 -0.2496  0.0148  0.3354
  203CB      R3  609   0.611   2.176   4.658 -0.3058 -0.0559 -0.1252
  204CB      Cl  610   0.645   2.963   0.285 -0.1436  0.0716 -0.3474
  204CB      R2  611   0.433   2.792   0.099  0.1293 -0.5276 -0.1325
  204CB      R3  612   0.690   2.714   0.073  0.2739 -0.0933 -0.0784
  205CB      Cl  613   0.905   1.625   2.880  0.0091  0.0950 -0.1255
  205CB      R2  614   0.858   1.345   2.712  0.2215 -0.0510  0.0520
  205CB      R3  615   0.633   1.449   2.819  0.1335 -0.1234 -0.0603
  206CB      Cl  616   2.562   2.191   2.125  0.0290 -0.0322  0.1099
  206CB      R2  617   2.356   2.204   2.383  0.2295  0.0028  0.2704
  206CB      R3  618   2.498   1.975   2.366  0.1222 -0.0537  0.1157
  207CB      Cl  619   3.375   0.133   0.110  0.0935 -0.1147 -0.3107
  207CB      R2  620   3.694   0.053   0.133  0.0859 -0.1034 -0.1522
  207CB      R3  621   3.610   0.226   0.322 -0.0524 -0.2326 -0.0937
  208CB      Cl  622   4.262   2.900   2.202  0.0704 -0.1865  0.0274
  208CB      R2  623   4.204   2.610   2.349  0.0027 -0.0426  0.2904
  208CB      R3  624   4.209   2.821   2.518  0.5425  0.0527  0.1758
  209CB      Cl  625   0.244   4.582   3.258  0.0966 -0.4438 -0.2237
  209CB      R2  626   0.528   4.453   3.367  0.0573 -0.4026 -0.0694
  209CB      R3  627   0.557   4.633   3.167  0.1691 -0.1605  0.1583
  210CB      Cl  628   3.915   4.482   2.705 -0.1991  0.0205 -0.1228
  210CB      R2  629   3.637   4.306   2.683 -0.3711  0.2835 -0.1066
  210CB      R3  630   3.758   4.291   2.924 -0.1483 -0.1514 -0.2351
  211CB      Cl  631   3.357   2.125   3.134  0.2412 -0.6168  0.3197
  211CB      R2  632   3.660   1.993   3.135  0.4023 -0.2798 -0.1737
  211CB      R3  633   3.650   2.247   3.045 -0.0259 -0.2727 -0.1287
  212CB      Cl  634   0.048   3.946   0.432  0.0055 -0.0120 -0.0744
  212CB      R2  635  -0.083   4.136   0.196  0.1329  0.1580 -0.0102
  212CB      R3  636  -0.237   4.112   0.416  0.0718  0.1044 -0.0585
  213CB      Cl  637   2.386   2.774   3.290 -0.1014  0.1018 -0.0060
  213CB      R2  638   2.595   2.527   3.358 -0.2674 -0.0729 -0.1206
  213CB      R3  639   2.347   2.492   3.458 -0.2990  0.0358 -0.1594
  214CB      Cl  640   3.424   0.097   3.901 -0.0721  0.0286 -0.0218
  214CB      R2  641   3.730   0.002   3.821 -0.0757 -0.0095  0.0093
  214CB      R3  642   3.542  -0.189   3.786 -0.0466 -0.0983  0.3072
  215CB      Cl  643   4.956   0.448   4.819 -0.0060  0.1088  0.1545
  215CB      R2  644   5.081   0.221   4.614 -0.1078 -0.1002  0.3200
  215CB      R3  645   4.838   0.314   4.541  0.0304  0.1222  0.1325
  216CB      Cl  646   0.248   0.361   2.585  0.0867  0.1689  0.2966
  216CB      R2  647   0.576   0.329   2.602  0.0844  0.0867  0.1983
  216CB      R3  648   0.464   0.436   2.823  0.1556 -0.0714  0.3130
  217CB      Cl  649   1.983   4.389   3.405 -0.0472  0.0046 -0.0656
  217CB      R2  650   2.255   4.516   3.270  0.2050 -0.3017  0.1399
  217CB      R3  651   2.125   4.686   3.435  0.0882 -0.0451 -0.2044
  218CB      Cl  652   4.797   4.288   0.851 -0.2309 -0.0923  0.0103
  218CB      R2  653   4.684   4.339   1.157 -0.2405 -0.2063  0.0259
  218CB      R3  654   4.713   4.564   1.012 -0.1302 -0.1400  0.1475
  219CB      Cl  655   4.721   3.175   2.059 -0.1526  0.1563 -0.0953
  219CB      R2  656   4.430   3.296   1.959 -0.1043  0.1388 -0.2597
  219CB      R3  657   4.602   3.483   2.052 -0.3254  0.1030  0.2551
  220CB      Cl  658   0.166   1.977   2.533 -0.2576  0.0502  0.0670
  220CB      R2  659   0.198   1.750   2.297  0.1240  0.0341  0.1292
  220CB      R3  660   0.175   2.002   2.204 -0.0829 -0.0061  0.0667
  221CB      Cl  661   3.424   2.186   1.676  0.0648  0.0474 -0.1281
  221CB      R2  662   3.603   1.930   1.784  0.0423  0.1071  0.0547
  221CB      R3  663   3.436   1.870   1.580 -0.1059 -0.0721  0.2244
  222CB      Cl  664   2.206   1.768   3.041  0.0823  0.0925  0.2952
  222CB      R2  665   2.438   1.935   2.877 -0.0721  0.0768  0.0561
  222CB      R3  666   2.187   1.983   2.792 -0.1578  0.0892  0.3085
  223CB      Cl  667   2.225   4.411   4.525  0.3019  0.0146 -0.1104
  223CB      R2  668   2.215   4.099   4.634  0.1898  0.0364 -0.0569
  223CB      R3  669   2.097   4.278   4.799 -0.2385  0.0314 -0.3420
  224CB      Cl  670   2.860   2.817   0.473 -0.2887 -0.1026 -0.0358
  224CB      R2  671   2.852   2.868   0.799  0.0044 -0.3128  0.0087
  224CB      R3  672   2.670   3.012   0.660  0.1305  0.0692  0.2247
  225CB      Cl  673   4.091   0.548   4.545 -0.1318 -0.0350  0.1163
  225CB      R2  674   4.148   0.857   4.643 -0.1235 -0.1069  0.3437
  225CB      R3  675   4.177   0.673   4.838 -0.0092 -0.2644  0.1806
  226CB      Cl  676   4.080   4.108   2.300  0.0081 -0.4799 -0.1082
  226CB      R2  677   4.403   4.079   2.238  0.0817  0.2283 -0.1349
  226CB      R3  678   4.246   4.038   2.023  0.1400 -0.1881 -0.1066
  227CB      Cl  679   2.751   4.455   2.805 -0.6145  0.0658  0.0299
  227CB      R2  680   2.820   4.143   2.722 -0.1423  0.1874 -0.0615
  227CB      R3  681   2.703   4.287   2.525  0.2412  0.2478 -0.2557
  228CB      Cl  682   3.027   1.557   1.724  0.2916  0.1365 -0.1765
  228CB      R2  683   3.182   1.714   1.969  0.1048 -0.2143  0.1777
  228CB      R3  684   2.924   1.654   2.022 -0.0291 -0.0298 -0.2280
  229CB      Cl  685   2.030   1.379   3.224  0.0859  0.0172  0.0323
  229CB      R2  686   1.753   1.366   3.402 -0.1911  0.4689 -0.3413
  229CB      R3  687   1.947   1.519   3.511 -0.1974  0.3953 -0.2243
  230CB      Cl  688   2.200   3.932   3.063  0.0784 -0.1439  0.3143
  230CB      R2  689   2.530   3.921   3.070  0.0961  0.0795  0.0315
  230CB      R3  690   2.429   4.166   3.017 -0.1138 -0.0082  0.0186
  231CB      Cl  691   4.258   4.283   3.420 -0.0503  0.3303  0.0796
  231CB      R2  692   4.154   4.177   3.125  0.2259  0.4619 -0.0690
  231CB      R3  693   4.305   3.998   3.260 -0.2838  0.2184  0.2058
  232CB      Cl  694   4.360   2.551   0.697  0.0365 -0.2275 -0.1248
  232CB      R2  695   4.651   2.504   0.548  0.0784  0.1042 -0.1551
  232CB      R3  696   4.637   2.730   0.695 -0.0793 -0.0424  0.0617
  233CB      Cl  697   0.761   2.346   1.898 -0.1035  0.3021  0.1278
  233CB      R2  698   0.449   2.258   1.957 -0.0810  0.1003 -0.0451
  233CB      R3  699   0.499   2.320   1.699  0.0362  0.0696 -0.0303
  234CB      Cl  700   0.863   4.842   0.711  0.0579  0.0104 -0.1055
  234CB      R2  701   0.828   4.668   0.989  0.0480  0.0679 -0.0705
  234CB      R3  702   0.830   4.935   1.026  0.3693  0.0718 -0.0883
  235CB      Cl  703   0.428   3.371   0.559 -0.1446  0.1808 -0.1509
  235CB      R2  704   0.590   3.574   0.763 -0.1415 -0.1911  0.2326
  235CB      R3  705   0.348   3.665   0.685  0.2249  0.3708 -0.3454
  236CB      Cl  706   1.903   2.753   2.133  0.4618  0.1763  0.1259
  236CB      R2  707   1.876   2.702   2.457  0.1419  0.0155  0.0783
  236CB      R3  708   1.973   2.491   2.320  0.2641  0.0786  0.0659
  237CB      Cl  709   1.321   0.265   2.618 -0.0608  0.1775 -0.0823
  237CB      R2  710   1.175   0.367   2.896 -0.1716  0.1440 -0.1276
  237CB      R3  711   1.016   0.218   2.736 -0.0331 -0.0437 -0.0942
  238CB      Cl  712   3.097   3.579   0.090 -0.3642  0.2670 -0.2800
  238CB      R2  713   3.116   3.893   0.190  0.1468  0.1339  0.0803
  238CB      R3  714   2.898   3.761   0.280 -0.0971  0.3918 -0.1137
  239CB      Cl  715   2.397   2.878   2.568 -0.2223 -0.0375  0.1264
  239CB      R2  716   2.569   2.631   2.434 -0.0951  0.1585 -0.0783
  239CB      R3  717   2.542   2.846   2.273 -0.1823  0.2881  0.1072
  240CB      Cl  718   1.407   2.928   3.613  0.0838 -0.2021  0.2706
  240CB      R2  719   1.116   2.853   3.749 -0.0642  0.0983  0.1283
  240CB      R3  720   1.099   2.946   3.496  0.2050 -0.4357 -0.1011
  241CB      Cl  721   1.548   1.761   3.912  0.1275 -0.4630 -0.2077
  241CB      R2  722   1.343   1.834   3.664 -0.0152 -0.0128  0.0317
  241CB      R3  723   1.257   1.634   3.823 -0.0593 -0.1120 -0.1145
  242CB      Cl  724   0.995   0.947   0.334  0.2583 -0.0794 -0.0686
  242CB      R2  725   0.870   0.826   0.053  0.1840 -0.1287 -0.0149
  242CB      R3  726   0.996   0.642   0.206  0.2874 -0.0874 -0.0494
  243CB      Cl  727   1.161   3.765   1.937  0.1501  0.4092  0.2063
  243CB      R2  728   1.272   3.521   2.130 -0.1419 -0.0819 -0.2191
  243CB      R3  729   1.462   3.635   1.975  0.0573  0.1891  0.2051
  244CB      Cl  730   3.047   1.945   3.557 -0.2860 -0.0381 -0.0743
  244CB      R2  731   3.081   2.263   3.474 -0.0067 -0.0854 -0.1506
  244CB      R3  732   2.844   2.155   3.403 -0.2299  0.1865  0.1508
  245CB      Cl  733   3.138   4.228   3.309 -0.0021  0.0771  0.3808
  245CB      R2  734   3.074   3.995   3.533 -0.2295 -0.1000  0.1371
  245CB      R3  735   2.900   4.001   3.326  0.0646 -0.0424 -0.1161
  246CB      Cl  736   3.492   0.839   3.667  0.0342 -0.0542  0.2196
  246CB      R2  737   3.462   0.544   3.810  0.3663 -0.0433  0.3222
  246CB      R3  738   3.279   0.725   3.891  0.1685 -0.2149  0.2680
  247CB      Cl  739   4.832   0.590   0.167  0.4667 -0.1827  0.2140
  247CB      R2  740   4.967   0.728   0.435  0.2981  0.0549  0.1795
  247CB      R3  741   5.042   0.843   0.202 -0.0605  0.2792  0.1678
  248CB      Cl  742   2.166   1.112   1.865 -0.0236 -0.0047 -0.1981
  248CB      R2  743   2.475   1.002   1.902 -0.0873 -0.1679 -0.1417
  248CB      R3  744   2.318   0.843   1.751 -0.2410 -0.2702  0.1179
  249CB      Cl  745   4.725   4.945   4.921  0.2201  0.2521 -0.0197
  249CB      R2  746   4.434   4.872   4.782  0.1254  0.4431  0.0743
  249CB      R3  747   4.617   4.972   4.610  0.2422  0.0415 -0.0475
  250CB      Cl  748   3.356   3.001   1.110 -0.1393  0.1004  0.3093
  250CB      R2  749   3.193   2.714   1.113  0.1394 -0.0745 -0.1901
  250CB      R3  750   3.282   2.788   0.869 -0.0318  0.5026 -0.0919
  251CB      Cl  751   4.381   1.827   3.255  0.2972 -0.3028 -0.4500
  251CB      R2  752   4.473   1.695   3.543 -0.1457  0.0740 -0.1210
  251CB      R3  753   4.504   1.962   3.529 -0.0001  0.0442 -0.4800
  252CB      Cl  754   1.628   3.337   3.467 -0.0716 -0.0246 -0.1031
  252CB      R2  755   1.303   3.371   3.422 -0.0899 -0.2058 -0.1169
  252CB      R3  756   1.453   3.559   3.298 -0.2052  0.1067  0.1997
  253CB      Cl  757   0.840   3.338   2.232  0.1809  0.2395 -0.1757
  253CB      R2  758   0.758   3.416   2.542 -0.0719  0.3489 -0.2677
  253CB      R3  759   1.024   3.399   2.500 -0.0377  0.1880 -0.0108
  254CB      Cl  760   3.692   0.639   4.736  0.3459  0.2525  0.0268
  254CB      R2  761   3.829   0.493   4.998 -0.0296 -0.0222  0.0790
  254CB      R3  762   3.713   0.322   4.824  0.1286  0.1654 -0.2199
  255CB      Cl  763   3.720   1.867   0.029 -0.0157  0.2574  0.3910
  255CB      R2  764   3.499   1.719  -0.166  0.2410 -0.2573  0.4754
  255CB      R3  765   3.390   1.878   0.023 -0.0162  0.1732 -0.0089
  256CB      Cl  766   1.435   4.232   2.421  0.0789  0.3446 -0.0250
  256CB      R2  767   1.583   3.957   2.315 -0.0421  0.1693  0.2478
  256CB      R3  768   1.744   4.174   2.323  0.0943  0.0721  0.1745
  257CB      Cl  769   2.988   4.602   0.847  0.1444 -0.0323 -0.1343
  257CB      R2  770   2.853   4.590   0.546  0.1756  0.1895 -0.1589
  257CB      R3  771   3.065   4.426   0.579 -0.0131 -0.0606 -0.1622
  258CB      Cl  772   3.415   3.552   0.418 -0.0803 -0.0678 -0.0650
  258CB      R2  773   3.461   3.835   0.582  0.1680 -0.1458  0.0031
  258CB      R3  774   3.627   3.801   0.372 -0.0683 -0.1014 -0.1941
  259CB      Cl  775   3.460   4.046   1.923 -0.0664 -0.0184 -0.0630
  259CB      R2  776   3.661   3.921   1.693  0.0081 -0.1847  0.0900
  259CB      R3  777   3.770   3.933   1.940  0.0389  0.2779  0.0627
  260CB      Cl  778   4.437   0.085   1.409 -0.2153  0.0401 -0.1078
  260CB      R2  779   4.267   0.107   1.691 -0.0419 -0.0993  0.0098
  260CB      R3  780   4.294  -0.145   1.597 -0.0616 -0.0580 -0.1083
  261CB      Cl  781   0.580   0.964   0.601 -0.1405  0.3692  0.0861
  261CB      R2  782   0.371   1.030   0.355  0.0970  0.1816 -0.1717
  261CB      R3  783   0.397   0.767   0.411 -0.2081  0.2369  0.2848
  262CB      Cl  784   3.398   2.013   1.187  0.0865 -0.0007  0.1462
  262CB      R2  785   3.387   2.298   1.019 -0.1006  0.0010  0.1594
  262CB      R3  786   3.480   2.322   1.272 -0.0545  0.0391  0.1391
  263CB      Cl  787   0.144   4.826   5.030 -0.0497  0.1274  0.3278
  263CB      R2  788   0.083   4.540   5.183 -0.0584 -0.2374 -0.3208
  263CB      R3  789   0.335   4.631   5.215 -0.0582 -0.3100 -0.1031
  264CB      Cl  790   2.388   4.678   4.979 -0.0144 -0.0201  0.1443
  264CB      R2  791   2.133   4.883   4.943  0.1159  0.1688  0.2780
  264CB      R3  792   2.073   4.655   5.073 -0.0979 -0.0164 -0.1258
  265CB      Cl  793   3.081   4.134   4.535 -0.2257  0.1866 -0.1963
  265CB      R2  794   3.062   4.177   4.862 -0.3278 -0.2019 -0.1469
  265CB      R3  795   3.174   4.384   4.730 -0.1533 -0.1022  0.1492
  266CB      Cl  796   0.193   0.612   4.565 -0.1599  0.1609  0.2579
  266CB      R2  797   0.491   0.537   4.444 -0.2574 -0.0145  0.1223
  266CB      R3  798   0.287   0.492   4.273 -0.3554  0.1880  0.1823
  267CB      Cl  799   3.183   1.928   4.020 -0.2586  0.3197 -0.0299
  267CB      R2  800   3.320   2.212   3.924 -0.1164  0.3061  0.1274
  267CB      R3  801   3.093   2.242   4.068 -0.0721  0.3424  0.1903
  268CB      Cl  802   0.495   0.487   3.808  0.2728  0.0334  0.2251
  268CB      R2  803   0.640   0.312   4.048  0.1421 -0.0948  0.2125
  268CB      R3  804   0.484   0.166   3.884 -0.0653  0.0524  0.2735
  269CB      Cl  805   4.349   3.262   2.476  0.2520 -0.3612  0.4605
  269CB      R2  806   4.477   3.565   2.507  0.0519 -0.2224  0.0137
  269CB      R3  807   4.661   3.369   2.482  0.1859 -0.0672 -0.2610
  270CB      Cl  808   4.168   3.546   4.781  0.1039  0.1786 -0.0666
  270CB      R2  809   4.052   3.847   4.712 -0.1095  0.1040 -0.0414
  270CB      R3  810   3.999   3.662   4.522  0.0401  0.0859 -0.0670
  271CB      Cl  811   4.436   1.229   3.607  0.0257  0.0412 -0.1306
  271CB      R2  812   4.753   1.162   3.667  0.0147  0.1905  0.1081
  271CB      R3  813   4.635   0.990   3.496  0.2414  0.1746 -0.0380
  272CB      Cl  814   3.763   3.521   0.799 -0.1444  0.4130 -0.0043
  272CB      R2  815   4.044   3.694   0.793  0.1878 -0.1041  0.0621
  272CB      R3  816   3.986   3.570   0.560  0.0043  0.0128  0.0442
  273CB      Cl  817   1.248   3.162   5.037 -0.0243 -0.0850  0.0142
  273CB      R2  818   1.319   2.913   4.833 -0.0971 -0.1334  0.0472
  273CB      R3  819   1.233   2.835   5.076 -0.1632 -0.0759  0.0425
  274CB      Cl  820   2.259   2.930   4.908 -0.0466 -0.0851  0.0157
  274CB      R2  821   2.554   3.056   4.987  0.1199 -0.3134 -0.2256
  274CB      R3  822   2.459   2.877   5.165  0.0051 -0.0517 -0.0174
  275CB      Cl  823   0.559   2.068   0.352  0.3169  0.1913 -0.5297
  275CB      R2  824   0.465   2.382   0.389  0.1159  0.0890 -0.1228
  275CB      R3  825   0.732   2.348   0.376  0.1543  0.2483  0.1712
  276CB      Cl  826   1.469   4.115   1.961 -0.0710 -0.1828 -0.6283
  276CB      R2  827   1.744   3.995   1.823  0.2906  0.0850 -0.1697
  276CB      R3  828   1.653   4.222   1.709  0.6001  0.3171  0.0304
  277CB      Cl  829   3.455   1.726   3.461 -0.2147  0.2947  0.0755
  277CB      R2  830   3.398   1.564   3.743 -0.0958  0.1963  0.0439
  277CB      R3  831   3.442   1.403   3.530  0.0561  0.2693  0.0189
  278CB      Cl  832   4.722   0.708   0.858  0.0635 -0.2619 -0.1758
  278CB      R2  833   4.466   0.673   0.652 -0.0085  0.0124 -0.1364
  278CB      R3  834   4.406   0.629   0.911  0.1024 -0.4215 -0.1776
  279CB      Cl  835   4.522   3.479   0.666 -0.1564 -0.1654  0.0090
  279CB      R2  836   4.738   3.641   0.476  0.0539 -0.1443  0.2597
  279CB      R3  837   4.480   3.711   0.435  0.0985 -0.1163  0.0091
  280CB      Cl  838   3.995   0.810   0.629  0.0849 -0.0531 -0.1116
  280CB      R2  839   4.136   0.600   0.417 -0.0162 -0.1233 -0.1105
  280CB      R3  840   3.879   0.542   0.474  0.0132 -0.1109  0.0395
  281CB      Cl  841   0.351   0.076   2.276  0.0488  0.0785  0.0882
  281CB      R2  842   0.282  -0.242   2.329 -0.2591  0.0930 -0.1946
  281CB      R3  843   0.163  -0.073   2.503 -0.0340  0.0528  0.0033
  282CB      Cl  844   1.800   1.140   5.041 -0.0184  0.0291  0.1633
  282CB      R2  845   1.998   1.171   5.303 -0.2500 -0.1742  0.3672
  282CB      R3  846   1.994   0.923   5.196  0.0865 -0.0195 -0.0322
  283CB      Cl  847   0.027   0.203   2.015  0.0561 -0.0906  0.0769
  283CB      R2  848   0.158   0.492   2.105 -0.3058  0.0472  0.1801
  283CB      R3  849  -0.001   0.506   1.888 -0.2987 -0.0810  0.1660
  284CB      Cl  850   4.349   1.526   3.985 -0.0604 -0.0204 -0.1506
  284CB      R2  851   4.244   1.831   3.916 -0.0810 -0.0273 -0.1495
  284CB      R3  852   4.248   1.773   4.179 -0.0913 -0.0331 -0.1506
  285CB      Cl  853   1.212   0.480   0.635  0.0604  0.0754 -0.0171
  285CB      R2  854   1.027   0.573   0.892 -0.0947 -0.0362 -0.0870
  285CB      R3  855   0.966   0.699   0.661 -0.0282 -0.0140 -0.0924
  286CB      Cl  856   3.093   0.919   4.259 -0.4997 -0.3052  0.4296
  286CB      R2  857   3.273   0.924   4.535  0.3142  0.1405 -0.0698
  286CB      R3  858   3.245   1.165   4.417 -0.1194 -0.0240 -0.3246
  287CB      Cl  859   0.635   1.528   3.806 -0.2434  0.0536  0.3264
  287CB      R2  860   0.791   1.668   4.061 -0.1808  0.0780  0.2750
  287CB      R3  861   0.738   1.838   3.858 -0.1173  0.0310  0.2184
  288CB      Cl  862   1.353   4.429   1.262 -0.1538  0.0159 -0.0114
  288CB      R2  863   1.677   4.481   1.297 -0.1272 -0.2576  0.1902
  288CB      R3  864   1.522   4.635   1.457 -0.1265  0.1870 -0.2130
  289CB      Cl  865   0.910   1.590   4.623  0.2194  0.1825 -0.3423
  289CB      R2  866   1.222   1.500   4.684  0.1825 -0.1331 -0.5927
  289CB      R3  867   1.036   1.346   4.805  0.1157  0.2808 -0.1351
  290CB      Cl  868   2.540   1.595   4.314  0.0761 -0.1411 -0.2222
  290CB      R2  869   2.804   1.661   4.500 -0.0365 -0.0895 -0.0788
  290CB      R3  870   2.842   1.703   4.236  0.0211  0.1619 -0.0332
  291CB      Cl  871   4.567   0.045   0.244  0.0404 -0.1329 -0.1033
  291CB      R2  872   4.501   0.364   0.298 -0.4160 -0.2277 -0.0596
  291CB      R3  873   4.661   0.250   0.484  0.0240  0.0502 -0.2506
  292CB      Cl  874   4.224   0.818   2.335 -0.0534  0.0391  0.0694
  292CB      R2  875   4.058   0.884   2.613  0.2113  0.3010  0.1698
  292CB      R3  876   4.327   0.875   2.643  0.2318  0.1242 -0.0384
  293CB      Cl  877   2.188   2.426   4.047 -0.0217  0.2283 -0.0734
  293CB      R2  878   2.252   2.301   4.346 -0.0161  0.2433 -0.0683
  293CB      R3  879   2.063   2.494   4.345 -0.0242  0.2354 -0.0760
  294CB      Cl  880   0.248   2.807   0.512 -0.1060 -0.1805  0.0412
  294CB      R2  881   0.044   2.552   0.555 -0.0525 -0.3156 -0.4405
  294CB      R3  882  -0.069   2.762   0.430 -0.1668  0.0081  0.1667
  295CB      Cl  883   2.243   2.489   2.734 -0.0785 -0.1433  0.0444
  295CB      R2  884   2.520   2.591   2.881 -0.1679  0.0499  0.0818
  295CB      R3  885   2.377   2.413   3.025 -0.0525 -0.0677  0.0523
  296CB      Cl  886   4.966   0.140   0.138 -0.0532  0.1101  0.0031
  296CB      R2  887   5.116   0.323   0.368 -0.1330 -0.1102  0.2353
  296CB      R3  888   5.273   0.132   0.259 -0.0177  0.1558 -0.0831
  297CB      Cl  889   0.701   4.787   3.700  0.1367 -0.0695  0.0539
  297CB      R2  890   0.776   4.858   4.014  0.2369 -0.0343  0.0223
  297CB      R3  891   0.911   5.005   3.832  0.1519 -0.0288 -0.0371
  298CB      Cl  892   2.280   4.974   1.659 -0.2320  0.0542 -0.0328
  298CB      R2  893   2.596   4.973   1.565 -0.1791 -0.2385  0.1340
  298CB      R3  894   2.425   4.886   1.376 -0.1354 -0.2867  0.1162
  299CB      Cl  895   2.135   3.632   1.025 -0.0008  0.0975  0.2908
  299CB      R2  896   2.336   3.700   0.772 -0.2131  0.0349  0.1023
  299CB      R3  897   2.287   3.910   0.933 -0.1978  0.1152  0.0033
  300CB      Cl  898   0.646   0.296   3.194  0.5029  0.2967 -0.1616
  300CB      R2  899   0.753   0.487   3.441 -0.2129  0.3998  0.0928
  300CB      R3  900   0.725   0.226   3.507  0.0326  0.3404 -0.0253
  301CB      Cl  901   4.514   2.103   4.885 -0.0330 -0.1406 -0.2458
  301CB      R2  902   4.331   2.377   4.875 -0.2180 -0.2618 -0.2352
  301CB      R3  903   4.573   2.401   4.758 -0.0322  0.0508  0.1859
  302CB      Cl  904   1.510   4.132   0.993  0.0253 -0.1253  0.4727
  302CB      R2  905   1.470   3.848   0.831 -0.0799  0.1877 -0.0763
  302CB      R3  906   1.704   3.867   0.964  0.0746 -0.0280 -0.3081
  303CB      Cl  907   3.811   3.550   3.517 -0.0490 -0.1801 -0.0643
  303CB      R2  908   4.074   3.592   3.321 -0.0229  0.0363  0.0144
  303CB      R3  909   3.841   3.677   3.214 -0.0863 -0.2857 -0.1125
  304CB      Cl  910   3.549   1.166   4.112  0.1385 -0.1752 -0.0078
  304CB      R2  911   3.720   0.965   4.310  0.3111 -0.0502 -0.0275
  304CB      R3  912   3.742   0.906   4.047 -0.0109 -0.2875 -0.0076
  305CB      Cl  913   5.017   1.237   1.665 -0.1715  0.0345 -0.1420
  305CB      R2  914   5.257   1.284   1.443 -0.0028  0.2238  0.0757
  305CB      R3  915   5.302   1.080   1.614 -0.0691  0.1635  0.0216
  306CB      Cl  916   1.701   0.595   0.703 -0.3087  0.3714  0.1171
  306CB      R2  917   1.967   0.780   0.638 -0.0078  0.0013  0.2573
  306CB      R3  918   2.002   0.603   0.839 -0.2888 -0.2057  0.1301
  307CB      Cl  919   4.035   5.037   3.124 -0.2369 -0.0736 -0.0843
  307CB      R2  920   4.222   4.832   2.946 -0.2019  0.2456 -0.4298
  307CB      R3  921   4.244   5.091   2.874  0.0897  0.4424  0.2808
  308CB      Cl  922   2.752   1.392   2.795 -0.6729  0.0878  0.1046
  308CB      R2  923   2.807   1.562   2.518  0.0770 -0.1942  0.0577
  308CB      R3  924   2.861   1.699   2.744  0.0478 -0.1590  0.0434
  309CB      Cl  925   1.954   3.452   0.625  0.2211  0.0378  0.1717
  309CB      R2  926   1.927   3.711   0.422  0.0800  0.0205  0.1674
  309CB      R3  927   1.989   3.479   0.298 -0.2171 -0.0338  0.1132
  310CB      Cl  928   0.276   3.837   1.892 -0.0071 -0.1498 -0.2037
  310CB      R2  929   0.357   3.982   1.607  0.1789  0.0118 -0.0722
  310CB      R3  930   0.235   3.743   1.579  0.2955 -0.0251 -0.2848
  311CB      Cl  931   4.850   3.831   2.013 -0.0697 -0.0370 -0.1234
  311CB      R2  932   4.910   3.724   2.320  0.0704  0.1028 -0.1010
  311CB      R3  933   5.051   3.596   2.129  0.2035  0.2128 -0.0785
  312CB      Cl  934   4.258   2.219   0.363 -0.2151  0.3133  0.0629
  312CB      R2  935   4.009   2.220   0.147 -0.0143 -0.1321 -0.1852
  312CB      R3  936   4.106   1.974   0.202  0.2239  0.0155  0.0813
  313CB      Cl  937   2.167   1.321   2.474 -0.2610  0.0321 -0.0129
  313CB      R2  938   2.307   1.399   2.762  0.3526 -0.2662 -0.2124
  313CB      R3  939   2.317   1.596   2.577 -0.1340 -0.0367 -0.0122
  314CB      Cl  940   3.403   2.118   0.418  0.2189  0.1749 -0.5019
  314CB      R2  941   3.560   2.337   0.227  0.0214  0.4185 -0.3901
  314CB      R3  942   3.297   2.308   0.171  0.0890  0.0471 -0.5462
  315CB      Cl  943   4.976   1.674   1.863 -0.0594 -0.1869 -0.1086
  315CB      R2  944   4.817   1.845   2.097 -0.0448 -0.1980 -0.0906
  315CB      R3  945   4.654   1.723   1.920 -0.0618 -0.3582  0.0329
  316CB      Cl  946   4.368   2.490   2.820  0.1789  0.1386  0.0232
  316CB      R2  947   4.357   2.705   3.070 -0.0223 -0.0786  0.2059
  316CB      R3  948   4.119   2.593   3.010 -0.0222  0.1348 -0.2332
  317CB      Cl  949   0.853   2.373   2.726 -0.0160  0.1605 -0.2608
  317CB      R2  950   1.130   2.210   2.802 -0.0787  0.0664 -0.2325
  317CB      R3  951   0.916   2.051   2.761 -0.2234  0.1558  0.1313
  318CB      Cl  952   4.284   1.930   1.108  0.2278 -0.0031 -0.0823
  318CB      R2  953   4.467   1.655   1.111  0.0845 -0.0995 -0.0495
  318CB      R3  954   4.226   1.626   0.993  0.0087 -0.0275  0.0845
  319CB      Cl  955   1.283   1.196   3.295  0.1936  0.0639 -0.0967
  319CB      R2  956   1.242   1.475   3.125  0.2083  0.0564 -0.1126
  319CB      R3  957   1.381   1.505   3.355  0.0808  0.0887 -0.0386
  320CB      Cl  958   3.695   2.945   0.173  0.1051  0.1205  0.5638
  320CB      R2  959   4.020   2.933   0.229  0.2434  0.2349 -0.1288
  320CB      R3  960   3.914   2.700   0.143  0.1475  0.2116  0.0478
  321CB      Cl  961   3.610   4.434   2.143  0.0286 -0.0720  0.2052
  321CB      R2  962   3.631   4.622   1.872  0.2182  0.0129  0.2771
  321CB      R3  963   3.736   4.376   1.843 -0.1060 -0.1170  0.1565
  322CB      Cl  964   4.754   4.250   3.254 -0.1034  0.1401 -0.1981
  322CB      R2  965   4.842   4.235   3.571 -0.0122  0.1629 -0.2221
  322CB      R3  966   4.694   4.026   3.488  0.1785  0.0275 -0.2291
  323CB      Cl  967   4.542   4.914   1.960 -0.2691 -0.1080  0.0914
  323CB      R2  968   4.726   4.643   1.924  0.0706  0.1460 -0.1546
  323CB      R3  969   4.868   4.867   1.975 -0.1751  0.3405 -0.3024
  324CB      Cl  970   3.179   1.394   2.877  0.0243  0.0188 -0.1644
  324CB      R2  971   3.424   1.513   3.063 -0.1485 -0.1341  0.1701
  324CB      R3  972   3.260   1.702   2.962  0.3471  0.0120 -0.4256
  325CB      Cl  973   0.848   1.043   3.651  0.1080 -0.1449 -0.0937
  325CB      R2  974   0.968   1.223   3.900 -0.0476 -0.0541 -0.0830
  325CB      R3  975   1.156   1.130   3.729  0.0465  0.0002 -0.0097
  326CB      Cl  976   1.053   3.698   2.821  0.0616 -0.1419 -0.0347
  326CB      R2  977   1.159   3.451   3.011 -0.2257 -0.1426  0.1298
  326CB      R3  978   0.891   3.477   3.004 -0.2062  0.0250 -0.0652
  327CB      Cl  979   0.217   2.201   3.609  0.0078  0.1575 -0.2338
  327CB      R2  980   0.543   2.153   3.600  0.0129  0.0547  0.2181
  327CB      R3  981   0.398   1.927   3.575 -0.0213  0.0805  0.1800
  328CB      Cl  982   0.708   1.194   1.452  0.0148 -0.2364  0.1237
  328CB      R2  983   0.704   0.936   1.657  0.3676 -0.2877  0.0719
  328CB      R3  984   0.774   0.875   1.403  0.2248 -0.1768  0.0044
  329CB      Cl  985   4.844   3.386   4.577 -0.0003  0.0246  0.0626
  329CB      R2  986   4.560   3.248   4.481 -0.0752  0.3187 -0.1557
  329CB      R3  987   4.779   3.150   4.356 -0.0647  0.0243  0.0817
  330CB      Cl  988   1.380   0.126   3.900 -0.4262  0.0672 -0.3345
  330CB      R2  989   1.380   0.398   4.087 -0.1220 -0.1770  0.0368
  330CB      R3  990   1.345   0.446   3.824  0.3029  0.2617  0.0446
  331CB      Cl  991   1.188   0.793   4.083  0.1201 -0.0293  0.4020
  331CB      R2  992   0.863   0.818   4.130  0.1087  0.1304  0.2473
  331CB      R3  993   0.932   0.663   3.920  0.1221  0.3004  0.1237
  332CB      Cl  994   2.994   0.679   1.907  0.0303 -0.3557  0.0225
  332CB      R2  995   3.129   0.928   2.076  0.1994 -0.1443 -0.4088
  332CB      R3  996   2.860   0.915   2.095  0.2244 -0.2092 -0.0201
  333CB      Cl  997   2.673   1.977   4.942  0.0562  0.0346  0.0154
  333CB      R2  998   2.984   1.933   4.840  0.0403  0.0643 -0.0469
  333CB      R3  999   2.936   2.176   4.948  0.0885 -0.0117  0.1497
  334CB      Cl 1000   1.252   4.431   4.776  0.0300  0.0194  0.1765
  334CB      R2 1001   1.468   4.396   5.023  0.2121 -0.0985  0.0034
  334CB      R3 1002   1.225   4.289   5.072  0.2680 -0.1800  0.1060
  335CB      Cl 1003   0.090   4.918   0.907 -0.0734  0.1196 -0.0850
  335CB      R2 1004   0.418   4.886   0.926 -0.0923  0.1143  0.3195
  335CB      R3 1005   0.335   5.050   0.729  0.1306 -0.1937 -0.0455
  336CB      Cl 1006   3.082   1.566   0.112  0.1879 -0.2433  0.3049
  336CB      R2 1007   2.866   1.441  -0.104  0.1570  0.3665 -0.0410
  336CB      R3 1008   2.908   1.286   0.114 -0.3596  0.0737 -0.1342
  337CB      Cl 1009   2.050   2.519   1.802  0.2752 -0.2937  0.0357
  337CB      R2 1010   2.307   2.726   1.795  0.1932 -0.1947 -0.0797
  337CB      R3 1011   2.301   2.564   2.011  0.2427 -0.0566  0.0266
  338CB      Cl 1012   3.571   1.342   0.571  0.1042  0.0019 -0.0129
  338CB      R2 1013   3.513   1.527   0.304 -0.0766 -0.0785 -0.0313
  338CB      R3 1014   3.715   1.350   0.274 -0.2626 -0.2658 -0.2056
  339CB      Cl 1015   4.488   2.211   1.414 -0.2175 -0.1483  0.0070
  339CB      R2 1016   4.317   2.050   1.646 -0.1069  0.0663  0.2416
  339CB      R3 1017   4.579   2.083   1.704  0.0069 -0.2014 -0.0849
  340CB      Cl 1018   4.879   2.239   3.339 -0.0760  0.0752  0.1438
  340CB      R2 1019   4.626   2.290   3.134  0.1248  0.0609 -0.1127
  340CB      R3 1020   4.624   2.448   3.353 -0.4211 -0.3361  0.1948
  341CB      Cl 1021   3.335   4.228   3.859 -0.1060  0.1423 -0.0893
  341CB      R2 1022   3.326   4.051   4.137  0.0531  0.0430 -0.1459
  341CB      R3 1023   3.420   4.302   4.169  0.1142  0.0166 -0.1178
  342CB      Cl 1024   0.876   4.481   2.589 -0.1809 -0.1349  0.1536
  342CB      R2 1025   0.822   4.742   2.783  0.2293  0.1431 -0.0912
  342CB      R3 1026   0.651   4.722   2.576 -0.0394 -0.0018  0.1381
  343CB      Cl 1027   2.622   5.012   0.051  0.0102 -0.0793 -0.0314
  343CB      R2 1028   2.847   5.221   0.171  0.1586 -0.1644 -0.1575
  343CB      R3 1029   2.856   4.974   0.279  0.0512 -0.1364 -0.0827
  344CB      Cl 1030   0.900   3.622   3.846  0.4266 -0.0792  0.1616
  344CB      R2 1031   1.084   3.712   3.587  0.1255  0.0874  0.0000
  344CB      R3 1032   0.833   3.810   3.583 -0.1015 -0.4614  0.0074
  345CB      Cl 1033   4.848   0.221   2.409 -0.0228  0.3514 -0.0436
  345CB      R2 1034   4.635   0.270   2.656  0.1841 -0.2653  0.2775
  345CB      R3 1035   4.880   0.191   2.736  0.3799 -0.0789 -0.1127
  346CB      Cl 1036   4.338   1.817   0.559 -0.0042  0.1480  0.1898
  346CB      R2 1037   4.607   1.854   0.747  0.1469  0.0785 -0.0097
  346CB      R3 1038   4.461   2.080   0.717  0.1875  0.1189  0.0910
  347CB      Cl 1039   4.786   1.489   0.436 -0.1369 -0.1323 -0.3045
  347CB      R2 1040   4.974   1.269   0.277  0.1270  0.1773 -0.4310
  347CB      R3 1041   4.950   1.507   0.150  0.0412  0.3041 -0.1839
  348CB      Cl 1042   1.894   1.414   2.077  0.0561 -0.0822  0.0791
  348CB      R2 1043   1.679   1.179   1.992 -0.0408  0.0729 -0.1126
  348CB      R3 1044   1.663   1.255   2.251 -0.2480  0.1138 -0.1354
  349CB      Cl 1045   4.635   1.089   0.022 -0.2552  0.0358 -0.2477
  349CB      R2 1046   4.459   0.840   0.148 -0.0656  0.0110 -0.0240
  349CB      R3 1047   4.557   1.010   0.333 -0.1146  0.2004 -0.1692
  350CB      Cl 1048   4.034   0.113   4.088 -0.1029 -0.1437  0.0868
  350CB      R2 1049   4.296   0.200   4.268 -0.0988 -0.0117  0.0178
  350CB      R3 1050   4.232  -0.062   4.286 -0.0259 -0.0233  0.1165
  351CB      Cl 1051   2.623   3.917   4.460 -0.0209  0.0416  0.0685
  351CB      R2 1052   2.439   3.822   4.203 -0.2322  0.2840  0.1261
  351CB      R3 1053   2.448   4.090   4.240  0.0854  0.2730  0.1617
  352CB      Cl 1054   0.994   4.446   3.673  0.6339  0.3870 -0.0576
  352CB      R2 1055   0.771   4.225   3.774  0.2834  0.5327 -0.4829
  352CB      R3 1056   1.020   4.181   3.868  0.1679  0.1108 -0.3522
  353CB      Cl 1057   3.562   4.734   0.345  0.0386 -0.0583 -0.1101
  353CB      R2 1058   3.235   4.771   0.344  0.0354 -0.0798 -0.0098
  353CB      R3 1059   3.344   4.767   0.590  0.0845 -0.3054 -0.0334
  354CB      Cl 1060   0.817   3.480   4.613  0.1478  0.3425  0.3273
  354CB      R2 1061   0.939   3.176   4.650 -0.0885  0.1981 -0.0293
  354CB      R3 1062   1.127   3.366   4.612  0.0655  0.1139  0.2803
  355CB      Cl 1063   0.750   2.566   4.491  0.1180  0.3302 -0.0198
  355CB      R2 1064   0.845   2.712   4.772  0.3682 -0.0465  0.0986
  355CB      R3 1065   1.046   2.597   4.634  0.2142 -0.0524 -0.1266
  356CB      Cl 1066   2.849   2.655   0.076 -0.0961 -0.5417  0.0227
  356CB      R2 1067   2.830   2.744  -0.242  0.0920 -0.0777  0.1325
  356CB      R3 1068   3.041   2.585  -0.184 -0.0806 -0.3687 -0.0140
  357CB      Cl 1069   2.207   3.460   4.046 -0.0398  0.0260 -0.0042
  357CB      R2 1070   2.019   3.447   3.776 -0.1420 -0.0683  0.0703
  357CB      R3 1071   2.141   3.685   3.814  0.0864 -0.1352 -0.2002
  358CB      Cl 1072   4.771   0.968   2.399 -0.3520  0.0081 -0.1397
  358CB      R2 1073   4.907   0.669   2.427 -0.1377  0.1287  0.1549
  358CB      R3 1074   4.642   0.665   2.376 -0.1180 -0.1097  0.0587
  359CB      Cl 1075   0.596   3.895   3.058  0.0985 -0.2552 -0.2861
  359CB      R2 1076   0.694   4.208   3.017  0.0730 -0.1638  0.2651
  359CB      R3 1077   0.479   4.139   2.869 -0.0317  0.1355  0.2708
  360CB      Cl 1078   0.079   1.816   3.251 -0.1129 -0.1473  0.1067
  360CB      R2 1079  -0.225   1.815   3.123  0.0030 -0.3748 -0.1778
  360CB      R3 1080  -0.041   1.936   2.968  0.0016  0.0660  0.1466
  361CB      Cl 1081   4.656   1.193   4.168  0.0831 -0.1116 -0.0220
  361CB      R2 1082   4.955   1.136   4.295 -0.0983 -0.3121  0.3307
  361CB      R3 1083   4.954   1.311   4.090  0.2162 -0.0340  0.5564
  362CB      Cl 1084   3.097   3.629   0.798  0.0326 -0.1429  0.0644
  362CB      R2 1085   2.902   3.414   0.640  0.1470 -0.1012 -0.1373
  362CB      R3 1086   3.064   3.301   0.825 -0.1606 -0.1197  0.1313
  363CB      Cl 1087   3.883   3.272   1.240  0.1301 -0.4190  0.3674
  363CB      R2 1088   3.710   3.287   1.521  0.2334 -0.0786  0.4169
  363CB      R3 1089   3.953   3.404   1.534  0.3307 -0.2557  0.2488
  364CB      Cl 1090   4.183   2.979   1.702 -0.0041 -0.1327  0.1208
  364CB      R2 1091   4.349   3.178   1.498  0.2262 -0.1496  0.2883
  364CB      R3 1092   4.221   2.975   1.374 -0.1300  0.1777  0.0989
  365CB      Cl 1093   3.350   2.610   1.617  0.5631 -0.1237 -0.0943
  365CB      R2 1094   3.505   2.884   1.519 -0.0211  0.1705 -0.2444
  365CB      R3 1095   3.240   2.915   1.557 -0.1026 -0.3814 -0.2748
  366CB      Cl 1096   4.267   4.241   0.872  0.4248  0.0354  0.0691
  366CB      R2 1097   4.404   4.009   1.062 -0.3568 -0.3980  0.1412
  366CB      R3 1098   4.399   3.948   0.799  0.0719 -0.1262  0.0611
  367CB      Cl 1099   1.828   4.933   0.707 -0.2358 -0.1376 -0.0986
  367CB      R2 1100   1.870   5.251   0.627  0.1388 -0.1945 -0.1467
  367CB      R3 1101   1.844   5.086   0.415 -0.3317 -0.1681 -0.1201
  368CB      Cl 1102   0.599   2.120   2.449 -0.2530 -0.3217 -0.1096
  368CB      R2 1103   0.630   1.896   2.209  0.3396 -0.3237 -0.0472
  368CB      R3 1104   0.647   1.794   2.458 -0.2468 -0.3181  0.0096
  369CB      Cl 1105   1.916   3.575   3.214 -0.1292  0.1618  0.3195
  369CB      R2 1106   2.084   3.299   3.281  0.0904  0.1551 -0.2086
  369CB      R3 1107   2.208   3.526   3.359  0.0331  0.1202 -0.0110
  370CB      Cl 1108   4.609   2.609   2.517 -0.2476  0.0366  0.1813
  370CB      R2 1109   4.728   2.910   2.452  0.0547 -0.1203 -0.0200
  370CB      R3 1110   4.703   2.753   2.235 -0.1401 -0.2290  0.0786
  371CB      Cl 1111   0.920   4.015   4.855 -0.1273 -0.3123 -0.4793
  371CB      R2 1112   0.941   3.947   5.177 -0.3872  0.2540 -0.3293
  371CB      R3 1113   0.885   3.733   5.022  0.2507 -0.1312 -0.0709
  372CB      Cl 1114   3.009   3.703   1.592 -0.0476  0.3740 -0.0591
  372CB      R2 1115   3.186   3.435   1.516 -0.5228  0.0071  0.0788
  372CB      R3 1116   3.331   3.663   1.527 -0.1471 -0.2008 -0.2561
  373CB      Cl 1117   1.213   2.436   0.176  0.1011  0.1472 -0.1085
  373CB      R2 1118   1.541   2.400   0.187  0.0672 -0.1494  0.0686
  373CB      R3 1119   1.445   2.590   0.353  0.1668  0.1036 -0.1563
  374CB      Cl 1120   2.609   4.321   4.796  0.2845 -0.0250  0.4677
  374CB      R2 1121   2.743   4.440   4.519 -0.4719 -0.3502 -0.0715
  374CB      R3 1122   2.734   4.618   4.722 -0.2920  0.0391 -0.3895
  375CB      Cl 1123   1.453   1.945   3.133  0.2058  0.1205 -0.2970
  375CB      R2 1124   1.729   1.773   3.189  0.0527  0.0434  0.2895
  375CB      R3 1125   1.680   1.966   3.372 -0.2638  0.0808  0.1708
  376CB      Cl 1126   2.468   3.691   4.830 -0.0285 -0.2492  0.4696
  376CB      R2 1127   2.726   3.873   4.927  0.1238 -0.0980 -0.1734
  376CB      R3 1128   2.787   3.617   4.870  0.0154 -0.2137  0.2016
  377CB      Cl 1129   2.925   1.038   0.525  0.3030 -0.2948 -0.0934
  377CB      R2 1130   3.074   1.311   0.636 -0.0634 -0.1440  0.0437
  377CB      R3 1131   2.865   1.229   0.787 -0.2345 -0.2453 -0.2386
  378CB      Cl 1132   1.470   0.135   0.803  0.3161 -0.0727  0.0042
  378CB      R2 1133   1.162   0.149   0.920  0.2942 -0.4267 -0.0021
  378CB      R3 1134   1.342   0.283   1.069  0.0990  0.0117 -0.1439
  379CB      Cl 1135   2.928   2.396   2.963  0.1848 -0.2408  0.1255
  379CB      R2 1136   2.769   2.184   2.767  0.0861  0.1225 -0.1991
  379CB      R3 1137   3.027   2.119   2.814  0.0940 -0.0023 -0.4006
  380CB      Cl 1138   2.168   1.420   0.936 -0.0830  0.1692 -0.1997
  380CB      R2 1139   1.998   1.173   0.798  0.1892  0.0445 -0.3191
  380CB      R3 1140   2.226   1.095   0.921  0.0908  0.1903 -0.0343
  381CB      Cl 1141   1.377   1.818   1.912  0.0017 -0.2491  0.2497
  381CB      R2 1142   1.446   1.503   1.842 -0.0092 -0.1471 -0.2586
  381CB      R3 1143   1.313   1.538   2.075  0.1281 -0.5001 -0.1201
  382CB      Cl 1144   1.630   2.357   4.550 -0.0108 -0.1190 -0.3587
  382CB      R2 1145   1.633   2.207   4.844  0.2701  0.0866 -0.2520
  382CB      R3 1146   1.463   2.416   4.828  0.2008  0.0300 -0.2606
  383CB      Cl 1147   2.234   0.186   3.254  0.2172 -0.0894 -0.1801
  383CB      R2 1148   2.198   0.482   3.113  0.1159  0.0744  0.1769
  383CB      R3 1149   2.062   0.453   3.344 -0.1273 -0.3608 -0.0090
  384CB      Cl 1150   4.505   0.452   3.406  0.1914 -0.1111 -0.0169
  384CB      R2 1151   4.758   0.500   3.613  0.1129 -0.1616  0.0917
  384CB      R3 1152   4.516   0.555   3.719  0.1029  0.2873 -0.1392
  385CB      Cl 1153   2.407   1.643   4.765  0.1688 -0.2516  0.2160
  385CB      R2 1154   2.177   1.492   4.946 -0.0670 -0.0888  0.0572
  385CB      R3 1155   2.160   1.761   4.949  0.1199 -0.0759  0.0404
  386CB      Cl 1156   2.034   3.349   4.876 -0.0843  0.1334 -0.0534
  386CB      R2 1157   1.760   3.209   4.996  0.1160  0.0271  0.2946
  386CB      R3 1158   1.723   3.457   4.896 -0.1825 -0.1446 -0.0416
  387CB      Cl 1159   2.531   2.559   0.411  0.2416  0.1565 -0.2256
  387CB      R2 1160   2.277   2.598   0.618  0.1073 -0.0926 -0.3392
  387CB      R3 1161   2.508   2.531   0.739  0.0286 -0.2408 -0.2678
  388CB      Cl 1162   1.031   4.137   2.223  0.0676 -0.1061  0.1779
  388CB      R2 1163   1.008   3.836   2.358 -0.0012 -0.1632  0.0413
  388CB      R3 1164   0.967   4.039   2.531  0.0186 -0.2331  0.1281
  389CB      Cl 1165   2.546   0.502   0.405  0.0394 -0.0939 -0.2779
  389CB      R2 1166   2.288   0.298   0.388 -0.1695  0.0743  0.4717
  389CB      R3 1167   2.222   0.559   0.381 -0.0035  0.1181  0.5093
  390CB      Cl 1168   0.734   1.784   0.634 -0.2112 -0.0792  0.1399
  390CB      R2 1169   1.018   1.933   0.710 -0.2210 -0.0062  0.0350
  390CB      R3 1170   1.032   1.663   0.707 -0.1890 -0.0065  0.1695
  391CB      Cl 1171   1.330   2.999   0.489  0.0919  0.1638 -0.1841
  391CB      R2 1172   1.601   2.971   0.304  0.1539  0.2520 -0.1077
  391CB      R3 1173   1.512   3.224   0.331 -0.0902  0.1973 -0.3503
  392CB      Cl 1174   4.178   2.464   3.507 -0.6072  0.0370  0.2431
  392CB      R2 1175   4.024   2.198   3.387 -0.0551 -0.2004  0.0308
  392CB      R3 1176   4.129   2.163   3.633  0.2348 -0.2721 -0.0986
  393CB      Cl 1177   4.503   3.779   4.458 -0.0580  0.0954 -0.1968
  393CB      R2 1178   4.334   3.612   4.230 -0.1195 -0.0423 -0.0527
  393CB      R3 1179   4.274   3.875   4.241 -0.3167 -0.0875 -0.0115
  394CB      Cl 1180   3.398   3.804   2.718  0.1148  0.0861 -0.0398
  394CB      R2 1181   3.475   3.919   3.017  0.0353  0.2315 -0.0738
  394CB      R3 1182   3.247   4.021   2.916 -0.2158 -0.2001  0.0310
  395CB      Cl 1183   2.236   1.085   4.715 -0.0399  0.1959 -0.0746
  395CB      R2 1184   1.969   0.891   4.721  0.1483 -0.0695 -0.0947
  395CB      R3 1185   2.070   0.933   4.474  0.3173 -0.2429 -0.0574
  396CB      Cl 1186   1.168   2.585   2.465 -0.0624 -0.3728  0.1154
  396CB      R2 1187   1.444   2.405   2.434 -0.0548 -0.3441  0.0137
  396CB      R3 1188   1.460   2.602   2.618  0.1107 -0.1233 -0.2309
  397CB      Cl 1189   3.367   3.568   4.075 -0.1604  0.1299  0.0272
  397CB      R2 1190   3.158   3.712   3.865  0.0507  0.1942 -0.1417
  397CB      R3 1191   3.390   3.633   3.753  0.1331  0.1574  0.0513
  398CB      Cl 1192   0.137   1.275   4.906 -0.1811  0.0365  0.0468
  398CB      R2 1193  -0.126   1.247   4.710 -0.1283  0.1114 -0.0353
  398CB      R3 1194   0.047   1.041   4.692  0.1104  0.3327 -0.4174
  399CB      Cl 1195   0.505   0.940   2.837 -0.1136  0.3480 -0.0818
  399CB      R2 1196   0.319   0.817   2.594  0.0816  0.0768 -0.0984
  399CB      R3 1197   0.538   0.952   2.509  0.1089  0.0477 -0.0743
  400CB      Cl 1198   4.263   4.400   4.787  0.0541  0.1186  0.1078
  400CB      R2 1199   4.487   4.165   4.731  0.0174  0.0572  0.2156
  400CB      R3 1200   4.527   4.304   4.959  0.1227  0.2546  0.0801
  401CB      Cl 1201   3.903   2.221   1.021 -0.0821  0.4384 -0.0914
  401CB      R2 1202   3.993   2.063   0.745 -0.0930 -0.1706  0.2360
  401CB      R3 1203   3.727   2.065   0.789 -0.1524  0.4458 -0.0433
  402CB      Cl 1204   0.141   4.500   4.735 -0.0189  0.4103  0.1332
  402CB      R2 1205  -0.097   4.271   4.732  0.1433  0.2401  0.0212
  402CB      R3 1206  -0.186   4.523   4.772 -0.0214  0.1411  0.3058
  403CB      Cl 1207   2.052   5.010   2.166  0.1397  0.0493  0.3432
  403CB      R2 1208   2.194   5.286   2.278  0.1883  0.1394  0.0679
  403CB      R3 1209   2.278   5.210   2.033  0.3778 -0.2738  0.2513
  404CB      Cl 1210   1.962   4.850   1.380  0.1101  0.1331 -0.0868
  404CB      R2 1211   2.113   4.614   1.206  0.2309  0.0572  0.1169
  404CB      R3 1212   2.108   4.855   1.084  0.0177 -0.0709 -0.1375
  405CB      Cl 1213   3.178   1.579   4.614 -0.0182  0.0357 -0.0456
  405CB      R2 1214   3.240   1.872   4.477  0.0964  0.0426  0.0192
  405CB      R3 1215   3.355   1.665   4.349 -0.0764  0.0131 -0.0920
  406CB      Cl 1216   2.388   1.087   4.116 -0.2628  0.1376 -0.2083
  406CB      R2 1217   2.685   0.996   4.008 -0.1301  0.2819  0.0252
  406CB      R3 1218   2.680   1.239   4.124 -0.3134  0.2268  0.1373
  407CB      Cl 1219   4.418   3.166   3.963 -0.0430 -0.0496 -0.1546
  407CB      R2 1220   4.491   2.851   4.029  0.2823  0.0417 -0.0605
  407CB      R3 1221   4.658   2.969   3.852  0.3540  0.2502  0.1413
  408CB      Cl 1222   4.758   4.916   3.678  0.0744  0.0391  0.3442
  408CB      R2 1223   4.933   4.666   3.553  0.1168  0.3423 -0.2356
  408CB      R3 1224   4.927   4.672   3.823  0.3338 -0.1261 -0.2101
  409CB      Cl 1225   1.445   2.392   3.052  0.2146  0.1490 -0.0026
  409CB      R2 1226   1.424   2.603   3.304  0.1008 -0.0434  0.1523
  409CB      R3 1227   1.629   2.428   3.323  0.1849  0.0402  0.0325
  410CB      Cl 1228   2.156   2.699   1.364  0.2434 -0.1834 -0.0409
  410CB      R2 1229   2.274   2.493   1.135  0.2578 -0.0365 -0.1679
  410CB      R3 1230   2.149   2.370   1.341 -0.0256 -0.1584 -0.4047
  411CB      Cl 1231   1.622   3.523   4.090 -0.0999 -0.3577  0.0908
  411CB      R2 1232   1.503   3.389   4.367 -0.2110  0.2183  0.3372
  411CB      R3 1233   1.352   3.589   4.267 -0.1366  0.0646 -0.1087
  412CB      Cl 1234   2.921   4.700   3.291 -0.2616  0.2021  0.0046
  412CB      R2 1235   2.702   4.459   3.237 -0.2089  0.2153 -0.2840
  412CB      R3 1236   2.785   4.477   3.493 -0.2541 -0.0378 -0.2485
  413CB      Cl 1237   1.472   0.505   4.541 -0.2386 -0.3414 -0.2227
  413CB      R2 1238   1.708   0.563   4.318 -0.2964  0.0042 -0.1996
  413CB      R3 1239   1.605   0.786   4.431 -0.3437 -0.1616  0.0946
  414CB      Cl 1240   4.282   0.751   1.594  0.0784 -0.2101  0.0121
  414CB      R2 1241   4.142   0.482   1.466 -0.1204 -0.1471  0.0929
  414CB      R3 1242   4.389   0.534   1.370 -0.2194 -0.1625 -0.1819
  415CB      Cl 1243   1.219   4.721   4.450 -0.2754  0.5970 -0.1167
  415CB      R2 1244   1.144   4.688   4.130  0.0466 -0.4591 -0.1241
  415CB      R3 1245   1.404   4.743   4.177  0.0395 -0.4963 -0.0404
  416CB      Cl 1246   0.151   2.607   1.726  0.1142  0.0089 -0.1786
  416CB      R2 1247   0.024   2.869   1.570 -0.0312  0.0942  0.0781
  416CB      R3 1248   0.071   2.909   1.833  0.1551 -0.0672  0.0716
  417CB      Cl 1249   4.501   3.052   2.833  0.0778  0.4495  0.1810
  417CB      R2 1250   4.829   3.089   2.829  0.0781  0.4411  0.1214
  417CB      R3 1251   4.714   3.149   3.066  0.1067  0.5796  0.1013
  418CB      Cl 1252   4.755   2.090   0.388  0.1240  0.5166  0.0549
  418CB      R2 1253   4.962   1.941   0.178 -0.3794 -0.3169  0.1017
  418CB      R3 1254   5.084   2.091   0.367  0.1236 -0.1835 -0.3071
  419CB      Cl 1255   3.993   2.830   3.722 -0.1183  0.3232 -0.1864
  419CB      R2 1256   3.931   2.822   3.398 -0.1623  0.0023 -0.1736
  419CB      R3 1257   3.757   2.972   3.540 -0.1577  0.1238 -0.2940
  420CB      Cl 1258   4.385   0.130   3.785  0.0876 -0.1994 -0.0439
  420CB      R2 1259   4.325   0.030   3.476  0.1745 -0.0626 -0.1061
  420CB      R3 1260   4.274  -0.157   3.664 -0.0611 -0.0834 -0.1870
  421CB      Cl 1261   2.572   4.782   0.981  0.3213  0.0178  0.0650
  421CB      R2 1262   2.505   4.461   1.017 -0.2104  0.1217  0.0923
  421CB      R3 1263   2.719   4.546   1.158 -0.0170 -0.2322  0.0243
  422CB      Cl 1264   4.500   3.625   1.405  0.0575  0.0231 -0.0390
  422CB      R2 1265   4.277   3.568   1.170 -0.0581 -0.0060  0.0767
  422CB      R3 1266   4.509   3.435   1.136  0.0533  0.2470 -0.2006
  423CB      Cl 1267   1.377   0.770   3.531 -0.2300  0.0788 -0.0099
  423CB      R2 1268   1.314   0.740   3.208 -0.3499 -0.0356  0.0229
  423CB      R3 1269   1.169   0.575   3.364 -0.1644 -0.1074  0.1227
  424CB      Cl 1270   0.835   1.628   0.202 -0.1216 -0.0282 -0.1135
  424CB      R2 1271   0.693   1.372   0.354  0.0937  0.0266  0.1874
  424CB      R3 1272   0.812   1.309   0.120 -0.0331 -0.1063  0.1570
  425CB      Cl 1273   3.995   1.069   1.138  0.2143 -0.0606  0.2812
  425CB      R2 1274   3.749   1.073   1.358  0.3906 -0.0964  0.4825
  425CB      R3 1275   3.891   0.843   1.355 -0.0851 -0.4180 -0.2125
  426CB      Cl 1276   2.696   1.478   3.225 -0.0218  0.3107 -0.2156
  426CB      R2 1277   2.994   1.523   3.359  0.1669 -0.1700 -0.4523
  426CB      R3 1278   2.899   1.738   3.228  0.0086  0.2933  0.3569
  427CB      Cl 1279   3.326   1.222   1.538  0.0249  0.2830  0.0099
  427CB      R2 1280   3.344   1.308   1.856  0.0471  0.3492 -0.0091
  427CB      R3 1281   3.548   1.400   1.706  0.1972  0.0677  0.0154
  428CB      Cl 1282   0.799   1.321   3.188 -0.2024 -0.0841  0.2933
  428CB      R2 1283   0.893   1.523   3.432 -0.0646  0.2954 -0.0608
  428CB      R3 1284   0.651   1.581   3.328 -0.0010  0.3143 -0.2005
  429CB      Cl 1285   1.654   3.399   1.638 -0.3728 -0.1068 -0.3138
  429CB      R2 1286   1.557   3.366   1.324 -0.0427 -0.1760 -0.4119
  429CB      R3 1287   1.816   3.438   1.353 -0.1295  0.0493 -0.1574
  430CB      Cl 1288   3.625   4.404   1.389  0.0288 -0.1575  0.1228
  430CB      R2 1289   3.890   4.309   1.216 -0.0954 -0.2244 -0.0322
  430CB      R3 1290   3.678   4.142   1.196 -0.1647 -0.1482  0.0553
  431CB      Cl 1291   2.578   0.045   3.932 -0.1943 -0.0782 -0.0878
  431CB      R2 1292   2.345   0.132   3.714 -0.0971  0.2732 -0.0570
  431CB      R3 1293   2.264   0.140   3.971 -0.1534  0.0502 -0.0662
  432CB      Cl 1294   0.702   3.914   4.505  0.2065  0.1680  0.0605
  432CB      R2 1295   0.913   3.777   4.291 -0.2884 -0.3766 -0.1038
  432CB      R3 1296   0.739   3.950   4.179  0.0165  0.0253  0.0214
  433CB      Cl 1297   4.854   3.440   3.336 -0.1309  0.1183 -0.3506
  433CB      R2 1298   4.688   3.356   3.609  0.6088  0.2764  0.1793
  433CB      R3 1299   4.552   3.520   3.443  0.1163  0.1158  0.4048
  434CB      Cl 1300   3.463   2.659   4.928  0.0042 -0.2819  0.0951
  434CB      R2 1301   3.400   2.803   4.638 -0.1233 -0.2419  0.1416
  434CB      R3 1302   3.398   2.972   4.849  0.0968 -0.2479  0.1518
  435CB      Cl 1303   2.665   3.557   3.287 -0.0323 -0.2771  0.2933
  435CB      R2 1304   2.625   3.693   3.585 -0.0137 -0.2246  0.2719
  435CB      R3 1305   2.878   3.613   3.533  0.1503  0.4020  0.0054
  436CB      Cl 1306   1.110   4.991   0.345 -0.0558 -0.0657 -0.3806
  436CB      R2 1307   1.229   4.692   0.421 -0.3165 -0.0570  0.0953
  436CB      R3 1308   1.404   4.894   0.458 -0.2690 -0.1110  0.1671
  437CB      Cl 1309   1.765   4.570   4.355 -0.1465  0.1577  0.0865
  437CB      R2 1310   1.673   4.394   4.619  0.2675  0.0319  0.1547
  437CB      R3 1311   1.689   4.660   4.663 -0.3116  0.0944  0.0652
  438CB      Cl 1312   2.877   0.981   3.569 -0.3195  0.1231 -0.2684
  438CB      R2 1313   3.155   1.093   3.430 -0.0761 -0.1090  0.0167
  438CB      R3 1314   2.942   1.086   3.263 -0.0266  0.4783 -0.0912
  439CB      Cl 1315   3.979   1.268   4.480 -0.0600  0.1103  0.5406
  439CB      R2 1316   3.697   1.417   4.565 -0.0790  0.0734  0.5428
  439CB      R3 1317   3.794   1.248   4.752 -0.1834 -0.0984  0.4447
  440CB      Cl 1318   3.317   1.018   0.358  0.1544  0.4436 -0.2475
  440CB      R2 1319   3.573   0.822   0.289 -0.1034 -0.0166  0.0486
  440CB      R3 1320   3.511   0.834   0.551 -0.2899  0.2141 -0.0030
  441CB      Cl 1321   2.427   0.671   4.318 -0.0420  0.0501 -0.0757
  441CB      R2 1322   2.734   0.603   4.218  0.1195  0.3076  0.2296
  441CB      R3 1323   2.557   0.405   4.171  0.2490  0.2990 -0.2814
  442CB      Cl 1324   3.041   2.052   1.473 -0.3385 -0.0620 -0.1799
  442CB      R2 1325   2.976   2.193   1.182 -0.2953 -0.0203 -0.1696
  442CB      R3 1326   3.043   2.368   1.376 -0.0591 -0.0680 -0.2041
  443CB      Cl 1327   2.005   2.611   3.197  0.0788 -0.3671 -0.2699
  443CB      R2 1328   2.014   2.859   2.980  0.0821 -0.2956 -0.1887
  443CB      R3 1329   1.767   2.761   3.025  0.0437 -0.1243 -0.0163
  444CB      Cl 1330   0.383   1.855   1.821 -0.3784  0.3492 -0.0465
  444CB      R2 1331   0.470   1.887   1.504 -0.2858  0.0774 -0.0510
  444CB      R3 1332   0.307   1.677   1.553 -0.0070 -0.1021  0.1344
  445CB      Cl 1333   4.842   0.275   1.299 -0.4984 -0.3711 -0.1370
  445CB      R2 1334   4.929   0.122   1.578  0.0619  0.2482  0.0543
  445CB      R3 1335   5.016  -0.000   1.354  0.2010  0.1067  0.1827
  446CB      Cl 1336   1.927   1.754   1.292 -0.3177  0.5662  0.2904
  446CB      R2 1337   2.175   1.960   1.222  0.1222  0.0286  0.1959
  446CB      R3 1338   2.253   1.726   1.332 -0.3243 -0.2389 -0.0281
  447CB      Cl 1339   3.490   4.679   4.957 -0.2067 -0.2222  0.1716
  447CB      R2 1340   3.356   4.952   4.829  0.0918 -0.0448  0.2286
  447CB      R3 1341   3.177   4.761   4.893 -0.0867 -0.0386 -0.2151
  448CB      Cl 1342   0.107   4.846   4.424  0.1637  0.1129  0.2988
  448CB      R2 1343   0.177   5.087   4.210 -0.1152  0.0402  0.1201
  448CB      R3 1344   0.316   4.859   4.169 -0.0602  0.0750  0.1107
  449CB      Cl 1345   0.631   0.464   2.194  0.0374 -0.1438  0.2766
  449CB      R2 1346   0.679   0.600   1.898 -0.2013 -0.3399  0.1442
  449CB      R3 1347   0.834   0.385   1.947  0.3604  0.1067  0.4534
  450CB      Cl 1348   2.030   1.635   0.313  0.0096 -0.0272  0.1499
  450CB      R2 1349   1.768   1.611   0.114  0.0289 -0.3331  0.1571
  450CB      R3 1350   1.736   1.490   0.353  0.0851 -0.1525  0.2576
  451CB      Cl 1351   0.750   0.880   3.218  0.2256  0.1815  0.0336
  451CB      R2 1352   0.968   0.917   2.972 -0.1528  0.0778 -0.3285
  451CB      R3 1353   0.837   0.681   2.969 -0.5515  0.2904 -0.3548
  452CB      Cl 1354   3.787   4.127   0.742 -0.2692 -0.3033 -0.2099
  452CB      R2 1355   3.864   4.383   0.548  0.0267 -0.3682 -0.1836
  452CB      R3 1356   3.637   4.416   0.690  0.0233 -0.1517 -0.2360
  453CB      Cl 1357   0.967   3.538   0.949 -0.4760 -0.1012 -0.0266
  453CB      R2 1358   0.743   3.480   1.185 -0.2683  0.2361  0.2633
  453CB      R3 1359   0.946   3.641   1.262  0.2709 -0.3396  0.1218
  454CB      Cl 1360   0.316   4.481   3.731  0.2100 -0.0172 -0.1577
  454CB      R2 1361   0.391   4.241   3.945  0.1698 -0.0445 -0.1741
  454CB      R3 1362   0.156   4.205   3.816  0.1103  0.0587 -0.0956
  455CB      Cl 1363   3.702   3.708   1.198 -0.1617 -0.1050 -0.1935
  455CB      R2 1364   3.461   3.492   1.135 -0.2428 -0.0123 -0.2029
  455CB      R3 1365   3.406   3.745   1.058  0.0598 -0.0776 -0.6768
  456CB      Cl 1366   0.090   1.600   2.701  0.1516  0.1307 -0.1663
  456CB      R2 1367   0.126   1.284   2.611  0.0979  0.0475  0.0940
  456CB      R3 1368  -0.054   1.422   2.463 -0.0522 -0.1086  0.1281
  457CB      Cl 1369   0.739   3.960   1.894  0.2617  0.0917  0.2705
  457CB      R2 1370   0.722   3.631   1.917  0.1336  0.1037  0.3559
  457CB      R3 1371   0.745   3.722   1.664  0.3370  0.0228  0.3431
  458CB      Cl 1372   0.457   5.016   2.897 -0.0234  0.5982 -0.2263
  458CB      R2 1373   0.141   4.959   2.970  0.1794 -0.0478  0.2305
  458CB      R3 1374   0.228   5.204   3.042 -0.2407  0.1875 -0.0213
  459CB      Cl 1375   3.771   3.152   0.541  0.0390  0.3030 -0.2147
  459CB      R2 1376   3.655   3.126   0.849  0.3701 -0.1813 -0.1202
  459CB      R3 1377   3.469   3.194   0.666  0.1114 -0.1633  0.1433
  460CB      Cl 1378   0.243   3.590   1.093 -0.2638 -0.1104 -0.0254
  460CB      R2 1379   0.386   3.300   1.027 -0.3735 -0.1486 -0.0971
  460CB      R3 1380   0.247   3.305   1.259  0.4068  0.1240  0.4047
  461CB      Cl 1381   2.737   3.826   1.950  0.1338  0.2018  0.1316
  461CB      R2 1382   2.539   4.090   1.942  0.0608  0.1482  0.1522
  461CB      R3 1383   2.716   4.091   2.146  0.2268  0.2995  0.0116
  462CB      Cl 1384   4.797   3.814   3.065  0.3247  0.0594 -0.3722
  462CB      R2 1385   4.945   3.757   2.776  0.0534 -0.2637 -0.4538
  462CB      R3 1386   4.799   3.550   2.868 -0.0010 -0.1033 -0.1662
  463CB      Cl 1387   3.118   4.876   1.159 -0.1945  0.2546  0.2121
  463CB      R2 1388   3.153   4.600   1.338  0.2390  0.1835  0.0319
  463CB      R3 1389   3.034   4.804   1.470 -0.0134 -0.0615  0.1925
  464CB      Cl 1390   3.362   2.451   2.775  0.0060  0.1249 -0.0947
  464CB      R2 1391   3.544   2.663   2.951  0.2417 -0.1864  0.0468
  464CB      R3 1392   3.319   2.581   3.076  0.1625 -0.0411  0.0018
  465CB      Cl 1393   1.651   2.352   4.072 -0.1064 -0.6615 -0.2130
  465CB      R2 1394   1.411   2.218   3.891 -0.4035 -0.2673 -0.1250
  465CB      R3 1395   1.435   2.485   3.861  0.0180 -0.2990 -0.1195
  466CB      Cl 1396   2.543   4.852   2.079 -0.1185 -0.3329 -0.2246
  466CB      R2 1397   2.616   4.546   2.179  0.0054 -0.1329  0.3377
  466CB      R3 1398   2.576   4.721   2.380 -0.2630  0.1798  0.0259
  467CB      Cl 1399   3.732   4.640   4.244 -0.2188 -0.2371 -0.1394
  467CB      R2 1400   3.977   4.685   4.027 -0.1222 -0.3856 -0.0633
  467CB      R3 1401   3.793   4.503   3.950 -0.1698 -0.3280 -0.0873
  468CB      Cl 1402   2.324   2.248   4.794  0.0963 -0.4031  0.0898
  468CB      R2 1403   2.461   2.381   5.063 -0.3138  0.2481 -0.0008
  468CB      R3 1404   2.451   2.548   4.851 -0.5357 -0.0523 -0.2343
  469CB      Cl 1405   0.779   2.810   1.658 -0.0284 -0.0291  0.0657
  469CB      R2 1406   0.560   2.917   1.436 -0.1508  0.0046  0.2010
  469CB      R3 1407   0.463   2.900   1.687 -0.0981 -0.3063  0.2050
  470CB      Cl 1408   3.713   3.286   3.852 -0.2504 -0.2094 -0.0423
  470CB      R2 1409   4.011   3.359   3.973 -0.0781 -0.2837 -0.4091
  470CB      R3 1410   3.812   3.370   4.155  0.0849  0.1532 -0.2435
  471CB      Cl 1411   4.043   1.534   3.563 -0.1433 -0.0927  0.0909
  471CB      R2 1412   3.894   1.802   3.442  0.0496 -0.0805 -0.1285
  471CB      R3 1413   3.922   1.601   3.264  0.2655 -0.0939 -0.0817
  472CB      Cl 1414   1.362   4.087   3.505  0.3137 -0.3386 -0.2601
  472CB      R2 1415   1.198   3.955   3.251 -0.2384 -0.1425 -0.0214
  472CB      R3 1416   1.081   4.174   3.356  0.2555  0.0884  0.0795
  473CB      Cl 1417   2.053   2.930   0.914 -0.1525 -0.2032 -0.0536
  473CB      R2 1418   2.361   2.941   1.032 -0.1087  0.0244 -0.1837
  473CB      R3 1419   2.269   3.178   0.942 -0.2773 -0.0687 -0.2602
  474CB      Cl 1420   3.988   1.322   3.957  0.2163  0.1456 -0.0842
  474CB      R2 1421   3.765   1.240   3.727 -0.2091 -0.0862  0.3913
  474CB      R3 1422   3.994   1.097   3.716 -0.1425  0.0391  0.0004
  475CB      Cl 1423   0.366   4.965   3.406 -0.3993  0.0904 -0.2211
  475CB      R2 1424   0.247   4.918   3.710  0.2676  0.1289  0.0612
  475CB      R3 1425   0.097   5.082   3.558 -0.2965 -0.2162  0.2155
  476CB      Cl 1426   3.953   4.839   0.540 -0.4482  0.0223 -0.1334
  476CB      R2 1427   4.113   5.050   0.343  0.0095 -0.1580  0.0322
  476CB      R3 1428   3.994   5.166   0.556  0.0907 -0.0426  0.0160
  477CB      Cl 1429   1.373   4.839   4.930 -0.1836  0.3061  0.1088
  477CB      R2 1430   1.612   4.905   5.148  0.0142 -0.0682  0.0146
  477CB      R3 1431   1.660   4.999   4.900 -0.0463  0.0551  0.0490
  478CB      Cl 1432   0.079   3.749   4.596 -0.1184 -0.2054  0.0310
  478CB      R2 1433   0.380   3.618   4.566 -0.0763 -0.1001 -0.0117
  478CB      R3 1434   0.241   3.527   4.779  0.0451 -0.0344  0.0970
  479CB      Cl 1435   0.197   2.719   4.520 -0.1231  0.1109 -0.1197
  479CB      R2 1436   0.264   3.040   4.557  0.2633  0.0170  0.0436
  479CB      R3 1437   0.417   2.877   4.709  0.1271 -0.2500 -0.0986
  480CB      Cl 1438   4.313   0.460   2.918 -0.2869 -0.1573  0.1254
  480CB      R2 1439   4.125   0.376   3.176 -0.2504  0.1427  0.2540
  480CB      R3 1440   4.034   0.590   3.038 -0.5370 -0.2999 -0.2828
  481CB      Cl 1441   3.163   1.148   2.507  0.4817  0.0841  0.0254
  481CB      R2 1442   3.191   1.374   2.268 -0.0365  0.0060 -0.1213
  481CB      R3 1443   3.414   1.227   2.307  0.1719  0.2630 -0.3049
  482CB      Cl 1444   4.267   4.677   0.131 -0.1572  0.2729  0.1126
  482CB      R2 1445   4.081   4.405   0.149  0.1996  0.0312  0.2608
  482CB      R3 1446   3.940   4.634   0.127 -0.1032 -0.1749 -0.0418
  483CB      Cl 1447   4.345   0.890   3.926 -0.3531  0.1221  0.1134
  483CB      R2 1448   4.285   0.651   4.145 -0.1097 -0.1682 -0.1275
  483CB      R3 1449   4.252   0.901   4.242 -0.1764 -0.2944  0.1857
  484CB      Cl 1450   2.216   3.315   4.490  0.1299  0.0774 -0.1925
  484CB      R2 1451   1.940   3.491   4.447  0.1180  0.0823 -0.0980
  484CB      R3 1452   2.162   3.641   4.487  0.0777  0.0755  0.1669
  485CB      Cl 1453   1.517   3.045   2.783 -0.1649  0.5390 -0.0323
  485CB      R2 1454   1.482   3.135   3.098 -0.1557  0.3002  0.0391
  485CB      R3 1455   1.710   3.223   2.983  0.1842 -0.1805  0.3098
  486CB      Cl 1456   3.872   2.414   2.665  0.2899 -0.0127 -0.1068
  486CB      R2 1457   3.768   2.579   2.399  0.3001  0.0124 -0.0953
  486CB      R3 1458   3.636   2.347   2.444  0.0674  0.1719  0.0691
  487CB      Cl 1459   1.061   4.349   0.726 -0.3476 -0.2377 -0.0472
  487CB      R2 1460   1.234   4.289   0.451 -0.3091 -0.3201 -0.0054
  487CB      R3 1461   0.978   4.363   0.407 -0.1251  0.3263 -0.0914
  488CB      Cl 1462   4.343   2.873   4.459  0.3596  0.4537  0.0523
  488CB      R2 1463   4.450   2.934   4.765  0.1812 -0.0969  0.2366
  488CB      R3 1464   4.214   2.802   4.755  0.2816 -0.2602 -0.1335
  489CB      Cl 1465   0.632   3.513   3.379  0.2448  0.0116 -0.1681
  489CB      R2 1466   0.892   3.319   3.438 -0.0366 -0.2728  0.1787
  489CB      R3 1467   0.697   3.303   3.625 -0.1518  0.2024  0.1113
  490CB      Cl 1468   1.837   3.888   4.749 -0.0888 -0.0826 -0.1240
  490CB      R2 1469   1.817   3.891   5.078 -0.2507 -0.4357 -0.1268
  490CB      R3 1470   2.048   3.788   4.982 -0.0882 -0.0853 -0.1256
  491CB      Cl 1471   1.054   0.942   2.533  0.0390  0.1197 -0.1573
  491CB      R2 1472   0.962   0.726   2.300 -0.3479  0.1439 -0.0330
  491CB      R3 1473   0.947   0.630   2.552  0.0047  0.1400 -0.0085
  492CB      Cl 1474   0.341   1.412   1.042  0.0547  0.1354 -0.0966
  492CB      R2 1475   0.599   1.218   0.975 -0.1393 -0.3098  0.3788
  492CB      R3 1476   0.546   1.401   0.784  0.3082 -0.4421  0.1133
  493CB      Cl 1477   4.993   3.412   0.833  0.1589  0.0066  0.1516
  493CB      R2 1478   4.789   3.159   0.893 -0.1087  0.1350 -0.1811
  493CB      R3 1479   4.886   3.165   0.641  0.3591  0.0462 -0.0147
  494CB      Cl 1480   0.471   4.022   0.220 -0.2371  0.0673 -0.1593
  494CB      R2 1481   0.375   3.933  -0.083 -0.5386  0.1944 -0.1055
  494CB      R3 1482   0.401   4.200  -0.049 -0.3621  0.1727 -0.0589
  495CB      Cl 1483   3.027   5.045   0.771  0.0850 -0.2032  0.1948
  495CB      R2 1484   3.281   5.198   0.626 -0.0262 -0.2494 -0.0527
  495CB      R3 1485   3.228   5.286   0.875  0.1235 -0.1198 -0.0648
  496CB      Cl 1486   3.355   3.153   2.551  0.0473  0.0567  0.0144
  496CB      R2 1487   3.276   3.420   2.728 -0.3473 -0.0584  0.0222
  496CB      R3 1488   3.126   3.386   2.507  0.2332  0.1648 -0.4342
  497CB      Cl 1489   1.025   2.164   2.288 -0.0885  0.1359 -0.0834
  497CB      R2 1490   1.310   2.011   2.356 -0.2131 -0.0345  0.0653
  497CB      R3 1491   1.093   1.851   2.372 -0.3260  0.1141  0.0347
  498CB      Cl 1492   2.146   1.391   4.362  0.0641  0.3986  0.0749
  498CB      R2 1493   1.942   1.512   4.133  0.0017  0.1254 -0.0170
  498CB      R3 1494   1.951   1.242   4.142 -0.4201  0.1119  0.6697
  499CB      Cl 1495   4.539   0.305   4.931  0.1394 -0.0050  0.0239
  499CB      R2 1496   4.270   0.200   4.772  0.1184  0.1192 -0.0241
  499CB      R3 1497   4.233   0.243   5.036  0.1232  0.0214 -0.0071
  500CB      Cl 1498   2.142   3.908   2.610  0.1023  0.2540 -0.1893
  500CB      R2 1499   2.362   3.783   2.399  0.1366  0.2144 -0.1302
  500CB      R3 1500   2.472   3.903   2.614  0.1017 -0.2429  0.1584
  501CB      Cl 1501   3.202   1.390   1.032  0.0247  0.1754 -0.2131
  501CB      R2 1502   3.456   1.540   1.179 -0.0482 -0.0865  0.1975
  501CB      R3 1503   3.517   1.301   1.070 -0.0151  0.0670 -0.1323
  502CB      Cl 1504   1.596   0.115   4.325 -0.0169  0.0698  0.0241
  502CB      R2 1505   1.816   0.203   4.095 -0.0451  0.0770 -0.0004
  502CB      R3 1506   1.766  -0.062   4.105  0.1474  0.0442  0.1692
  503CB      Cl 1507   4.446   5.040   0.726 -0.0611  0.1339  0.0570
  503CB      R2 1508   4.545   5.258   0.953 -0.0077 -0.0348  0.1991
  503CB      R3 1509   4.626   5.005   1.001 -0.0894 -0.0907  0.0496
  504CB      Cl 1510   3.591   0.139   1.569 -0.0471 -0.1885 -0.4256
  504CB      R2 1511   3.768  -0.133   1.511 -0.2239 -0.4106  0.0296
  504CB      R3 1512   3.501  -0.172   1.505 -0.2506 -0.2449  0.0882
  505CB      Cl 1513   3.965   4.132   4.048 -0.0215  0.0328  0.2271
  505CB      R2 1514   3.827   3.861   3.920  0.2966  0.0413 -0.1537
  505CB      R3 1515   3.790   3.888   4.186 -0.0635 -0.1736 -0.1745
  506CB      Cl 1516   0.348   1.742   0.140 -0.1367 -0.2951 -0.2436
  506CB      R2 1517   0.476   1.675  -0.156  0.1574 -0.2852 -0.1222
  506CB      R3 1518   0.454   1.939  -0.103 -0.1589 -0.2834 -0.2439
  507CB      Cl 1519   1.916   0.196   4.633  0.5754 -0.0150  0.2736
  507CB      R2 1520   2.137   0.278   4.402  0.3049  0.3790  0.1451
  507CB      R3 1521   2.041   0.488   4.543 -0.1573  0.2498  0.0399
  508CB      Cl 1522   1.565   1.020   4.033 -0.2331 -0.1043 -0.2337
  508CB      R2 1523   1.749   1.078   3.766 -0.2448  0.0038 -0.2186
  508CB      R3 1524   1.591   1.285   3.839 -0.0029  0.0963  0.0614
  509CB      Cl 1525   2.948   2.410   2.279 -0.0084 -0.1682 -0.0533
  509CB      R2 1526   3.197   2.247   2.423  0.1377 -0.0390 -0.1568
  509CB      R3 1527   2.995   2.089   2.339  0.0382 -0.1153  0.2089
  510CB      Cl 1528   0.650   2.541   2.307 -0.1032 -0.3128  0.0081
  510CB      R2 1529   0.720   2.846   2.411 -0.1684 -0.2960  0.0036
  510CB      R3 1530   0.553   2.838   2.200 -0.1602 -0.3348 -0.0015
  511CB      Cl 1531   1.326   1.568   0.105 -0.2819  0.0631 -0.0451
  511CB      R2 1532   1.412   1.254   0.157  0.0117  0.1300 -0.1084
  511CB      R3 1533   1.268   1.363   0.358  0.3423  0.1067  0.1517
  512CB      Cl 1534   4.638   2.874   1.777  0.4360 -0.1901 -0.0016
  512CB      R2 1535   4.460   2.610   1.689  0.2046 -0.0406  0.0070
  512CB      R3 1536   4.673   2.553   1.846  0.1991 -0.2285 -0.0512
  513CB      Cl 1537   4.471   1.472   1.601  0.1029  0.2763 -0.1324
  513CB      R2 1538   4.408   1.148   1.593  0.0296  0.2882 -0.0449
  513CB      R3 1539   4.374   1.273   1.356 -0.1394  0.2685 -0.0326
  514CB      Cl 1540   1.829   4.023   3.736  0.3856 -0.3371  0.2493
  514CB      R2 1541   1.747   3.915   3.435  0.2613 -0.1181  0.2024
  514CB      R3 1542   1.690   3.742   3.634 -0.0670 -0.0857  0.1430
  515CB      Cl 1543   0.596   2.529   0.817 -0.0578 -0.2200 -0.1407
  515CB      R2 1544   0.407   2.259   0.810 -0.0146 -0.2576  0.0725
  515CB      R3 1545   0.672   2.208   0.792 -0.0216 -0.2046 -0.2349
  516CB      Cl 1546   4.045   3.302   2.193  0.0691  0.1616 -0.0294
  516CB      R2 1547   4.161   3.606   2.249  0.4446  0.0570 -0.2058
  516CB      R3 1548   4.089   3.561   1.992 -0.2404  0.1957 -0.0584
  517CB      Cl 1549   2.554   0.285   1.237  0.0397  0.1047  0.0893
  517CB      R2 1550   2.830   0.340   1.064 -0.0719 -0.0891 -0.1578
  517CB      R3 1551   2.787   0.080   1.125  0.0776 -0.0053  0.3615
  518CB      Cl 1552   2.752   4.434   1.591  0.0543 -0.1353  0.2686
  518CB      R2 1553   2.487   4.544   1.754 -0.0303  0.0471  0.0166
  518CB      R3 1554   2.428   4.395   1.537  0.0824 -0.3242  0.2302
  519CB      Cl 1555   3.881   1.294   2.585  0.0959 -0.0965  0.1778
  519CB      R2 1556   3.779   1.346   2.895 -0.1717 -0.1867  0.1076
  519CB      R3 1557   3.586   1.255   2.729 -0.0718  0.0182 -0.1262
  520CB      Cl 1558   1.556   4.855   1.082  0.0503 -0.0538 -0.1528
  520CB      R2 1559   1.257   4.739   1.004  0.0462 -0.2707  0.1663
  520CB      R3 1560   1.456   4.652   0.843 -0.0725 -0.0444 -0.1100
  521CB      Cl 1561   0.342   3.702   4.131 -0.0615  0.1381 -0.0053
  521CB      R2 1562   0.428   3.562   3.845  0.2739  0.0115  0.1524
  521CB      R3 1563   0.462   3.829   3.851  0.1254  0.0350  0.0267
  522CB      Cl 1564   0.017   3.919   0.913 -0.1228  0.2258 -0.1998
  522CB      R2 1565  -0.199   3.864   1.156  0.1895 -0.0061  0.0334
  522CB      R3 1566   0.026   3.991   1.235  0.2712 -0.0369 -0.1449
  523CB      Cl 1567   0.915   0.049   2.331  0.4521 -0.1333  0.0359
  523CB      R2 1568   0.919  -0.060   2.020  0.1081 -0.1475  0.0323
  523CB      R3 1569   0.975  -0.250   2.204  0.2293 -0.1585 -0.0152
  524CB      Cl 1570   0.451   3.642   2.334  0.0033 -0.1677  0.3510
  524CB      R2 1571   0.294   3.835   2.550  0.0234  0.3842 -0.1018
  524CB      R3 1572   0.555   3.796   2.607 -0.1620 -0.2317  0.4509
  525CB      Cl 1573   2.111   0.207   1.339  0.0248  0.2140  0.1949
  525CB      R2 1574   1.828   0.368   1.281  0.0882  0.2623  0.0149
  525CB      R3 1575   1.889   0.179   1.097  0.1065  0.1582  0.1260
  526CB      Cl 1576   0.046   2.421   3.025  0.1959 -0.1402 -0.0671
  526CB      R2 1577  -0.035   2.628   2.781  0.2078  0.1695  0.1848
  526CB      R3 1578  -0.194   2.647   2.998  0.0246 -0.2980  0.1031
  527CB      Cl 1579   3.962   3.856   2.619  0.2437  0.0070 -0.3737
  527CB      R2 1580   3.759   3.778   2.371 -0.3337 -0.2284  0.1479
  527CB      R3 1581   3.823   3.570   2.531  0.1482 -0.1088  0.1260
  528CB      Cl 1582   4.754   1.405   2.875  0.3895  0.1489  0.2946
  528CB      R2 1583   4.613   1.303   3.156 -0.0915 -0.0005  0.0102
  528CB      R3 1584   4.460   1.471   3.009  0.1258  0.0222 -0.1973
  529CB      Cl 1585   2.736   0.826   1.047  0.0704  0.1007  0.2364
  529CB      R2 1586   2.517   0.775   0.805  0.2940  0.1329  0.0233
  529CB      R3 1587   2.766   0.688   0.749  0.3262  0.0458  0.2855
  530CB      Cl 1588   1.663   1.966   0.414 -0.2165  0.2334 -0.4907
  530CB      R2 1589   1.416   2.133   0.555 -0.3643 -0.1734 -0.2490
  530CB      R3 1590   1.336   1.936   0.389 -0.2302 -0.6497  0.2238
  531CB      Cl 1591   0.479   2.704   2.753 -0.0764 -0.0356  0.1321
  531CB      R2 1592   0.282   2.880   2.950 -0.1173 -0.1484  0.1928
  531CB      R3 1593   0.244   2.926   2.687  0.0617  0.1367  0.2123
  532CB      Cl 1594   0.132   4.459   1.095  0.2453 -0.1864 -0.3897
  532CB      R2 1595   0.241   4.366   1.392 -0.3369 -0.1080 -0.1377
  532CB      R3 1596   0.380   4.570   1.283 -0.1494 -0.1027  0.1021
  533CB      Cl 1597   4.967   3.713   5.045  0.1594 -0.3547 -0.1758
  533CB      R2 1598   4.663   3.838   5.072  0.2609 -0.1506  0.0646
  533CB      R3 1599   4.687   3.646   4.884 -0.0073 -0.1434  0.0187
  534CB      Cl 1600   2.843   2.986   2.601 -0.1712 -0.0996  0.0074
  534CB      R2 1601   3.047   2.744   2.692  0.0695  0.0251 -0.1900
  534CB      R3 1602   3.065   2.966   2.845  0.0235  0.0074 -0.1586
  535CB      Cl 1603   1.685   4.195   0.496  0.0404 -0.1281 -0.1116
  535CB      R2 1604   1.869   4.409   0.325  0.0749  0.1333  0.2410
  535CB      R3 1605   1.621   4.499   0.385 -0.0967 -0.1309 -0.0419
  536CB      Cl 1606   3.139   2.513   0.575 -0.1499 -0.2086 -0.1117
  536CB      R2 1607   2.946   2.435   0.831 -0.1641 -0.0206 -0.0633
  536CB      R3 1608   3.065   2.223   0.713 -0.1064 -0.1031  0.1388
  537CB      Cl 1609   4.349   0.935   3.200  0.4017  0.1200 -0.1138
  537CB      R2 1610   4.142   1.188   3.249  0.2395 -0.0644  0.1864
  537CB      R3 1611   4.156   1.104   2.992  0.1657  0.1378  0.1144
  538CB      Cl 1612   4.892   0.732   4.160 -0.0844  0.2364 -0.1209
  538CB      R2 1613   4.951   0.868   3.865 -0.1081  0.0621 -0.2071
  538CB      R3 1614   5.070   0.628   3.902  0.2573  0.2781  0.0912
  539CB      Cl 1615   4.517   4.589   4.453  0.0309 -0.3549  0.1126
  539CB      R2 1616   4.323   4.363   4.310 -0.2974  0.1123 -0.2080
  539CB      R3 1617   4.195   4.588   4.385 -0.0601  0.0378  0.4980
  540CB      Cl 1618   0.269   3.708   3.469  0.3256 -0.1149 -0.1572
  540CB      R2 1619   0.150   3.980   3.324 -0.0876  0.0981  0.5344
  540CB      R3 1620   0.399   4.008   3.425  0.1811 -0.0350 -0.0448
  541CB      Cl 1621   3.768   1.891   3.853 -0.2644 -0.1944  0.0372
  541CB      R2 1622   3.636   1.922   4.154 -0.1602 -0.1863  0.0823
  541CB      R3 1623   3.727   1.674   4.098  0.1069 -0.1127  0.1771
  542CB      Cl 1624   0.285   2.172   1.222 -0.1280 -0.0009  0.3823
  542CB      R2 1625   0.152   2.470   1.177  0.1823  0.1007  0.0964
  542CB      R3 1626   0.399   2.475   1.285 -0.0045 -0.0822  0.5574
  543CB      Cl 1627   1.366   2.660   4.325  0.0284  0.2154  0.0108
  543CB      R2 1628   1.108   2.841   4.227  0.0519  0.1249 -0.2249
  543CB      R3 1629   1.298   2.981   4.358 -0.2275  0.1471  0.1727
  544CB      Cl 1630   3.277   4.202   2.381  0.3422  0.3963 -0.1628
  544CB      R2 1631   3.095   4.407   2.197 -0.3604  0.0145  0.0682
  544CB      R3 1632   3.166   4.508   2.437 -0.1605  0.2055 -0.0667
  545CB      Cl 1633   1.444   3.602   2.541  0.1308  0.0304  0.1584
  545CB      R2 1634   1.735   3.546   2.396  0.0754 -0.0894  0.0908
  545CB      R3 1635   1.605   3.322   2.470 -0.0232 -0.0380  0.0738
  546CB      Cl 1636   3.694   0.593   3.368 -0.3218  0.2186  0.0077
  546CB      R2 1637   3.645   0.273   3.430  0.2292  0.1178 -0.0289
  546CB      R3 1638   3.591   0.346   3.175 -0.0781  0.0994  0.0270
  547CB      Cl 1639   0.608   3.950   1.142  0.3713  0.1765  0.0294
  547CB      R2 1640   0.459   4.046   0.864 -0.1697 -0.1864  0.1791
  547CB      R3 1641   0.539   4.250   1.022 -0.3754  0.0209  0.0239
  548CB      Cl 1642   3.508   3.343   0.040 -0.1347 -0.2175  0.2349
  548CB      R2 1643   3.833   3.381   0.079 -0.1239  0.0922 -0.1016
  548CB      R3 1644   3.710   3.592  -0.035 -0.4919  0.0914  0.2680
  549CB      Cl 1645   1.204   4.336   2.886 -0.1686  0.1634 -0.0487
  549CB      R2 1646   1.418   4.569   2.978 -0.3150  0.4728 -0.4629
  549CB      R3 1647   1.179   4.584   3.102 -0.0977  0.0992  0.0342
  550CB      Cl 1648   1.351   4.609   2.093  0.0315  0.1479 -0.0072
  550CB      R2 1649   1.590   4.713   1.891 -0.1063  0.3023 -0.0941
  550CB      R3 1650   1.676   4.638   2.136  0.1139 -0.2306 -0.3177
  551CB      Cl 1651   1.325   1.382   2.568  0.2843  0.2774  0.0798
  551CB      R2 1652   1.523   1.646   2.581 -0.0232  0.5237 -0.0975
  551CB      R3 1653   1.293   1.673   2.720  0.0508  0.2503  0.0858
  552CB      Cl 1654   4.125   2.121   2.948  0.0290 -0.1654  0.2911
  552CB      R2 1655   3.994   1.971   2.685  0.0960  0.0419  0.1365
  552CB      R3 1656   4.117   1.804   2.858 -0.0371 -0.1077  0.0887
  553CB      Cl 1657   3.099   0.339   2.237  0.2698  0.3513  0.1857
  553CB      R2 1658   3.342   0.211   2.053  0.1577  0.2466  0.1084
  553CB      R3 1659   3.423   0.312   2.290  0.2524  0.0570  0.1578
  554CB      Cl 1660   4.525   4.672   3.973  0.1864  0.2451 -0.3229
  554CB      R2 1661   4.524   4.481   3.703 -0.2274  0.2701 -0.3459
  554CB      R3 1662   4.304   4.456   3.857  0.0563  0.1655  0.0600
  555CB      Cl 1663   1.899   0.808   1.670 -0.1135  0.2956 -0.2236
  555CB      R2 1664   1.629   0.987   1.606 -0.2049  0.0881 -0.4356
  555CB      R3 1665   1.613   0.731   1.524 -0.1211 -0.0529 -0.0360
  556CB      Cl 1666   1.482   2.533   0.832 -0.0860  0.0074 -0.0274
  556CB      R2 1667   1.646   2.797   0.723 -0.0786 -0.1290 -0.3604
  556CB      R3 1668   1.800   2.577   0.753 -0.1252 -0.1517 -0.2860
  557CB      Cl 1669   1.215   4.021   1.476 -0.2890  0.0100  0.0901
  557CB      R2 1670   1.366   3.810   1.272 -0.0415  0.3303 -0.0660
  557CB      R3 1671   1.369   3.734   1.531  0.2376  0.2453 -0.0900
  558CB      Cl 1672   1.864   1.315   1.248 -0.1574  0.0838  0.0574
  558CB      R2 1673   1.868   1.391   1.570 -0.2448  0.5789 -0.0500
  558CB      R3 1674   2.113   1.350   1.463 -0.2287  0.1567  0.1290
  559CB      Cl 1675   1.664   0.314   3.558  0.1968  0.0833 -0.1471
  559CB      R2 1676   1.693   0.001   3.458 -0.3469  0.0798 -0.3297
  559CB      R3 1677   1.897   0.088   3.612 -0.0116 -0.2478 -0.5716
  560CB      Cl 1678   2.933   1.954   0.327 -0.0474 -0.2201  0.1969
  560CB      R2 1679   2.849   2.272   0.350  0.0525 -0.1590 -0.2027
  560CB      R3 1680   2.672   2.102   0.463  0.0383  0.0401  0.0839
  561CB      Cl 1681   3.527   4.211   0.048  0.0516 -0.0315 -0.1459
  561CB      R2 1682   3.403   4.212   0.354  0.0731 -0.1283 -0.1365
  561CB      R3 1683   3.274   4.376   0.183  0.0659 -0.0679 -0.0739
  562CB      Cl 1684   4.379   2.956   3.481  0.2948 -0.1370  0.0504
  562CB      R2 1685   4.244   3.188   3.289  0.3150 -0.2398 -0.0897
  562CB      R3 1686   4.215   3.233   3.554  0.1153 -0.1966 -0.1174
  563CB      Cl 1687   1.183   4.941   1.396 -0.0060  0.0577  0.1565
  563CB      R2 1688   1.264   4.981   1.713 -0.1695  0.0345  0.2022
  563CB      R3 1689   1.339   5.185   1.553 -0.2007  0.1056  0.2781
  564CB      Cl 1690   0.346   1.738   4.449 -0.1610  0.1925  0.1258
  564CB      R2 1691   0.226   1.431   4.423 -0.2649  0.2402  0.0340
  564CB      R3 1692   0.329   1.530   4.194 -0.0500  0.2013  0.1109
  565CB      Cl 1693   2.308   3.502   2.930 -0.0374 -0.1263  0.0332
  565CB      R2 1694   2.047   3.512   2.729  0.2756  0.0154 -0.3802
  565CB      R3 1695   2.130   3.263   2.788 -0.0169 -0.0338 -0.1517
  566CB      Cl 1696   1.126   3.440   0.539 -0.0501 -0.3206 -0.0248
  566CB      R2 1697   0.970   3.267   0.305 -0.0646  0.1169 -0.3508
  566CB      R3 1698   0.855   3.505   0.363 -0.1231 -0.0284  0.1873
  567CB      Cl 1699   1.395   1.015   2.794 -0.0607 -0.0900  0.0721
  567CB      R2 1700   1.444   0.690   2.768 -0.1154 -0.0886 -0.0602
  567CB      R3 1701   1.670   0.837   2.751 -0.1045 -0.1126 -0.1258
  568CB      Cl 1702   0.016   1.121   1.029 -0.0478 -0.0955  0.0538
  568CB      R2 1703   0.215   0.988   0.802 -0.2506 -0.1039 -0.1230
  568CB      R3 1704  -0.029   1.054   0.709 -0.3725 -0.2014  0.1177
  569CB      Cl 1705   3.331   0.477   2.771 -0.2296 -0.3183  0.0088
  569CB      R2 1706   3.297   0.805   2.791  0.0099 -0.3143  0.5010
  569CB      R3 1707   3.159   0.691   2.588  0.1412  0.1185  0.1544
  570CB      Cl 1708   2.321   3.716   1.880  0.0571 -0.2219 -0.1348
  570CB      R2 1709   2.139   3.918   2.069  0.1267 -0.1441 -0.1502
  570CB      R3 1710   2.044   3.666   2.052  0.1825 -0.1828  0.0826
  571CB      Cl 1711   1.849   4.474   0.858 -0.1805 -0.1407  0.0424
  571CB      R2 1712   2.139   4.332   0.790 -0.0270  0.2819 -0.2222
  571CB      R3 1713   2.009   4.223   1.000  0.0814 -0.2424 -0.4138
  572CB      Cl 1714   2.277   4.986   2.553  0.3550 -0.0112 -0.2208
  572CB      R2 1715   2.173   5.205   2.777  0.0526 -0.7424  0.3994
  572CB      R3 1716   2.440   5.168   2.775  0.2388  0.2436 -0.3414
  573CB      Cl 1717   2.664   0.614   1.574  0.1055  0.0503 -0.1804
  573CB      R2 1718   2.402   0.429   1.654 -0.0575  0.3540  0.0094
  573CB      R3 1719   2.562   0.490   1.863 -0.0127  0.4381 -0.0486
  574CB      Cl 1720   5.028   2.430   4.837 -0.3638  0.3045  0.0508
  574CB      R2 1721   5.055   2.700   5.025 -0.2150  0.2487  0.1113
  574CB      R3 1722   5.164   2.479   5.134 -0.3369  0.1635  0.0621
  575CB      Cl 1723   3.191   0.907   4.955  0.0571 -0.0033  0.1227
  575CB      R2 1724   3.500   1.024   4.968  0.1001 -0.1232  0.1933
  575CB      R3 1725   3.311   1.215   4.938  0.1774 -0.0454  0.1965
  576CB      Cl 1726   0.848   3.010   2.867  0.0333  0.0207  0.0461
  576CB      R2 1727   1.105   3.011   2.660 -0.0825 -0.0348 -0.0999
  576CB      R3 1728   1.128   2.835   2.863  0.0916  0.1138  0.0126
  577CB      Cl 1729   2.033   0.751   3.656  0.2486  0.0870  0.1083
  577CB      R2 1730   2.094   0.745   3.980  0.1453  0.1236  0.1289
  577CB      R3 1731   2.025   0.506   3.876 -0.2069  0.1840  0.2106
  578CB      Cl 1732   2.491   1.681   0.201 -0.2343  0.1011  0.1773
  578CB      R2 1733   2.659   1.660   0.484  0.0027  0.1354  0.0418
  578CB      R3 1734   2.392   1.683   0.516  0.0420  0.3232  0.2669
  579CB      Cl 1735   0.501   1.027   4.907  0.2227  0.1548 -0.1689
  579CB      R2 1736   0.526   0.998   4.579  0.2090  0.0167 -0.1581
  579CB      R3 1737   0.531   1.253   4.668 -0.3750  0.0964 -0.3146
  580CB      Cl 1738   0.793   2.587   3.476  0.0377 -0.5171 -0.0741
  580CB      R2 1739   0.543   2.483   3.287 -0.2067  0.1019 -0.1145
  580CB      R3 1740   0.736   2.616   3.153 -0.2720  0.3506  0.0303
  581CB      Cl 1741   4.117   0.356   2.459 -0.1082  0.0536 -0.0642
  581CB      R2 1742   4.133   0.026   2.466 -0.3804  0.0385 -0.0370
  581CB      R3 1743   4.330   0.144   2.323  0.0851 -0.1021  0.4585
  582CB      Cl 1744   3.911   1.512   1.342 -0.0854 -0.0562  0.0565
  582CB      R2 1745   3.975   1.819   1.446  0.1585 -0.0016 -0.2396
  582CB      R3 1746   3.842   1.807   1.212  0.2886 -0.1203 -0.3096
  583CB      Cl 1747   0.725   2.790   3.891 -0.2301  0.0578 -0.1103
  583CB      R2 1748   0.514   2.538   3.868  0.1851 -0.3491  0.3204
  583CB      R3 1749   0.442   2.726   4.048 -0.2048 -0.0621 -0.1128
  584CB      Cl 1750   1.425   1.427   0.781  0.1472 -0.0103 -0.1490
  584CB      R2 1751   1.504   1.738   0.862 -0.0443 -0.0976  0.4213
  584CB      R3 1752   1.705   1.560   0.894  0.0594 -0.0429  0.1135
  585CB      Cl 1753   3.918   2.863   4.172 -0.0264 -0.1904 -0.1386
  585CB      R2 1754   3.639   2.797   4.009 -0.1361 -0.1218  0.0194
  585CB      R3 1755   3.601   2.906   4.253  0.0323  0.1167 -0.0578
  586CB      Cl 1756   0.560   1.160   4.058  0.2367 -0.1789  0.0318
  586CB      R2 1757   0.328   0.958   4.177  0.0271 -0.0412 -0.1374
  586CB      R3 1758   0.449   0.867   3.953  0.1119 -0.0960 -0.0699
  587CB      Cl 1759   1.450   0.884   2.357 -0.4043 -0.0016  0.1400
  587CB      R2 1760   1.273   0.989   2.099 -0.5176 -0.0693  0.1892
  587CB      R3 1761   1.405   0.757   2.056 -0.1406  0.1644  0.0266
  588CB      Cl 1762   1.520   4.930   2.710 -0.2119 -0.1886  0.3421
  588CB      R2 1763   1.383   4.677   2.549 -0.0980  0.1312 -0.2933
  588CB      R3 1764   1.209   4.872   2.616 -0.1028  0.1149 -0.2578
  589CB      Cl 1765   1.033   1.155   0.746 -0.1346 -0.1892 -0.0206
  589CB      R2 1766   1.025   1.259   1.059 -0.0120  0.0415 -0.0916
  589CB      R3 1767   1.005   0.991   1.031 -0.2642  0.0370  0.0993
  590CB      Cl 1768   1.057   0.555   4.748 -0.2911  0.1198  0.0755
  590CB      R2 1769   1.174   0.793   4.551  0.0255  0.1376  0.2783
  590CB      R3 1770   0.930   0.846   4.655 -0.0632  0.2099  0.0409
  591CB      Cl 1771   0.934   2.082   0.090 -0.0341  0.1985 -0.1013
  591CB      R2 1772   1.044   2.194  -0.201  0.0002 -0.0558 -0.1885
  591CB      R3 1773   1.114   1.939  -0.147 -0.0953 -0.0445 -0.0033
  592CB      Cl 1774   3.336   2.911   3.346 -0.1194  0.0095 -0.1495
  592CB      R2 1775   3.040   2.768   3.373 -0.2337  0.2725  0.0424
  592CB      R3 1776   3.172   2.793   3.607 -0.0501  0.1429 -0.0444
  593CB      Cl 1777   3.882   2.255   1.482  0.1009  0.1239  0.2910
  593CB      R2 1778   3.862   2.580   1.535 -0.0361  0.2490 -0.4246
  593CB      R3 1779   4.037   2.510   1.341 -0.0140 -0.1061 -0.2834
  594CB      Cl 1780   3.227   2.855   0.255  0.1731  0.1168  0.1487
  594CB      R2 1781   3.158   3.175   0.297  0.2300  0.1600 -0.0739
  594CB      R3 1782   3.054   3.068   0.072  0.4905  0.1073 -0.1726
  595CB      Cl 1783   4.528   0.565   4.524  0.1742 -0.0203 -0.0535
  595CB      R2 1784   4.626   0.743   4.783 -0.1436  0.2281 -0.0986
  595CB      R3 1785   4.754   0.804   4.554  0.1583 -0.0119  0.0003
  596CB      Cl 1786   4.585   1.603   2.454 -0.1091  0.0154 -0.1800
  596CB      R2 1787   4.295   1.511   2.582 -0.1495  0.0351 -0.2564
  596CB      R3 1788   4.468   1.307   2.543 -0.0736  0.0500 -0.0154
  597CB      Cl 1789   1.940   2.213   3.013  0.4678 -0.1335 -0.2130
  597CB      R2 1790   1.734   2.020   2.842  0.1253  0.0056  0.0317
  597CB      R3 1791   1.777   2.262   2.730 -0.1122  0.1032  0.1437
  598CB      Cl 1792   2.625   3.368   2.611  0.0494  0.3033 -0.1528
  598CB      R2 1793   2.796   3.594   2.780  0.1625  0.1983 -0.1254
  598CB      R3 1794   2.797   3.349   2.892 -0.1246  0.2283 -0.0499
  599CB      Cl 1795   3.368   3.768   4.782 -0.2845 -0.2989 -0.1183
  599CB      R2 1796   3.485   3.670   4.489  0.3919 -0.1101  0.0723
  599CB      R3 1797   3.528   3.931   4.544 -0.3203  0.0278  0.0748
  600CB      Cl 1798   4.490   0.583   1.980 -0.0462  0.0657 -0.1437
  600CB      R2 1799   4.628   0.283   1.980  0.1603  0.1591 -0.1018
  600CB      R3 1800   4.617   0.400   1.737 -0.0180  0.0746 -0.1357
  601CB      Cl 1801   4.885   4.500   4.213 -0.0552  0.0901 -0.0202
  601CB      R2 1802   4.774   4.199   4.288 -0.1159  0.1326  0.0612
  601CB      R3 1803   4.807   4.242   4.024 -0.5115  0.1941  0.0148
  602CB      Cl 1804   2.057   2.572   0.137 -0.2161 -0.0368  0.0968
  602CB      R2 1805   1.975   2.522  -0.179  0.1583 -0.0351 -0.0051
  602CB      R3 1806   1.843   2.726  -0.061  0.0897  0.0303 -0.1912
  603CB      Cl 1807   0.200   0.583   3.119 -0.0910 -0.0379 -0.0439
  603CB      R2 1808   0.089   0.463   3.406 -0.1487  0.1001 -0.0075
  603CB      R3 1809   0.309   0.617   3.429 -0.2364  0.2282 -0.0191
  604CB      Cl 1810   0.948   4.306   1.195 -0.1730  0.0257 -0.0215
  604CB      R2 1811   0.766   4.440   1.436 -0.1242 -0.0593  0.0638
  604CB      R3 1812   0.774   4.170   1.441 -0.0491 -0.0581  0.0211
  605CB      Cl 1813   0.292   1.273   3.111 -0.1759  0.1856 -0.3807
  605CB      R2 1814  -0.012   1.342   3.219 -0.0309  0.1907  0.0414
  605CB      R3 1815   0.054   1.080   3.233  0.0960  0.2313  0.2659
  606CB      Cl 1816   4.279   3.992   3.728  0.0346  0.1642  0.1915
  606CB      R2 1817   4.257   3.663   3.735  0.1856  0.1436 -0.1289
  606CB      R3 1818   4.486   3.760   3.837  0.1160  0.1541  0.0194
  607CB      Cl 1819   5.023   1.994   4.750 -0.1793 -0.0895 -0.2719
  607CB      R2 1820   4.769   1.784   4.774  0.0647 -0.3545  0.0958
  607CB      R3 1821   5.011   1.664   4.763  0.2152 -0.0958  0.4011
  608CB      Cl 1822   2.521   1.012   2.993 -0.0976 -0.0912 -0.2784
  608CB      R2 1823   2.469   0.864   3.284  0.2181 -0.1092 -0.2274
  608CB      R3 1824   2.361   1.111   3.265  0.1311 -0.1383 -0.1237
  609CB      Cl 1825   1.299   3.589   0.140  0.1654 -0.1279  0.1900
  609CB      R2 1826   1.466   3.720   0.393  0.0442  0.1168  0.1455
  609CB      R3 1827   1.342   3.902   0.236 -0.0010 -0.0427 -0.0065
  610CB      Cl 1828   0.794   1.673   1.684 -0.2144  0.2872 -0.0243
  610CB      R2 1829   0.934   1.886   1.893  0.0127  0.2385 -0.1235
  610CB      R3 1830   0.913   1.977   1.640  0.0684  0.1616 -0.1563
  611CB      Cl 1831   0.606   0.413   0.045  0.0213 -0.2439  0.2993
  611CB      R2 1832   0.356   0.619  -0.018  0.0471 -0.2611  0.1371
  611CB      R3 1833   0.340   0.383  -0.148  0.1634 -0.2499  0.1006
  612CB      Cl 1834   2.182   3.416   1.616 -0.0421 -0.1686 -0.1077
  612CB      R2 1835   2.296   3.179   1.416  0.2710  0.0709 -0.2222
  612CB      R3 1836   2.346   3.430   1.330 -0.0640  0.1831 -0.1074
  613CB      Cl 1837   3.202   0.464   4.843  0.0385 -0.1262  0.1421
  613CB      R2 1838   2.907   0.586   4.762  0.0172 -0.3206 -0.0853
  613CB      R3 1839   3.069   0.541   4.551  0.2605 -0.0946  0.0471
  614CB      Cl 1840   3.496   3.134   2.977  0.1295 -0.0687 -0.0508
  614CB      R2 1841   3.751   3.251   3.152  0.0819  0.4316 -0.2977
  614CB      R3 1842   3.702   3.386   2.924 -0.2572  0.1898 -0.3768
  615CB      Cl 1843   4.047   0.406   0.926 -0.1274  0.0454  0.2562
  615CB      R2 1844   4.127   0.088   0.961 -0.2615 -0.0171  0.0165
  615CB      R3 1845   3.977   0.187   1.163 -0.0204 -0.0388  0.2108
  616CB      Cl 1846   1.940   1.779   2.371 -0.1388  0.0682 -0.1575
  616CB      R2 1847   1.757   1.886   2.119  0.0703  0.2316 -0.2433
  616CB      R3 1848   2.001   2.000   2.134  0.0933  0.1574 -0.0184
  617CB      Cl 1849   1.168   1.189   1.604 -0.2095 -0.3789 -0.0861
  617CB      R2 1850   1.142   0.867   1.674 -0.1118 -0.4292 -0.2738
  617CB      R3 1851   1.236   0.919   1.426  0.1707 -0.2565 -0.1359
  618CB      Cl 1852   4.514   2.205   3.929  0.0533 -0.1128 -0.0351
  618CB      R2 1853   4.757   2.340   3.751  0.1066  0.0210  0.1358
  618CB      R3 1854   4.535   2.493   3.769 -0.0278 -0.1399 -0.0952
  619CB      Cl 1855   4.323   4.682   1.037  0.2697 -0.0982 -0.1142
  619CB      R2 1856   4.005   4.664   0.953  0.2687  0.3470 -0.2346
  619CB      R3 1857   4.050   4.782   1.192  0.3295 -0.0343 -0.0487
  620CB      Cl 1858   1.517   4.606   3.446  0.1504 -0.1052  0.1440
  620CB      R2 1859   1.423   4.636   3.761 -0.0860 -0.2354  0.0886
  620CB      R3 1860   1.319   4.823   3.596 -0.0453 -0.2291  0.0699
  621CB      Cl 1861   0.946   1.358   2.252  0.3812  0.0185 -0.2442
  621CB      R2 1862   0.812   1.092   2.109  0.1919 -0.1124  0.1601
  621CB      R3 1863   0.909   1.275   1.935  0.0121 -0.2849 -0.1294
  622CB      Cl 1864   2.950   4.973   4.605 -0.0664 -0.0467  0.2820
  622CB      R2 1865   2.677   5.030   4.429 -0.0252  0.0472  0.2478
  622CB      R3 1866   2.697   5.180   4.652  0.1472  0.2668  0.0893
  623CB      Cl 1867   4.752   0.002   4.124  0.1713 -0.1798  0.1436
  623CB      R2 1868   4.907   0.223   3.934  0.1418 -0.4109 -0.1583
  623CB      R3 1869   4.743   0.332   4.119  0.2528 -0.1790 -0.1925
  624CB      Cl 1870   2.052   1.880   3.723  0.3115  0.3715  0.3027
  624CB      R2 1871   1.878   2.160   3.712  0.2540  0.3309  0.1470
  624CB      R3 1872   2.090   2.155   3.545 -0.0058  0.1125 -0.1903
  625CB      Cl 1873   0.529   1.832   1.056  0.0100 -0.0392  0.0140
  625CB      R2 1874   0.800   1.646   1.091 -0.1707 -0.2707  0.2307
  625CB      R3 1875   0.816   1.888   1.210 -0.0763 -0.3011  0.2811
  626CB      Cl 1876   2.922   4.882   2.759  0.1758 -0.1031  0.0128
  626CB      R2 1877   3.061   5.117   2.573  0.0011 -0.0195 -0.0139
  626CB      R3 1878   3.203   4.887   2.585 -0.0189 -0.0502 -0.3065
  627CB      Cl 1879   3.845   1.636   0.796  0.1088 -0.1741 -0.2049
  627CB      R2 1880   4.028   1.476   0.574  0.5618  0.2632 -0.1666
  627CB      R3 1881   3.901   1.693   0.476 -0.1521 -0.1591 -0.2501
  628CB      Cl 1882   4.576   1.496   4.473  0.1145 -0.0053  0.0408
  628CB      R2 1883   4.432   1.405   4.755 -0.0647  0.0798 -0.0213
  628CB      R3 1884   4.486   1.200   4.588 -0.0755  0.0431  0.0198
  629CB      Cl 1885   3.007   2.430   1.850 -0.1260  0.0721 -0.3459
  629CB      R2 1886   2.966   2.757   1.864 -0.1498  0.0637 -0.2094
  629CB      R3 1887   2.737   2.616   1.886 -0.1171  0.0331 -0.0471
  630CB      Cl 1888   2.344   4.827   4.223 -0.1204  0.2631  0.0897
  630CB      R2 1889   2.054   4.857   4.378 -0.0419  0.1322  0.2649
  630CB      R3 1890   2.266   4.937   4.524 -0.0096  0.4719  0.0444
  631CB      Cl 1891   3.038   3.723   4.404 -0.0246  0.1623  0.0521
  631CB      R2 1892   2.802   3.496   4.448 -0.0262  0.1399 -0.0672
  631CB      R3 1893   2.855   3.552   4.189  0.2230  0.0146 -0.0465
  632CB      Cl 1894   3.733   0.924   2.982  0.2192 -0.0830  0.1206
  632CB      R2 1895   3.477   0.928   3.190  0.1615 -0.0243  0.0489
  632CB      R3 1896   3.699   1.050   3.286  0.1665 -0.0853  0.1157
  633CB      Cl 1897   2.732   2.955   3.143 -0.2161 -0.4973  0.1923
  633CB      R2 1898   2.485   3.162   3.215  0.0257 -0.1303 -0.0039
  633CB      R3 1899   2.462   3.041   2.974  0.1334  0.0606 -0.1127
  634CB      Cl 1900   2.654   0.467   2.301  0.1934  0.2084  0.0615
  634CB      R2 1901   2.686   0.156   2.407  0.2100  0.3028  0.3420
  634CB      R3 1902   2.702   0.184   2.139  0.0171  0.0385  0.2990
  635CB      Cl 1903   4.114   2.416   1.865 -0.0055 -0.0498  0.1782
  635CB      R2 1904   3.932   2.205   2.042 -0.4115 -0.1971 -0.3864
  635CB      R3 1905   3.794   2.416   1.946 -0.1454  0.0056 -0.3347
  636CB      Cl 1906   2.620   3.400   1.688  0.6272 -0.0498  0.3005
  636CB      R2 1907   2.578   3.097   1.811  0.2696  0.0344  0.3976
  636CB      R3 1908   2.761   3.112   1.613 -0.0089 -0.3260  0.0978
  637CB      Cl 1909   3.524   2.221   4.470 -0.1513  0.2715  0.0324
  637CB      R2 1910   3.560   2.226   4.798  0.1111 -0.0801  0.0151
  637CB      R3 1911   3.305   2.258   4.714  0.0195 -0.1479  0.2592
   5.03980   5.05666   5.05666
