Butane box
 2197
    1BUT     C1    1   2.723   2.540   2.907  0.3387  0.3577 -0.0784
    2BUT     C1    2   3.530   3.538   2.153  0.1806 -0.0308 -0.3121
    3BUT     C1    3   5.384   2.191   0.047  0.0677 -0.1700 -0.2315
    4BUT     C1    4   2.253   1.257   1.706 -0.1521  0.1048 -0.1161
    5BUT     C1    5   1.494   2.770   2.232 -0.3007 -0.1937 -0.0255
    6BUT     C1    6   4.935   3.518   1.622  0.1571  0.3713  0.0890
    7BUT     C1    7   4.469   5.727   5.235  0.0003  0.0550 -0.1315
    8BUT     C1    8   3.557   0.838   0.445  0.2134 -0.0479  0.0448
    9BUT     C1    9   1.213   2.066   0.630  0.1624 -0.0715 -0.0242
   10BUT     C1   10   1.043   0.404   0.251 -0.0818 -0.0794  0.0219
   11BUT     C1   11   3.878   2.156   1.030 -0.1912 -0.1881  0.0187
   12BUT     C1   12   5.715   3.661   1.007  0.2805  0.1723  0.1349
   13BUT     C1   13   4.947   6.333   1.213  0.2497  0.1688  0.2921
   14BUT     C1   14   6.221   6.107   4.650 -0.2539 -0.2290 -0.0707
   15BUT     C1   15   3.492   6.463   5.065  0.1155 -0.0882 -0.1818
   16BUT     C1   16   1.500   0.975   0.032  0.1915 -0.0024 -0.1904
   17BUT     C1   17   0.728   2.882   1.213  0.3193  0.3605 -0.0175
   18BUT     C1   18   1.056   3.453   5.044 -0.1427 -0.0874  0.1696
   19BUT     C1   19   3.206   1.712   5.062  0.1318 -0.2054  0.2776
   20BUT     C1   20   5.884   5.825   5.423  0.0450 -0.2156  0.1705
   21BUT     C1   21   3.442   0.621   3.223 -0.2964 -0.1695  0.1158
   22BUT     C1   22   6.228   2.159   2.880 -0.0423 -0.2140  0.1398
   23BUT     C1   23   6.415   3.082   3.993  0.2140 -0.0746  0.1057
   24BUT     C1   24   6.079   4.353   4.633  0.0769 -0.0093 -0.0866
   25BUT     C1   25   2.837   2.914   0.263  0.0679 -0.1054  0.2877
   26BUT     C1   26   3.891   3.082   2.267  0.1591 -0.0618  0.0470
   27BUT     C1   27   1.618   2.547   0.682  0.0814  0.0152  0.1640
   28BUT     C1   28   2.061   4.571   6.416  0.2363 -0.1740 -0.0237
   29BUT     C1   29   2.506   4.656   6.524 -0.0382  0.0660  0.2916
   30BUT     C1   30   5.900   1.893   1.203 -0.0041 -0.0034 -0.2881
   31BUT     C1   31   2.879   0.465   3.926 -0.0224 -0.0751  0.2637
   32BUT     C1   32   1.206   4.897   0.517  0.0666 -0.0304  0.1058
   33BUT     C1   33   2.254   5.873   2.197 -0.0093 -0.1590 -0.4320
   34BUT     C1   34   1.304   3.074   1.107  0.0485  0.1304  0.2764
   35BUT     C1   35   5.048   5.120   4.898  0.0300 -0.0551 -0.0517
   36BUT     C1   36   1.431   6.482   5.651 -0.0441 -0.1287  0.0403
   37BUT     C1   37   3.694   5.409   5.826  0.2367 -0.2774 -0.0414
   38BUT     C1   38   3.707   1.742   5.156  0.3515  0.2563  0.1554
   39BUT     C1   39   5.546   5.858   6.484 -0.1528  0.0963  0.1191
   40BUT     C1   40   1.801   3.249   0.214 -0.1794 -0.4052  0.3397
   41BUT     C1   41   1.629   4.426   5.054 -0.0406 -0.1474 -0.0181
   42BUT     C1   42   0.441   6.492   4.212 -0.1794  0.3204  0.0357
   43BUT     C1   43   4.966   2.958   4.672 -0.0688  0.1171 -0.2394
   44BUT     C1   44   0.208   4.815   1.650 -0.0519 -0.1710  0.4631
   45BUT     C1   45   0.871   3.334   6.350 -0.2716 -0.3006  0.1912
   46BUT     C1   46   3.345   2.685   4.008 -0.1969 -0.3291 -0.1429
   47BUT     C1   47   2.462   2.074   0.515  0.0117 -0.1456  0.0457
   48BUT     C1   48   0.124   0.401   3.285  0.0227  0.1311 -0.0266
   49BUT     C1   49   3.789   3.398   4.774  0.0930 -0.1316 -0.0487
   50BUT     C1   50   1.076   0.385   3.892 -0.1443 -0.0814  0.2108
   51BUT     C1   51   1.301   4.171   1.777  0.0704 -0.0094  0.2114
   52BUT     C1   52   5.787   1.695   6.573 -0.1264  0.1550  0.0111
   53BUT     C1   53   2.127   0.383   4.363 -0.1793  0.1779 -0.2411
   54BUT     C1   54   3.163   1.914   2.846  0.0485  0.1178 -0.2185
   55BUT     C1   55   0.758   4.869   4.080  0.0742 -0.1444  0.0767
   56BUT     C1   56   5.013   3.773   4.778  0.2538 -0.0039 -0.1569
   57BUT     C1   57   2.712   6.527   1.287  0.1290 -0.0653 -0.1185
   58BUT     C1   58   5.196   2.354   0.882  0.3060  0.0261  0.4482
   59BUT     C1   59   5.925   2.243   0.794 -0.0650  0.1569 -0.3256
   60BUT     C1   60   4.968   5.947   3.220 -0.1750  0.1804 -0.1048
   61BUT     C1   61   5.352   1.732   6.398 -0.1197 -0.0774  0.4107
   62BUT     C1   62   0.800   4.681   3.414  0.2634 -0.0855 -0.0231
   63BUT     C1   63   2.424   2.172   1.214 -0.1478  0.2237  0.1867
   64BUT     C1   64   0.138   6.239   4.453 -0.0073  0.2273 -0.1559
   65BUT     C1   65   6.352   6.589   4.614 -0.1764 -0.1978  0.0461
   66BUT     C1   66   0.184   3.695   5.422 -0.0711  0.0010 -0.1076
   67BUT     C1   67   0.802   5.670   3.349 -0.0420  0.2355  0.0801
   68BUT     C1   68   1.700   1.785   6.050 -0.1603 -0.1318 -0.1685
   69BUT     C1   69   4.661   2.038   0.785  0.1046 -0.3151 -0.1057
   70BUT     C1   70   1.767   4.796   2.790 -0.1490 -0.0938  0.1304
   71BUT     C1   71   2.998   1.415   0.883  0.1377 -0.4169 -0.0244
   72BUT     C1   72   4.721   2.107   5.124 -0.2121 -0.1365 -0.1511
   73BUT     C1   73   6.352   0.814   4.576  0.0907 -0.0203 -0.1255
   74BUT     C1   74   1.650   0.757   6.133 -0.1555  0.3325 -0.1413
   75BUT     C1   75   1.979   2.551   3.521  0.0072  0.0147  0.1617
   76BUT     C1   76   3.620   1.094   3.342  0.3503 -0.1230  0.1864
   77BUT     C1   77   6.329   1.534   1.227  0.0919  0.1980 -0.0765
   78BUT     C1   78   6.460   0.412   0.073  0.0531  0.2404 -0.1177
   79BUT     C1   79   3.431   5.216   2.479  0.1211 -0.0340 -0.1116
   80BUT     C1   80   5.565   1.743   3.403 -0.2398 -0.1777  0.0717
   81BUT     C1   81   4.399   5.819   2.532  0.0697 -0.2153 -0.0334
   82BUT     C1   82   3.154   0.261   2.900  0.2515 -0.1379 -0.0416
   83BUT     C1   83   5.788   4.302   0.993 -0.0581 -0.1886 -0.4048
   84BUT     C1   84   0.176   1.766   0.570  0.1377 -0.2818 -0.2695
   85BUT     C1   85   0.029   0.614   4.916 -0.1001 -0.2317  0.2398
   86BUT     C1   86   3.759   3.441   3.309  0.1742 -0.1403  0.0289
   87BUT     C1   87   0.789   4.601   2.420 -0.0146 -0.1550  0.2605
   88BUT     C1   88   1.336   5.595   3.340  0.0388  0.0402 -0.0697
   89BUT     C1   89   3.252   2.426   2.165  0.0125  0.1215 -0.0138
   90BUT     C1   90   6.280   3.622   2.531  0.1673  0.0229 -0.2130
   91BUT     C1   91   2.909   4.373   4.972  0.3330 -0.0240  0.0389
   92BUT     C1   92   5.071   3.915   1.368 -0.1845  0.1724  0.0073
   93BUT     C1   93   2.441   1.073   2.132 -0.1059  0.2850  0.0550
   94BUT     C1   94   3.983   1.384   5.369 -0.2398  0.3118  0.3544
   95BUT     C1   95   3.501   6.000   3.027  0.1004 -0.1672 -0.0646
   96BUT     C1   96   3.342   5.765   1.249 -0.0560 -0.1667 -0.0536
   97BUT     C1   97   4.066   3.288   6.602 -0.1676  0.0211 -0.0772
   98BUT     C1   98   5.852   0.828   4.401 -0.0483 -0.2226 -0.0857
   99BUT     C1   99   5.587   0.547   2.691  0.1345  0.1295 -0.0729
  100BUT     C1  100   1.687   3.085   1.453 -0.0411  0.0257  0.3529
  101BUT     C1  101   0.686   3.843   1.068 -0.0840  0.0203 -0.1529
  102BUT     C1  102   5.088   6.538   5.396  0.4443 -0.1988 -0.0998
  103BUT     C1  103   4.621   0.741   3.067 -0.0822 -0.2097 -0.0325
  104BUT     C1  104   4.860   5.489   1.056 -0.0940 -0.1400 -0.1241
  105BUT     C1  105   1.575   2.157   0.995 -0.0238 -0.1209  0.1924
  106BUT     C1  106   2.478   4.197   1.974 -0.0961  0.1159 -0.0769
  107BUT     C1  107   2.202   4.854   2.159 -0.0362  0.2361 -0.2286
  108BUT     C1  108   0.012   2.029   4.248 -0.2401 -0.1795 -0.3885
  109BUT     C1  109   4.245   1.801   5.009 -0.1899  0.2350 -0.1947
  110BUT     C1  110   5.418   0.849   3.128  0.0490  0.0439 -0.1292
  111BUT     C1  111   2.633   4.685   1.725 -0.0051  0.1506  0.1826
  112BUT     C1  112   3.295   4.213   2.512  0.2233  0.0193  0.2053
  113BUT     C1  113   5.345   0.894   6.541  0.0995  0.0457 -0.0868
  114BUT     C1  114   2.441   4.870   5.332  0.0055 -0.2649 -0.0147
  115BUT     C1  115   4.838   6.079   2.252 -0.1000 -0.1383 -0.0111
  116BUT     C1  116   6.049   1.579   1.572 -0.0983  0.0775 -0.2255
  117BUT     C1  117   0.331   1.675   2.844  0.4010  0.2363  0.1949
  118BUT     C1  118   2.016   2.651   4.032  0.1691  0.0857 -0.2679
  119BUT     C1  119   2.921   2.935   0.822  0.0306 -0.0667  0.1038
  120BUT     C1  120   2.375   0.715   4.871 -0.2439  0.0339  0.0056
  121BUT     C1  121   2.403   3.345   4.383  0.2411  0.1602 -0.0010
  122BUT     C1  122   0.606   5.047   4.963 -0.3127  0.0158  0.1112
  123BUT     C1  123   0.679   1.374   0.012  0.0353  0.0261  0.3166
  124BUT     C1  124   2.035   3.497   5.647 -0.1657  0.0535  0.2703
  125BUT     C1  125   2.622   6.172   4.791  0.3240 -0.1057 -0.2671
  126BUT     C1  126   5.485   3.318   2.151  0.2241  0.0377 -0.0605
  127BUT     C1  127   2.837   3.902   3.104  0.2881  0.1801  0.1956
  128BUT     C1  128   1.850   2.157   3.937  0.3323  0.0957  0.1326
  129BUT     C1  129   0.719   6.271   1.452 -0.0997  0.1470  0.0202
  130BUT     C1  130   4.096   3.282   1.486 -0.0115 -0.2851 -0.3620
  131BUT     C1  131   2.194   3.900   4.375 -0.1139  0.0206  0.1910
  132BUT     C1  132   0.033   5.597   3.002  0.2085  0.0567 -0.2042
  133BUT     C1  133   5.237   0.324   0.663 -0.1106  0.2260 -0.2288
  134BUT     C1  134   3.051   0.986   0.562 -0.0839  0.2849 -0.1019
  135BUT     C1  135   4.497   4.932   5.325 -0.0001 -0.4295 -0.0650
  136BUT     C1  136   5.404   2.674   0.063 -0.1394 -0.1048  0.2392
  137BUT     C1  137   1.863   0.843   1.663 -0.0097  0.2016  0.1103
  138BUT     C1  138   1.271   3.619   6.090  0.1427  0.0128 -0.1808
  139BUT     C1  139   5.554   5.861   2.524  0.1956 -0.0497  0.0711
  140BUT     C1  140   1.240   3.169   3.139  0.0736  0.2083 -0.0161
  141BUT     C1  141   1.613   0.716   3.803  0.0159  0.0776 -0.1663
  142BUT     C1  142   1.252   1.088   4.693 -0.0590 -0.1307  0.2749
  143BUT     C1  143   1.371   4.427   3.604 -0.1387  0.4267 -0.1603
  144BUT     C1  144   4.559   0.936   5.364  0.0251  0.0350  0.1938
  145BUT     C1  145   4.164   5.930   4.116  0.2200 -0.4418 -0.0492
  146BUT     C1  146   1.001   3.072   3.907 -0.0161  0.0364 -0.1286
  147BUT     C1  147   6.198   0.188   0.504  0.1965  0.1461  0.0379
  148BUT     C1  148   0.938   6.230   5.699  0.0324  0.3596 -0.3617
  149BUT     C1  149   4.527   5.321   0.378 -0.2009 -0.1017 -0.2056
  150BUT     C1  150   0.387   2.800   1.691  0.2471 -0.1559  0.0069
  151BUT     C1  151   0.519   4.203   2.142 -0.0528  0.0749 -0.2064
  152BUT     C1  152   0.274   1.333   4.011 -0.2003  0.2901 -0.0634
  153BUT     C1  153   4.832   0.649   4.048 -0.0345 -0.0048  0.0789
  154BUT     C1  154   6.148   1.415   0.309  0.0110  0.0569  0.1561
  155BUT     C1  155   6.333   6.016   2.867  0.1076 -0.0112 -0.0287
  156BUT     C1  156   6.572   5.113   5.423  0.0345  0.1356 -0.0404
  157BUT     C1  157   3.613   3.983   0.766 -0.0913  0.4047 -0.0687
  158BUT     C1  158   3.974   0.409   3.137  0.2465 -0.0950  0.1597
  159BUT     C1  159   4.863   5.386   3.405  0.0726  0.2860  0.1376
  160BUT     C1  160   6.490   0.916   4.093 -0.2919  0.1960 -0.0191
  161BUT     C1  161   5.233   6.370   1.915 -0.0434 -0.1774  0.2591
  162BUT     C1  162   5.914   2.288   0.141  0.0526  0.2395  0.0865
  163BUT     C1  163   0.260   2.189   5.200 -0.1859  0.1364 -0.0604
  164BUT     C1  164   5.628   4.325   5.800  0.3699 -0.0576  0.2852
  165BUT     C1  165   1.365   0.820   1.509  0.0804 -0.0421 -0.1340
  166BUT     C1  166   0.383   4.674   2.139  0.1908 -0.0766  0.0561
  167BUT     C1  167   6.075   0.420   4.801 -0.0908  0.1931 -0.1985
  168BUT     C1  168   0.517   6.167   3.891  0.0034 -0.2822  0.1146
  169BUT     C1  169   5.041   5.369   0.516 -0.1859  0.1553  0.1829
  170BUT     C1  170   1.024   0.088   0.721  0.0218  0.0689  0.0975
  171BUT     C1  171   0.895   5.870   6.128 -0.3484  0.0485  0.3045
  172BUT     C1  172   2.448   2.878   4.168 -0.1706 -0.3769  0.3109
  173BUT     C1  173   2.445   0.883   1.447  0.1257 -0.0355  0.1307
  174BUT     C1  174   6.234   3.436   1.011  0.0758 -0.0256  0.0694
  175BUT     C1  175   4.016   4.483   2.167  0.0794  0.1393  0.3159
  176BUT     C1  176   2.218   5.394   6.101 -0.2304 -0.3038  0.0616
  177BUT     C1  177   2.420   1.812   6.314 -0.0247 -0.4292 -0.0359
  178BUT     C1  178   6.122   6.333   1.754  0.1054  0.2077  0.1308
  179BUT     C1  179   4.300   1.329   4.943  0.0499 -0.1779  0.2035
  180BUT     C1  180   0.491   2.228   2.596 -0.1195  0.3738 -0.1660
  181BUT     C1  181   1.980   3.960   3.280 -0.1260  0.0674  0.1802
  182BUT     C1  182   4.625   1.576   3.993  0.1618  0.2013  0.0147
  183BUT     C1  183   4.498   3.489   1.138 -0.0029 -0.3171  0.1500
  184BUT     C1  184   2.653   4.200   0.192  0.0611 -0.1142 -0.1900
  185BUT     C1  185   4.371   2.204   6.479 -0.1857 -0.0434  0.3262
  186BUT     C1  186   0.895   6.114   4.718 -0.0453 -0.0752  0.0522
  187BUT     C1  187   6.590   6.177   1.721 -0.1426  0.0030  0.1152
  188BUT     C1  188   2.697   5.740   6.211 -0.0667 -0.0321  0.0973
  189BUT     C1  189   4.320   3.539   1.925  0.2410 -0.2317  0.1912
  190BUT     C1  190   4.043   1.794   4.535 -0.1232 -0.0644  0.3096
  191BUT     C1  191   0.147   6.416   5.872  0.0599 -0.2894  0.5386
  192BUT     C1  192   4.422   4.180   3.806 -0.0159 -0.0476 -0.0100
  193BUT     C1  193   0.837   0.456   0.970 -0.1561 -0.0614 -0.1345
  194BUT     C1  194   5.479   4.008   4.888  0.0141  0.2709 -0.1258
  195BUT     C1  195   1.925   0.362   4.928 -0.0376  0.1152  0.4142
  196BUT     C1  196   3.486   2.916   0.867 -0.3059  0.0300 -0.2579
  197BUT     C1  197   5.700   0.118   1.510  0.0375  0.0085 -0.0220
  198BUT     C1  198   0.947   2.297   4.492 -0.1105  0.4764 -0.2551
  199BUT     C1  199   1.850   6.252   1.092 -0.0802  0.0128  0.1740
  200BUT     C1  200   0.651   0.941   6.373 -0.1259  0.0965 -0.1470
  201BUT     C1  201   1.741   2.424   0.096 -0.1249 -0.1557  0.1038
  202BUT     C1  202   5.692   4.546   4.936 -0.0646  0.0360 -0.2310
  203BUT     C1  203   5.592   2.556   2.514  0.0234  0.2828  0.0062
  204BUT     C1  204   0.312   2.659   0.133  0.2919 -0.0611 -0.2532
  205BUT     C1  205   6.039   2.930   6.072  0.0508  0.1322  0.1581
  206BUT     C1  206   2.759   5.528   5.814 -0.0251 -0.0866 -0.1669
  207BUT     C1  207   3.332   5.817   1.817 -0.0337 -0.2378  0.0041
  208BUT     C1  208   0.514   1.932   5.585  0.0070  0.0173  0.1514
  209BUT     C1  209   3.637   6.168   1.606  0.0355  0.1911  0.1330
  210BUT     C1  210   2.149   3.897   1.398  0.0278 -0.0498 -0.0273
  211BUT     C1  211   2.558   2.051   2.109 -0.4394 -0.0968  0.1132
  212BUT     C1  212   5.490   5.042   5.531 -0.1544  0.0559  0.0649
  213BUT     C1  213   2.659   0.615   4.370  0.1504 -0.0299  0.3258
  214BUT     C1  214   2.440   4.451   5.059  0.1894 -0.0979 -0.0437
  215BUT     C1  215   5.639   1.101   4.040 -0.1625 -0.2066 -0.1210
  216BUT     C1  216   5.971   1.825   3.116 -0.0452  0.0388  0.2614
  217BUT     C1  217   5.160   2.857   5.636 -0.4626  0.1633 -0.2851
  218BUT     C1  218   1.156   1.916   5.133 -0.0003  0.1384 -0.0478
  219BUT     C1  219   3.804   0.764   1.530  0.0392  0.0533 -0.3511
  220BUT     C1  220   3.294   2.702   5.440 -0.1119  0.1387 -0.0851
  221BUT     C1  221   1.809   4.238   1.780 -0.0340  0.2023  0.0618
  222BUT     C1  222   4.682   2.498   5.484 -0.3341  0.0216  0.1759
  223BUT     C1  223   4.771   1.430   1.359  0.0192 -0.0150  0.1990
  224BUT     C1  224   2.754   5.271   5.271  0.0635 -0.0977  0.0050
  225BUT     C1  225   5.103   5.646   1.835 -0.2126 -0.1315  0.1398
  226BUT     C1  226   5.836   6.204   2.740 -0.0528 -0.0657 -0.0220
  227BUT     C1  227   1.216   0.070   5.162  0.2652  0.0349 -0.3439
  228BUT     C1  228   5.942   0.338   2.367 -0.0622 -0.1276 -0.3029
  229BUT     C1  229   5.570   5.296   2.346 -0.0216 -0.1058  0.3492
  230BUT     C1  230   5.420   2.723   1.832  0.1424 -0.1916 -0.0980
  231BUT     C1  231   3.229   4.712   4.258  0.2048 -0.4045 -0.1022
  232BUT     C1  232   1.354   6.186   3.993  0.1419  0.0833  0.0069
  233BUT     C1  233   4.958   1.012   1.113 -0.0348  0.2158  0.0676
  234BUT     C1  234   6.278   4.757   0.796  0.2078 -0.3704 -0.0453
  235BUT     C1  235   0.761   1.497   5.612  0.1331 -0.1653 -0.1163
  236BUT     C1  236   0.684   6.359   6.123 -0.1697  0.0365 -0.0117
  237BUT     C1  237   3.028   3.228   6.583 -0.0897 -0.3806  0.2188
  238BUT     C1  238   4.832   2.733   1.943  0.2965  0.0554 -0.4441
  239BUT     C1  239   3.120   1.127   2.125  0.0232 -0.0548 -0.2959
  240BUT     C1  240   0.663   4.275   5.243  0.3378 -0.0204  0.2894
  241BUT     C1  241   0.381   5.292   4.024  0.1666  0.3533 -0.3288
  242BUT     C1  242   2.331   3.887   2.845  0.2133 -0.1120  0.3096
  243BUT     C1  243   6.262   3.975   5.463  0.2080 -0.2054  0.0017
  244BUT     C1  244   5.205   6.013   4.166  0.0424 -0.2184  0.0552
  245BUT     C1  245   5.859   3.884   4.039 -0.3855 -0.2008 -0.1550
  246BUT     C1  246   0.359   3.501   3.154 -0.2596 -0.1121  0.4394
  247BUT     C1  247   1.995   6.534   4.171  0.1323  0.2414 -0.0294
  248BUT     C1  248   2.969   3.625   1.232  0.1300 -0.1458  0.0887
  249BUT     C1  249   4.151   1.103   1.022 -0.2287  0.1972  0.1864
  250BUT     C1  250   4.690   6.316   1.709 -0.0555 -0.0304  0.0858
  251BUT     C1  251   0.869   2.708   4.207  0.2164 -0.0020 -0.2279
  252BUT     C1  252   4.476   0.039   1.331 -0.1357  0.1851 -0.1001
  253BUT     C1  253   2.745   6.472   0.551 -0.2667 -0.3440 -0.1186
  254BUT     C1  254   1.178   5.208   4.182  0.0820 -0.1327 -0.1798
  255BUT     C1  255   5.557   3.346   4.252 -0.1236  0.0980 -0.1729
  256BUT     C1  256   4.119   4.758   1.158  0.0520 -0.2331  0.0361
  257BUT     C1  257   0.210   0.237   2.175  0.1962  0.3190  0.0161
  258BUT     C1  258   2.907   5.970   3.890 -0.0099 -0.1228  0.1521
  259BUT     C1  259   0.135   3.742   5.898 -0.1405  0.1271  0.0494
  260BUT     C1  260   0.371   6.111   2.150  0.3025  0.0428  0.1015
  261BUT     C1  261   5.993   3.805   3.502  0.3175 -0.0093  0.5513
  262BUT     C1  262   0.509   4.596   0.354  0.0348  0.0167  0.1062
  263BUT     C1  263   1.470   3.097   4.250  0.1655  0.4053  0.2187
  264BUT     C1  264   4.607   6.459   0.285 -0.0621 -0.1656  0.3938
  265BUT     C1  265   2.323   2.798   2.670  0.1361 -0.0546 -0.1148
  266BUT     C1  266   4.124   5.311   6.077  0.0945  0.1309 -0.2439
  267BUT     C1  267   0.458   3.310   1.623  0.1804 -0.0638 -0.1288
  268BUT     C1  268   1.104   6.151   5.198  0.3334  0.2438  0.1722
  269BUT     C1  269   0.653   5.185   6.233 -0.0833 -0.0410 -0.1696
  270BUT     C1  270   6.504   1.596   6.563 -0.3654  0.1809 -0.0317
  271BUT     C1  271   5.922   0.549   3.916 -0.0462 -0.3250 -0.1483
  272BUT     C1  272   1.968   2.831   1.883 -0.1508 -0.2977 -0.0681
  273BUT     C1  273   3.844   0.784   0.907  0.2340  0.0817  0.1807
  274BUT     C1  274   1.421   6.568   0.436  0.0290  0.0682  0.2186
  275BUT     C1  275   4.811   2.604   0.109  0.0679  0.1522  0.0937
  276BUT     C1  276   1.492   5.342   2.740 -0.0942  0.0742 -0.3085
  277BUT     C1  277   4.265   3.325   0.718  0.0203  0.5560  0.0371
  278BUT     C1  278   2.358   0.622   1.937  0.0697  0.0019 -0.0417
  279BUT     C1  279   3.287   0.202   5.625  0.0041 -0.0627 -0.2314
  280BUT     C1  280   3.714   0.337   1.234 -0.2260  0.0340 -0.3581
  281BUT     C1  281   1.670   6.568   4.914 -0.2333  0.0506 -0.1478
  282BUT     C1  282   1.519   0.830   5.128  0.1266 -0.0323 -0.1198
  283BUT     C1  283   3.309   0.704   5.394 -0.0704  0.1605  0.1293
  284BUT     C1  284   1.118   6.209   0.631 -0.1569  0.0099  0.1359
  285BUT     C1  285   0.816   4.142   0.339 -0.2043 -0.1509  0.0496
  286BUT     C1  286   5.805   4.783   4.513 -0.0165  0.1787 -0.0546
  287BUT     C1  287   0.121   4.140   5.540  0.1641  0.0910 -0.2707
  288BUT     C1  288   3.191   0.007   0.523 -0.0464 -0.1023 -0.2672
  289BUT     C1  289   4.191   1.737   2.706  0.0566  0.1353 -0.1004
  290BUT     C1  290   2.739   4.789   0.535 -0.0509 -0.1210 -0.0303
  291BUT     C1  291   0.167   2.986   3.011 -0.2277 -0.0485  0.1731
  292BUT     C1  292   0.601   1.052   5.477 -0.0180  0.0225 -0.1034
  293BUT     C1  293   3.386   2.735   3.551 -0.0652 -0.1215 -0.0682
  294BUT     C1  294   4.884   2.428   4.695  0.2916  0.0036  0.0748
  295BUT     C1  295   0.663   1.914   1.411  0.3163  0.1787  0.3540
  296BUT     C1  296   5.617   4.608   0.187  0.1969 -0.3766  0.2887
  297BUT     C1  297   6.251   5.142   5.869  0.0583 -0.2734  0.1530
  298BUT     C1  298   6.354   3.564   1.715 -0.2965 -0.2125  0.2091
  299BUT     C1  299   0.287   0.075   4.959 -0.2269 -0.0168 -0.3329
  300BUT     C1  300   0.566   3.636   6.091  0.0381 -0.0178 -0.1834
  301BUT     C1  301   5.173   1.277   0.297 -0.0072  0.0969 -0.0476
  302BUT     C1  302   6.482   5.130   4.104 -0.0470  0.0182 -0.1583
  303BUT     C1  303   3.464   4.989   2.957 -0.0953 -0.2489  0.1987
  304BUT     C1  304   6.075   0.902   0.531 -0.0696 -0.0703 -0.0255
  305BUT     C1  305   5.113   0.052   1.509 -0.5570  0.1046 -0.0897
  306BUT     C1  306   4.306   4.076   2.363  0.1550 -0.1279  0.3039
  307BUT     C1  307   5.192   4.149   6.009  0.2386 -0.2227  0.1787
  308BUT     C1  308   6.377   4.301   2.105 -0.1034 -0.1752 -0.1140
  309BUT     C1  309   2.829   1.627   2.079  0.1886 -0.0866 -0.1915
  310BUT     C1  310   6.071   1.890   0.400  0.0873  0.2080 -0.0234
  311BUT     C1  311   5.168   1.762   2.699  0.0229  0.1571 -0.3034
  312BUT     C1  312   1.743   5.913   4.440  0.0656 -0.1082 -0.1276
  313BUT     C1  313   0.499   2.644   3.287  0.0373  0.0354 -0.0634
  314BUT     C1  314   6.065   4.462   3.319 -0.2668 -0.2161  0.0844
  315BUT     C1  315   1.261   5.485   5.886 -0.1158  0.0923  0.0835
  316BUT     C1  316   2.275   5.617   4.689 -0.0633 -0.1856  0.2645
  317BUT     C1  317   4.731   0.878   1.815 -0.0855  0.1037  0.0276
  318BUT     C1  318   5.759   1.023   0.941 -0.0100 -0.1192 -0.1115
  319BUT     C1  319   4.425   6.351   2.310 -0.1094 -0.0191 -0.0659
  320BUT     C1  320   4.616   3.916   5.442  0.1967 -0.1731 -0.0644
  321BUT     C1  321   2.704   4.619   4.266 -0.1368 -0.1469  0.5335
  322BUT     C1  322   3.263   4.103   4.016 -0.1718 -0.1120  0.4280
  323BUT     C1  323   5.124   1.217   3.201 -0.2440  0.0844  0.1750
  324BUT     C1  324   5.289   3.371   4.672 -0.3434 -0.1291 -0.3506
  325BUT     C1  325   2.678   6.102   2.360 -0.1429 -0.1249 -0.2377
  326BUT     C1  326   3.630   3.879   4.818 -0.0910  0.1398 -0.1877
  327BUT     C1  327   6.188   0.408   3.064  0.1019  0.0741  0.0038
  328BUT     C1  328   2.604   1.073   0.794 -0.0875 -0.4244 -0.2335
  329BUT     C1  329   4.091   3.270   3.649 -0.0345 -0.6385 -0.1893
  330BUT     C1  330   4.465   1.435   5.404 -0.2269  0.1530 -0.0180
  331BUT     C1  331   0.181   2.311   2.080 -0.0586 -0.3423  0.0089
  332BUT     C1  332   2.043   5.640   1.294 -0.0396 -0.0035 -0.1456
  333BUT     C1  333   2.219   3.164   5.998  0.1589  0.1929  0.3758
  334BUT     C1  334   2.379   2.231   2.608 -0.1786 -0.1054 -0.1622
  335BUT     C1  335   5.884   5.349   5.348 -0.1175  0.0822  0.1415
  336BUT     C1  336   3.334   1.810   6.422  0.1822 -0.0315 -0.0332
  337BUT     C1  337   3.654   5.507   2.159 -0.0668 -0.2073 -0.0200
  338BUT     C1  338   1.511   2.621   5.903  0.2530 -0.0205 -0.2040
  339BUT     C1  339   2.848   3.675   4.448  0.1356  0.0222  0.0527
  340BUT     C1  340   5.494   6.010   4.604  0.2959 -0.2879 -0.0623
  341BUT     C1  341   4.282   3.663   0.184 -0.2063 -0.2881  0.2987
  342BUT     C1  342   4.778   1.581   5.036  0.2068 -0.1423 -0.1756
  343BUT     C1  343   6.103   3.124   5.586 -0.3265 -0.2789  0.1448
  344BUT     C1  344   3.296   1.582   4.313 -0.1598 -0.2479 -0.0073
  345BUT     C1  345   1.163   1.676   2.870 -0.0859 -0.2220  0.2044
  346BUT     C1  346   5.330   4.889   2.412  0.4068  0.1530 -0.1807
  347BUT     C1  347   4.393   2.427   4.568  0.1599  0.0255  0.2323
  348BUT     C1  348   5.525   3.716   0.092 -0.2462  0.1263 -0.0866
  349BUT     C1  349   4.345   0.578   5.545  0.0821  0.4666  0.5111
  350BUT     C1  350   5.563   4.246   0.535 -0.1740  0.1157 -0.2112
  351BUT     C1  351   1.429   3.385   3.719  0.1549 -0.1705 -0.4676
  352BUT     C1  352   4.726   4.145   4.963  0.2842  0.2847  0.3160
  353BUT     C1  353   4.194   3.798   0.856 -0.3038  0.1119  0.1253
  354BUT     C1  354   6.139   5.621   3.133  0.1239 -0.1594 -0.3538
  355BUT     C1  355   2.302   3.746   0.470 -0.0027  0.1898  0.2224
  356BUT     C1  356   2.593   5.162   6.214  0.2453 -0.1944 -0.0356
  357BUT     C1  357   3.557   4.896   1.114 -0.0627  0.1622  0.1781
  358BUT     C1  358   5.801   3.192   1.051 -0.3373 -0.0391  0.1710
  359BUT     C1  359   2.408   6.281   0.990 -0.0275  0.1320  0.2246
  360BUT     C1  360   3.225   0.729   4.159  0.0703  0.0775 -0.1724
  361BUT     C1  361   1.017   6.092   3.077  0.0230  0.2739 -0.1554
  362BUT     C1  362   2.589   0.963   3.865 -0.0619 -0.2464 -0.3779
  363BUT     C1  363   0.729   1.790   2.574 -0.1889  0.1283  0.0081
  364BUT     C1  364   1.202   4.867   2.718  0.1108  0.0491  0.1455
  365BUT     C1  365   6.240   5.839   6.562 -0.0096  0.0401  0.2144
  366BUT     C1  366   1.348   0.485   4.796 -0.2494 -0.3096  0.3235
  367BUT     C1  367   1.081   1.250   6.226  0.0315  0.0444  0.0197
  368BUT     C1  368   1.250   4.623   4.040  0.2877 -0.0211  0.2353
  369BUT     C1  369   1.084   6.284   0.089 -0.0424 -0.1057  0.1880
  370BUT     C1  370   2.035   1.183   3.648 -0.3790 -0.0082 -0.0354
  371BUT     C1  371   5.080   2.266   4.127 -0.2515 -0.3700  0.2345
  372BUT     C1  372   4.902   3.911   2.555  0.0656 -0.0147 -0.0127
  373BUT     C1  373   5.665   2.068   6.261  0.2694 -0.0236 -0.0160
  374BUT     C1  374   4.752   5.032   0.734  0.0797 -0.0453 -0.4225
  375BUT     C1  375   5.688   1.519   0.514  0.2761  0.1715  0.0994
  376BUT     C1  376   0.895   5.002   0.092 -0.0413  0.0741  0.0730
  377BUT     C1  377   0.577   1.028   4.975  0.2278  0.1024  0.2205
  378BUT     C1  378   1.023   1.026   5.193  0.2954  0.1597  0.1657
  379BUT     C1  379   6.083   5.901   2.424  0.3345 -0.2773 -0.2055
  380BUT     C1  380   4.139   2.278   4.170  0.0617  0.3689 -0.0132
  381BUT     C1  381   6.182   3.851   2.128 -0.2117 -0.0691  0.2210
  382BUT     C1  382   4.748   6.484   0.782 -0.0636  0.2435 -0.2001
  383BUT     C1  383   3.500   5.967   0.229 -0.0912  0.0362 -0.3910
  384BUT     C1  384   3.932   5.223   0.056 -0.0207 -0.3215  0.1403
  385BUT     C1  385   3.166   3.387   3.007 -0.2407  0.2764 -0.0129
  386BUT     C1  386   0.294   1.682   2.166  0.0921 -0.3071  0.0302
  387BUT     C1  387   0.514   3.125   5.372 -0.0800  0.0397 -0.2770
  388BUT     C1  388   0.414   1.075   2.009  0.0060  0.0809 -0.1010
  389BUT     C1  389   6.079   1.266   6.368  0.0736 -0.1249 -0.1715
  390BUT     C1  390   1.688   1.618   0.944 -0.3441 -0.2199 -0.0678
  391BUT     C1  391   4.796   4.209   6.321 -0.0879 -0.0358 -0.0725
  392BUT     C1  392   3.832   2.604   6.593 -0.1598 -0.0998 -0.1936
  393BUT     C1  393   4.721   2.412   1.096  0.0085 -0.0199 -0.0948
  394BUT     C1  394   3.684   0.546   4.168 -0.1154  0.2232  0.3037
  395BUT     C1  395   2.249   6.310   5.247  0.2466 -0.2811 -0.0201
  396BUT     C1  396   5.388   1.268   5.109 -0.5022 -0.2828  0.2090
  397BUT     C1  397   5.791   6.542   0.476 -0.0870  0.0267  0.2306
  398BUT     C1  398   5.022   2.270   0.413 -0.3597 -0.1094 -0.1660
  399BUT     C1  399   6.580   2.971   5.233  0.1405 -0.0352  0.1292
  400BUT     C1  400   3.197   4.523   2.187 -0.0762  0.3502  0.0520
  401BUT     C1  401   3.299   3.165   0.463  0.3262  0.1497 -0.1092
  402BUT     C1  402   3.964   4.557   0.524  0.3144 -0.3440 -0.2123
  403BUT     C1  403   2.553   0.058   4.277 -0.0072  0.1048  0.2919
  404BUT     C1  404   1.919   5.015   5.426 -0.1684 -0.0720  0.0118
  405BUT     C1  405   5.063   1.658   4.352  0.1048  0.1031  0.1853
  406BUT     C1  406   5.264   2.258   3.609 -0.1030 -0.1619 -0.0084
  407BUT     C1  407   1.505   3.506   5.702  0.1817 -0.1817 -0.1205
  408BUT     C1  408   4.666   5.550   2.878 -0.1604  0.0464 -0.0825
  409BUT     C1  409   3.485   3.390   0.959 -0.2627 -0.1785 -0.1444
  410BUT     C1  410   4.002   4.049   0.445 -0.2410 -0.1894  0.1492
  411BUT     C1  411   0.169   4.785   4.973  0.2412  0.0419 -0.0435
  412BUT     C1  412   3.893   1.734   1.737  0.1324 -0.0758  0.1865
  413BUT     C1  413   5.988   1.869   5.058  0.0495  0.3118  0.1638
  414BUT     C1  414   0.158   4.624   0.842  0.1522  0.0066 -0.1782
  415BUT     C1  415   5.096   4.673   4.430 -0.2191 -0.3616  0.2103
  416BUT     C1  416   5.563   5.121   2.790 -0.3286  0.1736 -0.0247
  417BUT     C1  417   5.065   5.966   0.865  0.0258  0.0142 -0.0417
  418BUT     C1  418   5.141   0.416   3.266 -0.1248  0.3148 -0.1994
  419BUT     C1  419   4.768   4.492   5.311 -0.1063 -0.1129 -0.2886
  420BUT     C1  420   4.442   6.178   1.026  0.1275 -0.2341  0.3390
  421BUT     C1  421   3.413   3.454   1.589 -0.1408 -0.0290 -0.0576
  422BUT     C1  422   4.915   1.334   2.708 -0.2504 -0.0042  0.0636
  423BUT     C1  423   1.051   0.093   6.055 -0.0170 -0.3128 -0.0473
  424BUT     C1  424   6.307   5.580   4.143 -0.0831  0.3068 -0.0665
  425BUT     C1  425   0.933   0.764   3.219 -0.0568 -0.0740  0.0208
  426BUT     C1  426   0.345   0.553   0.842 -0.2076  0.0732  0.0923
  427BUT     C1  427   5.976   1.893   5.559  0.2363 -0.1495 -0.2678
  428BUT     C1  428   0.587   3.548   2.720 -0.0052 -0.0375  0.0435
  429BUT     C1  429   5.631   3.089   3.431  0.0059 -0.0735  0.2214
  430BUT     C1  430   1.756   4.374   3.989 -0.1233  0.0216 -0.2084
  431BUT     C1  431   3.888   1.411   0.738 -0.1124 -0.0307  0.0368
  432BUT     C1  432   2.275   0.061   3.249  0.2252 -0.2040 -0.3768
  433BUT     C1  433   2.258   4.006   0.894  0.2716  0.0907  0.0594
  434BUT     C1  434   3.146   2.303   6.315  0.2357 -0.2279 -0.1788
  435BUT     C1  435   0.618   6.418   0.368 -0.1585 -0.1080 -0.2098
  436BUT     C1  436   6.468   4.011   0.193 -0.1939 -0.0644 -0.0652
  437BUT     C1  437   5.706   5.181   1.154  0.0894 -0.3311  0.2780
  438BUT     C1  438   1.305   1.541   0.583 -0.1599 -0.0142  0.2341
  439BUT     C1  439   0.760   3.372   2.033 -0.3879  0.2211  0.2379
  440BUT     C1  440   2.361   2.289   3.782  0.0048  0.0771  0.0346
  441BUT     C1  441   3.004   0.743   4.930 -0.2955 -0.1381 -0.0701
  442BUT     C1  442   2.015   2.952   0.582  0.3479 -0.2196  0.0683
  443BUT     C1  443   4.445   0.824   4.869 -0.2318 -0.2719  0.0438
  444BUT     C1  444   3.654   3.714   3.726 -0.0758 -0.2288  0.3697
  445BUT     C1  445   0.880   3.524   5.684  0.2514  0.2164  0.1014
  446BUT     C1  446   1.107   2.430   2.057  0.2802 -0.2208 -0.2114
  447BUT     C1  447   4.792   4.997   0.206  0.0131  0.1653  0.1028
  448BUT     C1  448   3.490   2.137   1.349  0.1723  0.3113 -0.3002
  449BUT     C1  449   4.093   3.449   6.147 -0.0954 -0.1129 -0.0691
  450BUT     C1  450   1.633   1.945   0.413 -0.0197  0.2118 -0.0217
  451BUT     C1  451   1.839   5.158   1.278  0.0082 -0.0439  0.1664
  452BUT     C1  452   4.241   3.765   5.092  0.1148  0.1218 -0.1064
  453BUT     C1  453   3.061   4.709   1.277 -0.2043 -0.1035 -0.0040
  454BUT     C1  454   0.133   0.240   4.403  0.2349  0.0758 -0.0385
  455BUT     C1  455   4.527   2.249   2.942 -0.1286  0.4181  0.1431
  456BUT     C1  456   2.061   5.347   0.870 -0.4981 -0.4297  0.1043
  457BUT     C1  457   4.207   0.115   3.623 -0.0921  0.1925 -0.0582
  458BUT     C1  458   2.910   1.993   0.823  0.0772 -0.3846  0.1959
  459BUT     C1  459   2.664   1.824   5.858 -0.0231  0.0507  0.0286
  460BUT     C1  460   6.199   0.126   1.461  0.0350  0.1813 -0.0833
  461BUT     C1  461   3.461   4.465   6.419  0.3115  0.0364  0.0326
  462BUT     C1  462   3.895   0.553   0.236  0.2660 -0.2910  0.1577
  463BUT     C1  463   0.149   1.366   0.329  0.0022  0.2718 -0.0725
  464BUT     C1  464   0.079   3.296   0.781  0.0373  0.1133  0.0585
  465BUT     C1  465   4.299   2.800   6.556 -0.0029  0.0789  0.1067
  466BUT     C1  466   1.494   2.802   3.326  0.0731  0.0805 -0.3704
  467BUT     C1  467   3.901   4.578   3.280  0.1462 -0.3604  0.1429
  468BUT     C1  468   1.974   2.156   6.244 -0.2215  0.3174  0.1700
  469BUT     C1  469   4.456   5.098   3.249  0.1241 -0.1138 -0.1077
  470BUT     C1  470   3.802   2.401   0.522  0.0000  0.1791  0.0501
  471BUT     C1  471   4.446   1.552   0.977  0.0935 -0.3800  0.0588
  472BUT     C1  472   6.320   6.117   0.476  0.1372  0.7036 -0.1357
  473BUT     C1  473   0.718   3.076   3.444  0.0928  0.1757  0.0491
  474BUT     C1  474   3.730   4.272   5.258 -0.2750 -0.1264  0.1012
  475BUT     C1  475   2.149   5.364   3.432  0.3168 -0.1109 -0.2929
  476BUT     C1  476   1.472   0.083   0.904  0.0063 -0.0899 -0.0471
  477BUT     C1  477   3.967   2.948   0.971  0.0958 -0.0467  0.1057
  478BUT     C1  478   1.394   6.541   2.077 -0.2226  0.0215  0.0027
  479BUT     C1  479   1.189   4.429   6.250  0.0050  0.0050  0.0959
  480BUT     C1  480   0.650   3.122   2.475  0.0537 -0.3530 -0.0464
  481BUT     C1  481   3.377   2.840   3.042 -0.0155  0.0130 -0.0633
  482BUT     C1  482   1.889   3.474   4.586  0.1708 -0.0351 -0.0075
  483BUT     C1  483   5.568   3.291   1.581 -0.2798 -0.1699  0.3500
  484BUT     C1  484   5.278   3.513   1.162  0.0401 -0.0701  0.2764
  485BUT     C1  485   4.337   1.387   2.390  0.2053  0.2466  0.0151
  486BUT     C1  486   5.397   4.699   2.962 -0.1559 -0.1796 -0.2010
  487BUT     C1  487   4.771   6.038   6.004  0.0549  0.1230 -0.0385
  488BUT     C1  488   0.170   2.138   5.980  0.0255  0.0161  0.0189
  489BUT     C1  489   0.088   2.392   3.022  0.1826  0.1235  0.0186
  490BUT     C1  490   0.418   5.804   4.553 -0.0202  0.0664 -0.5455
  491BUT     C1  491   1.920   0.717   3.268 -0.0977 -0.1003 -0.2767
  492BUT     C1  492   0.725   1.683   3.229  0.0869 -0.1817  0.0266
  493BUT     C1  493   0.265   2.099   1.595  0.0434 -0.0157 -0.0355
  494BUT     C1  494   4.317   2.299   0.332 -0.0792  0.2146  0.0014
  495BUT     C1  495   6.308   5.439   2.644 -0.0628  0.0484 -0.1803
  496BUT     C1  496   4.582   4.828   4.845 -0.0416 -0.1550  0.1199
  497BUT     C1  497   2.403   2.270   5.464  0.1205  0.0051  0.0437
  498BUT     C1  498   1.463   5.233   0.812  0.1644  0.1871 -0.0573
  499BUT     C1  499   4.570   3.270   6.544 -0.2889  0.2372 -0.0571
  500BUT     C1  500   1.891   4.227   1.136  0.2374 -0.0209  0.1119
  501BUT     C1  501   4.848   6.554   3.188 -0.0704 -0.1450 -0.3590
  502BUT     C1  502   2.141   3.492   3.171  0.2904 -0.0258  0.1708
  503BUT     C1  503   2.863   5.985   1.868  0.1090 -0.4026  0.3197
  504BUT     C1  504   3.518   2.072   3.344 -0.1447  0.3785 -0.1491
  505BUT     C1  505   4.527   2.992   0.396  0.1440  0.0473  0.0955
  506BUT     C1  506   1.039   5.354   1.924 -0.0910  0.0544 -0.1119
  507BUT     C1  507   5.062   1.230   1.728  0.2296  0.0347 -0.2542
  508BUT     C1  508   3.717   1.329   4.841  0.0168 -0.0073  0.3997
  509BUT     C1  509   5.540   3.679   3.613 -0.3323  0.1037 -0.0351
  510BUT     C1  510   1.367   4.193   0.280  0.0278  0.1209  0.0808
  511BUT     C1  511   0.779   0.127   5.649  0.0780  0.1148  0.0776
  512BUT     C1  512   4.970   0.330   1.067 -0.1944 -0.0160 -0.2270
  513BUT     C1  513   6.349   2.984   0.977  0.0074  0.3058 -0.1230
  514BUT     C1  514   0.650   5.165   3.646 -0.1654 -0.1236  0.0433
  515BUT     C1  515   5.319   5.717   1.244  0.3714  0.2335  0.1970
  516BUT     C1  516   6.047   1.238   5.749 -0.1705  0.0407 -0.2750
  517BUT     C1  517   6.203   5.260   6.593  0.1096 -0.0018 -0.3804
  518BUT     C1  518   2.328   1.731   3.177 -0.1229 -0.0726  0.2276
  519BUT     C1  519   0.880   3.907   1.925  0.0799  0.3545 -0.1989
  520BUT     C1  520   0.791   6.217   0.963  0.0661  0.2624 -0.0385
  521BUT     C1  521   1.400   0.292   1.710  0.0683 -0.1840 -0.0839
  522BUT     C1  522   1.484   0.798   5.636 -0.0512 -0.2475 -0.1685
  523BUT     C1  523   2.339   1.165   5.758  0.0867  0.1384  0.1080
  524BUT     C1  524   0.650   3.809   5.052  0.1037 -0.0961 -0.1228
  525BUT     C1  525   1.019   1.187   2.966  0.0607 -0.2877 -0.0770
  526BUT     C1  526   1.883   0.272   2.293  0.0412  0.0261  0.1508
  527BUT     C1  527   3.426   1.320   0.510  0.1878 -0.1781 -0.0878
  528BUT     C1  528   3.722   2.723   5.727  0.1901  0.1085  0.2473
  529BUT     C1  529   3.729   1.918   0.567 -0.0258  0.0593 -0.0375
  530BUT     C1  530   5.268   5.150   0.942  0.0861  0.1924  0.1548
  531BUT     C1  531   1.212   5.662   3.826  0.2294 -0.2097 -0.0026
  532BUT     C1  532   2.608   1.273   6.331  0.0653  0.0726 -0.1000
  533BUT     C1  533   3.046   6.568   4.756  0.0073  0.0236 -0.1642
  534BUT     C1  534   2.647   3.913   1.397 -0.1825  0.3171  0.0970
  535BUT     C1  535   0.677   1.956   5.107  0.0636  0.1394  0.2008
  536BUT     C1  536   3.271   3.113   4.368  0.0669  0.0319  0.0246
  537BUT     C1  537   3.520   2.048   1.920 -0.1622  0.0192  0.1600
  538BUT     C1  538   5.914   5.218   1.600 -0.0336  0.3015  0.0575
  539BUT     C1  539   0.835   2.829   6.465  0.2105 -0.2172  0.4325
  540BUT     C1  540   0.756   6.601   3.840 -0.1217  0.2283 -0.2279
  541BUT     C1  541   3.518   4.219   3.488 -0.3612 -0.0885 -0.1746
  542BUT     C1  542   3.616   1.594   5.659  0.2699 -0.2749 -0.0276
  543BUT     C1  543   3.770   1.379   6.077 -0.0801  0.0286  0.0096
  544BUT     C1  544   5.954   1.901   2.005  0.0416 -0.0171 -0.0829
  545BUT     C1  545   5.083   4.225   2.975 -0.5227 -0.0189  0.0650
  546BUT     C1  546   4.339   1.678   1.611 -0.3482 -0.1196 -0.0845
  547BUT     C1  547   4.012   6.008   0.934 -0.1677  0.1351 -0.2288
  548BUT     C1  548   3.789   4.313   1.403  0.0784 -0.2214  0.0811
  549BUT     C1  549   1.020   2.294   3.978  0.3251  0.1167 -0.3702
  550BUT     C1  550   3.116   0.012   1.015 -0.3538 -0.1569 -0.2766
  551BUT     C1  551   4.971   4.215   4.413  0.2273 -0.1127 -0.1566
  552BUT     C1  552   1.640   2.119   5.376 -0.5298 -0.0966  0.0947
  553BUT     C1  553   4.704   1.551   6.570  0.1270  0.1972 -0.1846
  554BUT     C1  554   5.572   4.073   1.359  0.0054  0.0501  0.2938
  555BUT     C1  555   6.140   5.135   2.098 -0.3063 -0.0149  0.2303
  556BUT     C1  556   3.952   4.503   6.534  0.1548 -0.0287 -0.1601
  557BUT     C1  557   2.710   4.941   5.745  0.0592 -0.2473 -0.2431
  558BUT     C1  558   4.483   3.733   6.292 -0.0034 -0.0377  0.0473
  559BUT     C1  559   3.403   4.313   4.918 -0.0474 -0.2124 -0.1979
  560BUT     C1  560   2.818   6.492   6.219 -0.1414 -0.2113  0.1748
  561BUT     C1  561   3.953   4.819   5.275 -0.0657 -0.1062 -0.3020
  562BUT     C1  562   4.039   3.542   2.327  0.2902  0.0480 -0.0392
  563BUT     C1  563   4.636   1.078   0.260 -0.1731  0.0827 -0.1254
  564BUT     C1  564   6.091   1.299   4.324  0.0975  0.1843  0.0488
  565BUT     C1  565   0.171   4.008   0.976  0.0653 -0.0625  0.0020
  566BUT     C1  566   2.881   5.467   4.786 -0.1940  0.0810  0.1802
  567BUT     C1  567   0.151   6.171   0.225  0.0330  0.1040 -0.1824
  568BUT     C1  568   2.943   2.280   5.743 -0.2015 -0.0497 -0.1162
  569BUT     C1  569   3.101   6.124   4.976  0.0196 -0.0019  0.1203
  570BUT     C1  570   6.222   6.542   2.833  0.3091  0.1777 -0.1427
  571BUT     C1  571   0.795   5.758   1.891  0.0596 -0.0316  0.1297
  572BUT     C1  572   5.642   2.439   4.050 -0.4118 -0.3098  0.1401
  573BUT     C1  573   1.930   3.510   0.614  0.0087  0.0769 -0.1055
  574BUT     C1  574   5.167   3.033   1.558 -0.2512  0.2594 -0.1308
  575BUT     C1  575   1.606   5.172   3.260 -0.0201  0.1256 -0.0448
  576BUT     C1  576   2.433   2.409   1.662  0.0952  0.0786 -0.2656
  577BUT     C1  577   1.713   2.030   2.839 -0.0240  0.4802  0.2116
  578BUT     C1  578   2.645   2.661   4.645  0.0565 -0.3373  0.1048
  579BUT     C1  579   5.276   5.576   2.953  0.0292 -0.0921 -0.0262
  580BUT     C1  580   6.582   6.151   6.285  0.0043 -0.1065  0.1012
  581BUT     C1  581   3.112   4.268   4.485  0.0189  0.3859  0.2332
  582BUT     C1  582   3.593   0.169   3.832  0.1886 -0.2953 -0.3053
  583BUT     C1  583   0.899   6.334   2.104  0.2474  0.0763 -0.0614
  584BUT     C1  584   1.003   4.640   4.990  0.0690 -0.2573  0.1925
  585BUT     C1  585   4.015   1.189   6.536  0.2652 -0.0061 -0.0738
  586BUT     C1  586   6.258   6.448   5.127  0.0645  0.0620  0.1769
  587BUT     C1  587   2.174   6.551   1.445 -0.0569 -0.1916 -0.0109
  588BUT     C1  588   6.288   0.336   3.615 -0.1774  0.2068 -0.1253
  589BUT     C1  589   4.829   2.446   3.452 -0.0743 -0.0241 -0.0804
  590BUT     C1  590   2.945   0.965   3.235 -0.2203  0.0420  0.1408
  591BUT     C1  591   5.072   3.692   4.262 -0.3816 -0.0988  0.1365
  592BUT     C1  592   0.309   5.813   5.735 -0.2598  0.1365  0.0000
  593BUT     C1  593   2.252   0.190   1.018  0.1826 -0.1086 -0.0819
  594BUT     C1  594   4.767   1.496   0.514 -0.2714  0.0316  0.1532
  595BUT     C1  595   4.169   2.666   2.413  0.0500  0.0731  0.2166
  596BUT     C1  596   0.520   5.347   0.221  0.0320 -0.0495 -0.1419
  597BUT     C1  597   3.712   1.883   2.899 -0.2600 -0.2615  0.1234
  598BUT     C1  598   1.272   2.043   0.069 -0.1107  0.0740 -0.0223
  599BUT     C1  599   5.168   5.312   0.047 -0.0116 -0.0771  0.2854
  600BUT     C1  600   0.502   0.019   0.836  0.1395  0.1105  0.2778
  601BUT     C1  601   3.661   3.592   5.887  0.0077  0.5517  0.2461
  602BUT     C1  602   0.607   5.309   4.459  0.1458 -0.0095  0.1821
  603BUT     C1  603   5.453   3.816   5.794 -0.1639  0.0961 -0.3285
  604BUT     C1  604   4.245   1.408   0.340  0.1050  0.0201  0.1197
  605BUT     C1  605   1.377   3.779   4.626  0.1383  0.0716  0.0042
  606BUT     C1  606   1.239   3.129   5.999  0.3115  0.1947  0.0750
  607BUT     C1  607   3.826   0.558   4.799 -0.2140  0.0257 -0.1661
  608BUT     C1  608   6.289   2.243   4.637  0.4086  0.2068  0.1019
  609BUT     C1  609   2.942   5.111   1.061  0.0330  0.0156  0.1118
  610BUT     C1  610   1.164   0.252   2.970 -0.0961  0.1565 -0.1473
  611BUT     C1  611   5.528   0.928   1.829  0.2221  0.2566 -0.1718
  612BUT     C1  612   1.590   3.936   0.869  0.1868  0.4094  0.0370
  613BUT     C1  613   1.060   4.894   2.131 -0.1747 -0.0859  0.4291
  614BUT     C1  614   4.896   0.706   4.575  0.1453  0.1141 -0.3840
  615BUT     C1  615   4.089   3.762   4.539 -0.3188 -0.2835  0.1882
  616BUT     C1  616   1.631   3.568   3.221  0.1206  0.3969 -0.0571
  617BUT     C1  617   5.621   2.755   5.391  0.2684  0.1749  0.0728
  618BUT     C1  618   3.433   6.306   6.092  0.0883 -0.0563 -0.4388
  619BUT     C1  619   3.803   2.410   2.057 -0.0574 -0.1653  0.1545
  620BUT     C1  620   0.966   2.908   2.178  0.0494  0.1180 -0.1272
  621BUT     C1  621   1.319   3.314   2.114  0.1882 -0.1365 -0.0404
  622BUT     C1  622   2.651   6.224   2.831  0.0391  0.0709  0.2268
  623BUT     C1  623   4.500   6.138   4.765  0.3598 -0.0315 -0.0545
  624BUT     C1  624   2.245   3.056   4.761 -0.3898  0.0855  0.0623
  625BUT     C1  625   5.251   0.554   1.462 -0.1562  0.3162 -0.0694
  626BUT     C1  626   3.080   5.679   5.376 -0.2844  0.1165  0.2671
  627BUT     C1  627   2.792   2.457   0.940  0.1809 -0.1773  0.4563
  628BUT     C1  628   1.863   5.829   6.179 -0.1545 -0.0301 -0.0537
  629BUT     C1  629   0.029   0.496   3.920  0.0439 -0.0453 -0.0799
  630BUT     C1  630   4.045   5.185   1.395  0.1241 -0.0940  0.0895
  631BUT     C1  631   1.178   1.664   2.216  0.1146 -0.0360 -0.1984
  632BUT     C1  632   5.703   1.190   0.084 -0.0768  0.1359  0.4556
  633BUT     C1  633   6.427   2.527   0.096  0.0867 -0.4330 -0.1518
  634BUT     C1  634   3.414   2.499   1.715  0.0725  0.2108  0.2135
  635BUT     C1  635   0.217   0.685   6.501 -0.0688  0.1255  0.0152
  636BUT     C1  636   0.168   5.721   3.991  0.3052 -0.1610 -0.1022
  637BUT     C1  637   4.094   4.629   4.065 -0.0462 -0.0348 -0.0307
  638BUT     C1  638   2.334   5.362   2.533 -0.0896  0.0012  0.0463
  639BUT     C1  639   1.423   3.649   2.562  0.2392  0.0716 -0.0876
  640BUT     C1  640   0.290   5.744   5.140  0.1889 -0.4490 -0.3205
  641BUT     C1  641   6.318   1.689   4.615  0.1453  0.1733  0.0540
  642BUT     C1  642   2.738   2.777   1.396 -0.0055  0.3766  0.1136
  643BUT     C1  643   5.222   0.882   2.603 -0.0885  0.0084  0.0696
  644BUT     C1  644   0.703   0.942   1.086 -0.1062 -0.2766 -0.1897
  645BUT     C1  645   4.619   3.374   5.939 -0.0198 -0.0856  0.0712
  646BUT     C1  646   5.155   4.438   4.864 -0.1243  0.1816 -0.2242
  647BUT     C1  647   4.908   3.502   0.830 -0.2100  0.4077  0.0263
  648BUT     C1  648   0.573   0.437   4.205  0.1117  0.0054 -0.0004
  649BUT     C1  649   1.866   1.025   4.145 -0.2635  0.1983  0.1171
  650BUT     C1  650   0.906   4.048   5.993  0.0367 -0.2196 -0.1211
  651BUT     C1  651   3.438   0.423   0.857  0.0230  0.0315  0.1193
  652BUT     C1  652   5.133   5.081   4.165 -0.4195 -0.2961 -0.1233
  653BUT     C1  653   5.903   4.713   2.907  0.1658  0.0549  0.0229
  654BUT     C1  654   2.880   5.917   3.162 -0.2544 -0.1880 -0.0838
  655BUT     C1  655   3.755   3.723   1.169  0.4123  0.2281 -0.2772
  656BUT     C1  656   0.911   4.088   1.441 -0.1163  0.2452 -0.1164
  657BUT     C1  657   3.599   3.766   2.654 -0.4138  0.2058  0.0219
  658BUT     C1  658   6.193   2.300   5.211  0.3020  0.1789 -0.0874
  659BUT     C1  659   5.629   6.119   0.750 -0.0578 -0.2275 -0.3610
  660BUT     C1  660   1.394   4.039   4.115  0.1551  0.0988  0.4467
  661BUT     C1  661   2.261   3.257   2.238  0.1198 -0.0803  0.3624
  662BUT     C1  662   2.360   3.046   0.919 -0.2376  0.1052 -0.1619
  663BUT     C1  663   0.187   2.187   3.581  0.0743  0.0624 -0.1273
  664BUT     C1  664   4.035   1.021   4.622 -0.1586  0.1780 -0.0945
  665BUT     C1  665   3.199   1.314   4.819  0.0214  0.0605  0.1245
  666BUT     C1  666   2.842   3.277   1.649 -0.2877 -0.2169  0.2024
  667BUT     C1  667   3.018   2.113   1.810  0.0208  0.2674 -0.2343
  668BUT     C1  668   4.841   3.808   5.928 -0.1284 -0.0367 -0.2920
  669BUT     C1  669   2.730   4.425   5.552 -0.0142 -0.2572 -0.1289
  670BUT     C1  670   3.081   5.143   6.012 -0.0467 -0.0651 -0.1936
  671BUT     C1  671   2.810   5.209   1.674 -0.1745  0.3572 -0.0400
  672BUT     C1  672   5.736   6.444   3.193 -0.0138 -0.1602  0.0067
  673BUT     C1  673   5.832   6.107   4.961  0.2218 -0.2179 -0.3124
  674BUT     C1  674   0.846   5.557   6.562 -0.1504 -0.3160  0.3016
  675BUT     C1  675   2.780   6.497   5.199  0.0150  0.2976  0.2722
  676BUT     C1  676   1.554   2.779   5.442 -0.0166 -0.0711 -0.2267
  677BUT     C1  677   2.587   0.374   6.231  0.1896 -0.1378  0.0193
  678BUT     C1  678   1.911   3.557   3.643  0.1093 -0.1277  0.0409
  679BUT     C1  679   6.515   4.851   0.119 -0.1515  0.0062  0.1786
  680BUT     C1  680   4.172   4.234   5.514 -0.0102  0.1815  0.4029
  681BUT     C1  681   0.710   4.799   5.391 -0.1730  0.0986  0.1142
  682BUT     C1  682   3.073   6.096   6.422  0.3398  0.1263  0.1101
  683BUT     C1  683   2.843   3.296   4.102 -0.0136  0.0260 -0.0135
  684BUT     C1  684   1.450   5.889   2.791 -0.3476  0.0616  0.2696
  685BUT     C1  685   3.185   5.115   5.022  0.0298  0.5583 -0.0851
  686BUT     C1  686   6.385   2.262   0.504 -0.1696  0.0885  0.0739
  687BUT     C1  687   2.455   6.566   5.714  0.0465  0.0421 -0.2594
  688BUT     C1  688   2.219   0.180   5.311  0.1274  0.0934  0.1124
  689BUT     C1  689   3.832   1.997   2.318  0.2010  0.0739  0.2380
  690BUT     C1  690   2.822   3.643   6.251  0.1212  0.2324  0.4824
  691BUT     C1  691   0.239   4.789   4.438  0.0100  0.1143  0.0335
  692BUT     C1  692   2.521   4.139   3.880 -0.2638  0.0609 -0.3011
  693BUT     C1  693   0.740   5.669   3.956  0.1500  0.4613  0.0250
  694BUT     C1  694   0.354   1.720   4.792 -0.3017  0.0447 -0.3257
  695BUT     C1  695   2.474   4.014   5.782 -0.3154  0.1103 -0.4148
  696BUT     C1  696   2.992   1.115   4.371 -0.0871  0.1101 -0.2353
  697BUT     C1  697   5.821   5.380   6.078 -0.0645 -0.0251  0.0190
  698BUT     C1  698   2.327   6.183   4.395 -0.0426  0.0521 -0.1687
  699BUT     C1  699   3.905   2.055   0.029 -0.0709  0.1406  0.3725
  700BUT     C1  700   0.677   4.668   6.178 -0.0675 -0.1826 -0.0178
  701BUT     C1  701   1.623   6.120   0.643 -0.1422  0.1596  0.0113
  702BUT     C1  702   4.639   3.423   4.550  0.1103 -0.2281  0.2153
  703BUT     C1  703   2.313   5.988   3.213 -0.1060 -0.0864 -0.1780
  704BUT     C1  704   3.951   4.928   5.732 -0.0586  0.0312  0.0021
  705BUT     C1  705   2.655   2.646   2.326 -0.0117  0.4865  0.2439
  706BUT     C1  706   5.164   0.433   0.140 -0.0344  0.1704 -0.1377
  707BUT     C1  707   2.895   4.414   2.807  0.2217 -0.0437  0.2870
  708BUT     C1  708   4.800   0.144   2.052 -0.0697 -0.0670  0.1156
  709BUT     C1  709   4.660   3.964   1.046  0.2850 -0.0572 -0.1323
  710BUT     C1  710   4.775   5.763   0.474 -0.4107  0.1011 -0.1847
  711BUT     C1  711   0.133   0.843   3.530 -0.2257  0.0166 -0.3482
  712BUT     C1  712   5.826   2.547   6.315 -0.3940  0.0253  0.1718
  713BUT     C1  713   4.410   1.229   1.769  0.2935  0.1648  0.0263
  714BUT     C1  714   4.241   2.737   5.573 -0.0572  0.0686 -0.0420
  715BUT     C1  715   5.909   1.076   1.505  0.0628 -0.1709 -0.3432
  716BUT     C1  716   1.686   5.716   0.092  0.1507  0.3276 -0.1943
  717BUT     C1  717   5.087   0.882   6.036 -0.1998 -0.0301 -0.2355
  718BUT     C1  718   0.767   0.302   3.363  0.0551 -0.1775 -0.3963
  719BUT     C1  719   4.656   4.883   2.231 -0.0281  0.0836 -0.0474
  720BUT     C1  720   6.256   0.857   1.068  0.1735  0.0992  0.0822
  721BUT     C1  721   2.403   0.614   5.791 -0.1166  0.1281  0.2718
  722BUT     C1  722   5.841   5.683   4.447 -0.2920 -0.1428  0.2115
  723BUT     C1  723   5.250   4.260   0.195  0.0724 -0.0255 -0.4279
  724BUT     C1  724   3.935   2.882   1.780  0.2074  0.1641  0.0179
  725BUT     C1  725   4.718   4.351   5.775  0.2860 -0.0572 -0.1708
  726BUT     C1  726   2.663   5.808   0.161 -0.3946  0.2127  0.0153
  727BUT     C1  727   1.271   6.392   2.704  0.2736  0.0784 -0.1065
  728BUT     C1  728   3.565   4.502   3.941 -0.1331 -0.0659 -0.0612
  729BUT     C1  729   5.370   3.727   1.784 -0.0335  0.1211  0.0412
  730BUT     C1  730   0.198   4.327   1.788  0.1796 -0.3001  0.0609
  731BUT     C1  731   1.710   0.744   4.626 -0.2830  0.0063  0.1052
  732BUT     C1  732   3.567   4.385   1.907 -0.1687  0.1029  0.2523
  733BUT     C1  733   0.200   4.037   5.041 -0.1860 -0.0647 -0.1311
  734BUT     C1  734   1.801   5.824   3.089  0.0509  0.0671  0.1313
  735BUT     C1  735   4.631   5.167   5.824  0.1769 -0.3551  0.1231
  736BUT     C1  736   3.842   5.197   4.763 -0.0156  0.1780 -0.2358
  737BUT     C1  737   3.591   6.235   1.129  0.0170  0.1279 -0.0123
  738BUT     C1  738   0.232   5.688   1.755  0.0461  0.1168  0.0002
  739BUT     C1  739   6.456   6.269   3.680 -0.0596  0.3164  0.0238
  740BUT     C1  740   2.477   1.709   0.925  0.1444 -0.1403 -0.0337
  741BUT     C1  741   1.597   1.154   1.942  0.1099 -0.1812 -0.1535
  742BUT     C1  742   3.157   0.972   6.244 -0.1350 -0.1893  0.0787
  743BUT     C1  743   5.833   6.272   6.460 -0.0865 -0.1718 -0.2730
  744BUT     C1  744   0.539   2.829   0.682  0.2288 -0.0491 -0.1985
  745BUT     C1  745   6.197   1.040   1.942  0.1306 -0.1532 -0.2224
  746BUT     C1  746   3.128   5.319   2.992 -0.1015  0.0157  0.1096
  747BUT     C1  747   2.623   5.784   4.375 -0.1339  0.1850  0.1072
  748BUT     C1  748   4.957   0.834   3.503  0.3126 -0.1346 -0.1232
  749BUT     C1  749   0.309   0.842   4.444 -0.0724 -0.0035  0.2899
  750BUT     C1  750   3.465   5.697   3.888  0.1236  0.3466  0.0237
  751BUT     C1  751   3.023   4.099   6.437 -0.0609 -0.2752  0.4388
  752BUT     C1  752   2.800   1.556   3.126  0.3774  0.0597  0.2085
  753BUT     C1  753   3.167   5.176   4.392  0.2421  0.1636  0.1323
  754BUT     C1  754   5.039   4.916   1.326  0.3851  0.1394  0.1478
  755BUT     C1  755   2.109   3.412   2.692 -0.1146 -0.3335  0.0173
  756BUT     C1  756   4.997   5.626   2.399  0.2807  0.1960  0.0541
  757BUT     C1  757   2.941   5.601   0.927 -0.0701  0.1058 -0.1213
  758BUT     C1  758   2.025   2.478   5.226 -0.0581 -0.0123 -0.2129
  759BUT     C1  759   1.824   3.561   6.156 -0.1489  0.0120 -0.0604
  760BUT     C1  760   2.669   0.310   0.188  0.3747  0.1374  0.1392
  761BUT     C1  761   0.875   4.642   0.729  0.1716  0.2351  0.1464
  762BUT     C1  762   5.969   3.287   3.761 -0.1800  0.1315  0.1028
  763BUT     C1  763   3.062   1.377   3.540  0.0745  0.1373  0.0739
  764BUT     C1  764   4.220   3.815   2.825  0.0560  0.0183  0.0211
  765BUT     C1  765   4.266   4.820   6.230 -0.3215  0.1517  0.1836
  766BUT     C1  766   2.138   1.756   3.649  0.1500 -0.2675 -0.0328
  767BUT     C1  767   4.189   0.121   5.609 -0.2639  0.1311 -0.0554
  768BUT     C1  768   1.690   6.187   5.314  0.1935  0.1974  0.0865
  769BUT     C1  769   0.763   0.100   6.597  0.4483  0.1624  0.1657
  770BUT     C1  770   1.246   3.607   1.078  0.0561 -0.3516  0.1975
  771BUT     C1  771   3.313   2.290   0.826 -0.0499  0.2634 -0.1219
  772BUT     C1  772   5.939   0.858   2.336  0.1518 -0.1509  0.3230
  773BUT     C1  773   6.485   1.802   1.964  0.0141 -0.2942 -0.0855
  774BUT     C1  774   6.282   6.380   0.882 -0.0980  0.1036 -0.2626
  775BUT     C1  775   5.446   6.258   1.317  0.0670 -0.0401  0.2826
  776BUT     C1  776   0.989   4.263   4.266 -0.2389 -0.3774  0.0366
  777BUT     C1  777   0.866   2.578   5.884 -0.0899  0.0445  0.0382
  778BUT     C1  778   5.443   5.669   3.977  0.0807  0.1910 -0.0673
  779BUT     C1  779   0.812   0.859   4.552 -0.2119 -0.1469  0.1033
  780BUT     C1  780   4.318   3.305   5.466  0.0627 -0.0908  0.2203
  781BUT     C1  781   4.284   1.212   2.859  0.2552 -0.0875 -0.3077
  782BUT     C1  782   5.201   4.433   1.098  0.2446  0.1273 -0.0610
  783BUT     C1  783   5.266   5.780   6.093  0.3361 -0.0285 -0.0939
  784BUT     C1  784   5.587   2.013   2.876 -0.2356 -0.1328  0.1919
  785BUT     C1  785   1.837   5.929   2.018 -0.1457 -0.1165  0.0433
  786BUT     C1  786   4.857   0.750   6.527  0.0244  0.0408  0.0318
  787BUT     C1  787   5.576   2.770   5.894 -0.0644  0.1206  0.0065
  788BUT     C1  788   1.946   6.536   5.658 -0.0460 -0.0264  0.0055
  789BUT     C1  789   4.321   6.560   4.555  0.1790 -0.1403  0.2211
  790BUT     C1  790   0.870   0.917   4.071 -0.2977 -0.0680  0.0213
  791BUT     C1  791   1.825   2.912   4.498 -0.1235 -0.3469 -0.0284
  792BUT     C1  792   1.546   1.483   4.495  0.0013 -0.0909  0.0689
  793BUT     C1  793   6.266   6.519   3.305  0.0604  0.4725 -0.0368
  794BUT     C1  794   3.705   1.044   5.646 -0.0756  0.2219  0.1638
  795BUT     C1  795   5.320   0.429   1.931  0.1495 -0.0683  0.3493
  796BUT     C1  796   3.865   3.009   6.220 -0.0252 -0.2038  0.1704
  797BUT     C1  797   3.133   2.268   3.660 -0.1250  0.2886 -0.1061
  798BUT     C1  798   0.494   0.270   6.060 -0.0562  0.0864  0.0690
  799BUT     C1  799   3.781   0.886   6.100 -0.1390  0.0211 -0.0594
  800BUT     C1  800   3.920   4.171   3.777 -0.2775  0.2017 -0.2224
  801BUT     C1  801   3.186   2.388   3.111 -0.3581  0.1036 -0.1311
  802BUT     C1  802   1.532   4.838   0.061  0.0837 -0.1017  0.4363
  803BUT     C1  803   0.607   3.054   6.068  0.1779  0.0160  0.0397
  804BUT     C1  804   0.001   5.905   4.798  0.1362 -0.1835 -0.2619
  805BUT     C1  805   3.547   1.578   3.519 -0.1238 -0.3974  0.0095
  806BUT     C1  806   1.815   5.501   5.375  0.1472  0.1262 -0.1339
  807BUT     C1  807   5.430   0.258   3.835  0.1535  0.1029 -0.0443
  808BUT     C1  808   6.303   2.070   1.406 -0.0831 -0.0097  0.2946
  809BUT     C1  809   3.317   5.915   0.736 -0.1151  0.0841 -0.1102
  810BUT     C1  810   2.445   1.255   2.929  0.0704 -0.1149 -0.1818
  811BUT     C1  811   5.456   5.567   5.692 -0.1054 -0.2811  0.0013
  812BUT     C1  812   2.721   3.422   3.254 -0.1164  0.0468  0.1959
  813BUT     C1  813   3.204   3.684   0.723  0.0192  0.2378 -0.1498
  814BUT     C1  814   6.581   0.219   2.705  0.1015 -0.1365 -0.1714
  815BUT     C1  815   0.047   0.784   1.830  0.1550 -0.1298 -0.0703
  816BUT     C1  816   3.546   4.799   0.152  0.1326  0.1210 -0.3188
  817BUT     C1  817   4.464   5.857   3.229 -0.1866 -0.0832  0.0489
  818BUT     C1  818   6.576   1.220   5.070  0.0492  0.1906  0.2045
  819BUT     C1  819   0.639   5.096   0.684  0.3327  0.1571 -0.0237
  820BUT     C1  820   3.359   3.808   5.275  0.2308  0.1088  0.1832
  821BUT     C1  821   4.372   4.997   3.899 -0.2150  0.2678 -0.1344
  822BUT     C1  822   1.684   2.391   4.359  0.2723  0.1729 -0.3248
  823BUT     C1  823   6.087   2.911   3.293 -0.4209 -0.0758 -0.1029
  824BUT     C1  824   4.212   5.004   0.651 -0.3387  0.0164 -0.1270
  825BUT     C1  825   4.286   3.228   4.976  0.1351 -0.3386  0.6238
  826BUT     C1  826   1.040   5.395   0.582  0.2552 -0.0557 -0.0337
  827BUT     C1  827   1.618   3.981   3.632  0.1889  0.1773 -0.0984
  828BUT     C1  828   1.757   6.526   6.154  0.1880  0.2694 -0.1803
  829BUT     C1  829   0.366   5.419   0.976 -0.1589 -0.1446  0.2531
  830BUT     C1  830   4.988   1.148   3.934 -0.1424 -0.1075 -0.1846
  831BUT     C1  831   1.570   3.115   0.685  0.1254  0.0771 -0.1441
  832BUT     C1  832   5.205   6.104   5.730 -0.2384 -0.1803 -0.0929
  833BUT     C1  833   4.157   3.730   3.505  0.2101 -0.3494  0.2555
  834BUT     C1  834   1.955   4.118   2.498  0.4052 -0.1581  0.0314
  835BUT     C1  835   2.136   0.691   5.353  0.1647  0.0961 -0.0357
  836BUT     C1  836   3.753   2.208   5.719 -0.0771 -0.2511 -0.2749
  837BUT     C1  837   0.061   3.917   1.995 -0.0193  0.1353 -0.0761
  838BUT     C1  838   5.455   5.077   1.514  0.1590 -0.4321 -0.2689
  839BUT     C1  839   6.353   4.830   2.546  0.2193  0.1124 -0.0460
  840BUT     C1  840   4.039   6.323   1.942  0.0279  0.0683  0.1892
  841BUT     C1  841   3.416   5.227   3.403 -0.1694 -0.1139 -0.0064
  842BUT     C1  842   3.437   6.167   3.532  0.1891  0.2241 -0.0769
  843BUT     C1  843   4.108   1.945   3.273  0.1416  0.0178  0.1793
  844BUT     C1  844   1.802   1.311   1.497  0.0828  0.0995 -0.0017
  845BUT     C1  845   6.229   2.931   2.438  0.1691 -0.1432  0.0110
  846BUT     C1  846   0.003   1.116   5.992 -0.0133 -0.2050  0.1330
  847BUT     C1  847   5.159   2.808   2.367 -0.3175 -0.1528 -0.1092
  848BUT     C1  848   4.717   1.977   5.627 -0.0718 -0.0906 -0.0651
  849BUT     C1  849   4.026   5.381   2.576 -0.1936 -0.1113 -0.1063
  850BUT     C1  850   4.601   0.893   2.595  0.3435  0.0329 -0.0267
  851BUT     C1  851   5.577   6.374   3.923  0.0374  0.0897 -0.0198
  852BUT     C1  852   1.344   2.054   2.444 -0.1336  0.1756  0.0515
  853BUT     C1  853   4.737   0.194   5.680 -0.2121 -0.2388 -0.0680
  854BUT     C1  854   1.453   6.073   3.455 -0.4061  0.3629 -0.0759
  855BUT     C1  855   1.568   1.297   3.570 -0.0669  0.1542  0.3622
  856BUT     C1  856   6.517   4.698   6.240  0.0436 -0.4553  0.1011
  857BUT     C1  857   2.463   6.139   5.998  0.2096 -0.1941  0.1564
  858BUT     C1  858   1.053   4.148   0.898 -0.0406  0.3578 -0.3364
  859BUT     C1  859   0.215   2.910   1.133 -0.0209 -0.2060 -0.0352
  860BUT     C1  860   1.000   5.163   3.244  0.3141 -0.1931 -0.0447
  861BUT     C1  861   6.339   0.471   5.769  0.0920 -0.2719 -0.1773
  862BUT     C1  862   2.743   1.249   1.775 -0.0870 -0.1637  0.0720
  863BUT     C1  863   2.665   5.239   4.393  0.0594  0.0787 -0.3053
  864BUT     C1  864   2.632   0.620   1.069  0.0934 -0.5148 -0.0925
  865BUT     C1  865   1.286   3.625   0.601 -0.0452 -0.1183  0.1012
  866BUT     C1  866   5.657   5.929   3.060  0.3261  0.0513  0.2301
  867BUT     C1  867   0.602   3.906   4.254 -0.0099  0.0616 -0.1079
  868BUT     C1  868   5.221   3.181   5.189  0.0658 -0.0467  0.0157
  869BUT     C1  869   5.365   5.533   4.715  0.0062 -0.5547 -0.4329
  870BUT     C1  870   3.773   4.033   2.212 -0.0879  0.0749 -0.1273
  871BUT     C1  871   1.759   5.353   6.338 -0.1367  0.0277  0.1962
  872BUT     C1  872   1.619   3.187   2.788 -0.1943 -0.3037  0.1083
  873BUT     C1  873   1.166   3.795   5.403 -0.0908  0.0132  0.3426
  874BUT     C1  874   1.980   6.334   3.536  0.0327 -0.4082 -0.0643
  875BUT     C1  875   5.662   6.062   5.916  0.1105  0.0639 -0.2437
  876BUT     C1  876   1.596   0.415   5.339  0.0662  0.2588  0.0053
  877BUT     C1  877   0.406   5.289   5.303 -0.1264  0.2988  0.0398
  878BUT     C1  878   6.147   0.834   0.020 -0.3440 -0.1167 -0.0746
  879BUT     C1  879   3.406   3.007   4.835 -0.1278 -0.1280  0.1813
  880BUT     C1  880   5.905   0.159   5.349 -0.0277 -0.0229  0.1820
  881BUT     C1  881   2.105   1.963   2.321  0.0468 -0.2250  0.1743
  882BUT     C1  882   2.667   4.550   1.033  0.2362 -0.2320  0.0080
  883BUT     C1  883   5.360   4.128   4.013 -0.2144 -0.0295  0.0412
  884BUT     C1  884   4.472   6.336   2.802  0.1966  0.0296 -0.0497
  885BUT     C1  885   0.666   5.656   1.407 -0.0078 -0.0805 -0.3362
  886BUT     C1  886   4.068   0.863   5.139 -0.1559  0.0879  0.0236
  887BUT     C1  887   0.552   6.489   3.327  0.0302 -0.1844  0.0241
  888BUT     C1  888   2.648   6.363   3.361  0.2013 -0.4299  0.1843
  889BUT     C1  889   5.611   5.270   4.358 -0.1977 -0.1396 -0.4842
  890BUT     C1  890   1.809   0.794   0.390 -0.0730  0.2990 -0.0022
  891BUT     C1  891   2.089   1.986   5.727 -0.3029 -0.0356 -0.1158
  892BUT     C1  892   3.495   0.740   2.012 -0.3716 -0.1097 -0.0148
  893BUT     C1  893   2.567   1.826   1.631 -0.0111 -0.1653  0.1551
  894BUT     C1  894   2.147   1.922   5.032 -0.4480 -0.0880 -0.2516
  895BUT     C1  895   0.371   6.434   2.464 -0.0850  0.3436 -0.1243
  896BUT     C1  896   5.569   1.784   5.150  0.1193 -0.1870 -0.0977
  897BUT     C1  897   5.089   1.790   2.252 -0.2291  0.3066  0.3835
  898BUT     C1  898   5.837   0.156   4.236  0.0069 -0.1691  0.0028
  899BUT     C1  899   1.342   0.514   3.397  0.0993  0.1155  0.2232
  900BUT     C1  900   5.060   5.179   2.126 -0.2727  0.0450 -0.4508
  901BUT     C1  901   2.510   5.855   3.651 -0.1961 -0.2871 -0.3261
  902BUT     C1  902   4.738   5.333   5.303  0.0236  0.1886 -0.1208
  903BUT     C1  903   6.520   4.751   2.054  0.0599  0.0145  0.2512
  904BUT     C1  904   0.319   4.830   6.511  0.0220 -0.0273 -0.2699
  905BUT     C1  905   0.977   1.185   0.388 -0.0529  0.0795  0.1407
  906BUT     C1  906   3.220   3.822   0.199 -0.1194 -0.1503 -0.2691
  907BUT     C1  907   0.639   0.378   4.671  0.3632  0.2630 -0.2281
  908BUT     C1  908   4.467   0.376   5.080 -0.1816  0.3075  0.1796
  909BUT     C1  909   0.754   6.135   2.535  0.1038  0.2887 -0.0515
  910BUT     C1  910   2.505   4.086   6.304  0.1298  0.2974 -0.0180
  911BUT     C1  911   1.915   0.371   1.739 -0.1960 -0.3869 -0.0439
  912BUT     C1  912   6.437   1.810   6.018  0.0469 -0.2694  0.2075
  913BUT     C1  913   0.580   3.639   0.594 -0.1967 -0.1682  0.1616
  914BUT     C1  914   2.002   6.117   1.530  0.0592 -0.0181  0.0101
  915BUT     C1  915   5.177   3.819   0.435 -0.2439  0.0865 -0.1774
  916BUT     C1  916   3.764   5.068   1.800  0.2993  0.1257  0.0973
  917BUT     C1  917   1.512   5.956   5.746 -0.0468  0.1267 -0.2122
  918BUT     C1  918   1.856   6.519   1.928  0.1292 -0.1864  0.0517
  919BUT     C1  919   3.035   5.468   3.815 -0.4438  0.1172  0.4050
  920BUT     C1  920   2.995   4.874   3.436 -0.5179  0.5245  0.0314
  921BUT     C1  921   5.604   2.251   5.758  0.1481  0.0661 -0.0642
  922BUT     C1  922   2.606   6.115   5.532 -0.0689 -0.0319 -0.0628
  923BUT     C1  923   4.088   4.191   1.727 -0.2022 -0.1668  0.1627
  924BUT     C1  924   5.188   2.199   5.419  0.1166 -0.2632  0.1636
  925BUT     C1  925   5.030   1.057   5.568  0.0284  0.0456  0.2690
  926BUT     C1  926   4.511   2.931   0.937  0.1544 -0.0586  0.0767
  927BUT     C1  927   6.082   2.737   3.777 -0.3869  0.3461 -0.0228
  928BUT     C1  928   2.492   2.920   1.902  0.1192  0.1118 -0.2386
  929BUT     C1  929   3.790   0.982   2.873  0.1468 -0.3131 -0.1573
  930BUT     C1  930   5.238   2.660   3.392 -0.0525 -0.1416  0.0324
  931BUT     C1  931   2.063   1.422   6.154 -0.0178  0.1910  0.0390
  932BUT     C1  932   1.042   3.962   6.427 -0.0738 -0.0012  0.0045
  933BUT     C1  933   0.849   0.586   1.446 -0.1572 -0.0352 -0.1221
  934BUT     C1  934   4.961   5.197   2.678  0.0020  0.4466 -0.0928
  935BUT     C1  935   1.939   2.332   1.271  0.2362  0.1244  0.2106
  936BUT     C1  936   1.602   1.611   3.088  0.3211 -0.0905 -0.0770
  937BUT     C1  937   5.932   1.717   6.044 -0.2635 -0.0839 -0.1776
  938BUT     C1  938   5.173   4.719   0.639  0.3107  0.2252  0.0399
  939BUT     C1  939   0.736   0.715   5.827  0.2945  0.0723  0.1378
  940BUT     C1  940   0.583   5.058   2.451  0.2070  0.3486  0.1512
  941BUT     C1  941   5.226   1.484   1.224 -0.0042 -0.0619 -0.1528
  942BUT     C1  942   2.315   5.338   5.549  0.2254  0.1137 -0.1319
  943BUT     C1  943   6.137   1.388   0.804  0.2290  0.0259 -0.0576
  944BUT     C1  944   0.030   4.410   4.664  0.2124  0.0175  0.1487
  945BUT     C1  945   1.197   5.014   3.755 -0.0859 -0.0016  0.0367
  946BUT     C1  946   3.327   0.080   3.402  0.1381 -0.0579  0.0816
  947BUT     C1  947   5.308   0.804   4.846 -0.1346 -0.3424  0.1935
  948BUT     C1  948   4.355   4.619   3.056 -0.0136 -0.0065 -0.1089
  949BUT     C1  949   2.443   2.723   5.080  0.2985 -0.0814  0.2471
  950BUT     C1  950   3.474   1.486   1.304  0.0894  0.1438 -0.0962
  951BUT     C1  951   2.811   0.122   2.499  0.0500 -0.2152 -0.1116
  952BUT     C1  952   0.488   4.418   4.132 -0.2593 -0.0895  0.1814
  953BUT     C1  953   4.408   1.118   3.772 -0.0380 -0.0880  0.0145
  954BUT     C1  954   2.904   2.201   1.337 -0.0267  0.1512  0.2611
  955BUT     C1  955   4.609   3.918   4.498 -0.0507  0.3194 -0.0532
  956BUT     C1  956   1.065   0.740   2.715 -0.1412 -0.3615  0.5482
  957BUT     C1  957   1.711   5.622   3.901  0.2966  0.2579 -0.0360
  958BUT     C1  958   1.669   1.371   0.287  0.1389  0.0485 -0.1992
  959BUT     C1  959   3.747   1.435   4.282 -0.2684 -0.0975  0.0167
  960BUT     C1  960   0.675   4.326   6.512 -0.0719  0.1133  0.1022
  961BUT     C1  961   4.289   2.194   2.400  0.2211  0.0345 -0.0540
  962BUT     C1  962   1.265   5.276   0.062 -0.1560  0.3113  0.2112
  963BUT     C1  963   6.542   2.725   2.041  0.1748 -0.0188 -0.0994
  964BUT     C1  964   2.806   3.393   0.612 -0.1969 -0.1423  0.2199
  965BUT     C1  965   4.733   0.454   1.524 -0.0234 -0.1418  0.0174
  966BUT     C1  966   4.544   6.598   4.042  0.1757 -0.0030  0.1632
  967BUT     C1  967   5.399   0.689   4.329 -0.0321  0.0262  0.0888
  968BUT     C1  968   4.372   5.330   4.968  0.1284  0.0695  0.1625
  969BUT     C1  969   4.009   1.439   3.159  0.1362 -0.0707 -0.1122
  970BUT     C1  970   0.468   1.258   6.044 -0.4001 -0.0594 -0.3485
  971BUT     C1  971   6.059   4.680   6.056 -0.0697  0.2305 -0.1002
  972BUT     C1  972   2.180   4.747   1.332  0.2152  0.3604  0.0102
  973BUT     C1  973   4.183   6.173   1.481  0.0497 -0.0536 -0.0073
  974BUT     C1  974   5.956   3.560   4.941  0.0667  0.1585  0.2361
  975BUT     C1  975   2.756   3.087   2.792 -0.2067 -0.1151  0.1789
  976BUT     C1  976   1.650   0.172   2.770 -0.0551 -0.1170  0.0920
  977BUT     C1  977   3.578   3.608   6.534  0.0204 -0.1646 -0.4043
  978BUT     C1  978   0.160   5.084   0.545 -0.1052  0.3240 -0.1852
  979BUT     C1  979   2.506   5.373   3.830 -0.1682 -0.0267 -0.0188
  980BUT     C1  980   1.098   2.559   3.156  0.1247 -0.0600 -0.0004
  981BUT     C1  981   1.373   4.336   1.323 -0.1371 -0.0480  0.1941
  982BUT     C1  982   3.265   3.693   3.418  0.1351  0.1398  0.2280
  983BUT     C1  983   2.466   4.506   6.028 -0.0002  0.1199 -0.0862
  984BUT     C1  984   1.432   2.629   4.025 -0.2176 -0.2006 -0.1919
  985BUT     C1  985   2.391   6.244   3.893 -0.0225  0.2878  0.1401
  986BUT     C1  986   5.664   6.133   1.764 -0.3128 -0.2416 -0.0019
  987BUT     C1  987   4.179   1.791   4.076 -0.0163  0.3354 -0.1857
  988BUT     C1  988   1.484   4.797   1.130  0.1035 -0.2850  0.3179
  989BUT     C1  989   5.014   6.431   4.000  0.2564 -0.2323 -0.0034
  990BUT     C1  990   4.157   4.990   2.132  0.1575  0.0143  0.2569
  991BUT     C1  991   2.173   4.340   2.959  0.2428 -0.0551  0.0450
  992BUT     C1  992   5.945   6.345   1.265  0.0255 -0.1449 -0.1050
  993BUT     C1  993   2.415   3.633   3.902 -0.3946  0.1640 -0.2688
  994BUT     C1  994   6.452   1.220   3.686  0.4695 -0.0511 -0.1293
  995BUT     C1  995   2.250   0.911   4.469  0.1697 -0.1697 -0.2032
  996BUT     C1  996   1.577   2.102   1.932 -0.0518 -0.0889  0.2092
  997BUT     C1  997   1.537   5.262   5.070 -0.0560  0.2080 -0.1903
  998BUT     C1  998   0.426   3.181   0.285 -0.0918 -0.2444 -0.1698
  999BUT     C1  999   2.122   5.402   2.110 -0.1210  0.2183  0.0511
 1000BUT     C1 1000   3.699   2.461   3.130 -0.3734 -0.0332 -0.3430
 1001BUT     C1 1001   2.206   0.478   6.536 -0.0964  0.0560 -0.0266
 1002BUT     C1 1002   0.665   5.924   0.447  0.2161  0.1448  0.0797
 1003BUT     C1 1003   5.716   2.522   3.559  0.1291  0.1638 -0.0919
 1004BUT     C1 1004   2.832   0.275   5.709 -0.4434  0.1887  0.0580
 1005BUT     C1 1005   2.135   2.576   0.898  0.1728  0.0214 -0.2131
 1006BUT     C1 1006   0.001   1.237   4.402  0.1425 -0.3423 -0.1739
 1007BUT     C1 1007   5.777   4.776   0.739 -0.3212 -0.1224 -0.1820
 1008BUT     C1 1008   2.993   1.140   5.274 -0.0972  0.0680 -0.4205
 1009BUT     C1 1009   3.598   3.075   0.064 -0.1224  0.2715 -0.1683
 1010BUT     C1 1010   2.974   2.934   3.317 -0.0490 -0.2014 -0.2244
 1011BUT     C1 1011   4.191   1.686   6.437  0.0619  0.0760 -0.1393
 1012BUT     C1 1012   2.845   3.891   5.385  0.3146  0.1013 -0.0422
 1013BUT     C1 1013   6.379   4.214   0.745  0.1810 -0.0048  0.0120
 1014BUT     C1 1014   2.518   2.273   0.031 -0.0699 -0.2326  0.1851
 1015BUT     C1 1015   0.239   1.444   1.445 -0.1212  0.0562 -0.0677
 1016BUT     C1 1016   3.627   5.524   2.973  0.1692  0.3084  0.0035
 1017BUT     C1 1017   5.294   1.271   0.745  0.1074 -0.3235 -0.1135
 1018BUT     C1 1018   1.929   4.177   0.543  0.0770 -0.2265  0.1774
 1019BUT     C1 1019   1.992   3.603   1.726  0.1300 -0.1023  0.1786
 1020BUT     C1 1020   4.198   3.754   1.407  0.2236  0.0976 -0.2602
 1021BUT     C1 1021   4.666   2.053   2.119 -0.1544  0.0719 -0.0278
 1022BUT     C1 1022   0.910   5.407   2.816  0.0201  0.0812  0.4348
 1023BUT     C1 1023   1.165   3.603   4.174 -0.1818 -0.0749 -0.0430
 1024BUT     C1 1024   3.427   0.337   0.301 -0.3032  0.0635  0.1888
 1025BUT     C1 1025   5.117   0.164   4.855 -0.0175  0.0872  0.3530
 1026BUT     C1 1026   5.196   4.745   6.563 -0.2021  0.3343 -0.2610
 1027BUT     C1 1027   2.611   1.429   4.393  0.2050 -0.0288  0.2626
 1028BUT     C1 1028   3.908   0.533   5.756 -0.1051  0.0029  0.1485
 1029BUT     C1 1029   1.270   4.681   3.250  0.0708 -0.2865 -0.1224
 1030BUT     C1 1030   2.816   6.467   3.830 -0.0715  0.0293 -0.0229
 1031BUT     C1 1031   1.606   1.541   5.065 -0.0519  0.0684  0.1776
 1032BUT     C1 1032   3.777   5.714   0.555  0.3443  0.1225 -0.1923
 1033BUT     C1 1033   1.433   2.208   6.212  0.3432 -0.0697 -0.0929
 1034BUT     C1 1034   2.675   0.046   1.737 -0.2003 -0.0737 -0.0795
 1035BUT     C1 1035   4.220   0.743   1.758  0.0007  0.3245 -0.1024
 1036BUT     C1 1036   3.875   3.332   2.753 -0.0266  0.0938  0.2363
 1037BUT     C1 1037   5.405   4.621   1.509 -0.1255  0.3842 -0.0289
 1038BUT     C1 1038   5.026   3.188   2.025 -0.2471  0.2971  0.4908
 1039BUT     C1 1039   6.121   2.696   0.560 -0.0418 -0.0865  0.3327
 1040BUT     C1 1040   4.129   5.381   5.472 -0.2142 -0.1238 -0.2643
 1041BUT     C1 1041   0.351   3.442   4.209  0.1319  0.0395 -0.2787
 1042BUT     C1 1042   5.224   1.666   4.831 -0.1816  0.4246  0.0700
 1043BUT     C1 1043   3.503   1.000   2.471 -0.0270  0.3451  0.0245
 1044BUT     C1 1044   1.794   4.581   4.407 -0.2489  0.1178  0.0876
 1045BUT     C1 1045   3.027   3.506   5.737  0.0752 -0.1068  0.1629
 1046BUT     C1 1046   1.239   0.308   2.344 -0.2789  0.1806 -0.0084
 1047BUT     C1 1047   2.603   5.291   0.123  0.0559 -0.2124 -0.1583
 1048BUT     C1 1048   4.915   0.516   2.764  0.0601  0.1562  0.2768
 1049BUT     C1 1049   1.827   0.416   0.842 -0.0278  0.0049 -0.0381
 1050BUT     C1 1050   1.067   2.480   0.239  0.0354 -0.0123 -0.0104
 1051BUT     C1 1051   6.018   3.352   1.456  0.0010 -0.3727 -0.1029
 1052BUT     C1 1052   4.812   2.724   1.459 -0.0003 -0.2358  0.0031
 1053BUT     C1 1053   2.179   5.762   4.142  0.0276 -0.0228  0.1913
 1054BUT     C1 1054   1.466   4.943   4.634  0.0368 -0.0928 -0.0891
 1055BUT     C1 1055   3.195   5.906   2.251  0.0481  0.1249 -0.1676
 1056BUT     C1 1056   0.302   3.612   3.722  0.0945 -0.4885 -0.2018
 1057BUT     C1 1057   4.682   1.413   4.538  0.0108  0.1528  0.0351
 1058BUT     C1 1058   4.820   4.827   6.192  0.4877 -0.0027  0.2590
 1059BUT     C1 1059   3.877   2.067   3.751  0.2998 -0.4733  0.5373
 1060BUT     C1 1060   3.267   0.449   4.639 -0.0952 -0.1325 -0.1234
 1061BUT     C1 1061   2.291   2.426   3.091  0.2138  0.0219  0.0826
 1062BUT     C1 1062   0.052   3.256   5.635 -0.1217 -0.1324 -0.0531
 1063BUT     C1 1063   5.792   2.906   2.783  0.1293 -0.1600 -0.0700
 1064BUT     C1 1064   3.837   2.888   3.321  0.1794  0.0695 -0.0942
 1065BUT     C1 1065   0.634   2.004   0.851 -0.2516  0.2332  0.0099
 1066BUT     C1 1066   4.982   1.446   6.134  0.0486  0.1005  0.0312
 1067BUT     C1 1067   5.713   1.463   1.185  0.4460 -0.2161  0.3283
 1068BUT     C1 1068   1.628   4.946   4.056  0.0076  0.1717  0.0474
 1069BUT     C1 1069   6.291   1.086   2.612  0.0656 -0.2164 -0.1042
 1070BUT     C1 1070   3.526   5.463   6.318 -0.1988  0.1744 -0.0010
 1071BUT     C1 1071   5.641   3.351   2.988  0.0091 -0.0643  0.2265
 1072BUT     C1 1072   0.158   6.091   0.845  0.1165  0.0217  0.2188
 1073BUT     C1 1073   1.767   5.216   0.313  0.0929 -0.0095  0.2211
 1074BUT     C1 1074   2.944   4.429   5.982  0.2507  0.2222  0.1038
 1075BUT     C1 1075   0.788   4.907   1.600 -0.0268  0.0955  0.2735
 1076BUT     C1 1076   4.960   6.055   4.547  0.0003  0.2416  0.0753
 1077BUT     C1 1077   6.509   0.180   1.000 -0.0866 -0.2590  0.2651
 1078BUT     C1 1078   6.434   4.726   5.710  0.0996 -0.1222  0.1900
 1079BUT     C1 1079   6.472   0.842   3.082  0.0061  0.0913  0.1710
 1080BUT     C1 1080   3.425   2.666   0.259  0.3901 -0.2427 -0.0565
 1081BUT     C1 1081   6.322   4.802   4.515  0.0512  0.0455 -0.0209
 1082BUT     C1 1082   4.625   3.470   3.518 -0.1867  0.3573  0.0609
 1083BUT     C1 1083   0.291   4.854   3.806 -0.4629  0.0597 -0.0466
 1084BUT     C1 1084   1.164   3.026   1.580  0.0102 -0.0458 -0.0508
 1085BUT     C1 1085   0.335   1.460   0.950 -0.3166  0.0597 -0.2928
 1086BUT     C1 1086   3.231   4.751   0.682  0.3729 -0.0558  0.1219
 1087BUT     C1 1087   0.546   3.171   4.581  0.0434 -0.2333  0.1459
 1088BUT     C1 1088   5.140   3.480   6.119 -0.1855 -0.4012 -0.0774
 1089BUT     C1 1089   2.266   5.102   0.416  0.1444 -0.3360 -0.0171
 1090BUT     C1 1090   2.828   3.018   5.430  0.1342  0.0529  0.1963
 1091BUT     C1 1091   6.034   3.435   4.397  0.1372 -0.0384 -0.0726
 1092BUT     C1 1092   0.274   6.038   2.802 -0.3021  0.0106  0.1368
 1093BUT     C1 1093   4.062   5.778   4.879  0.2374 -0.1668 -0.1439
 1094BUT     C1 1094   1.168   3.162   2.642 -0.1816  0.3280  0.1822
 1095BUT     C1 1095   1.108   0.095   4.644 -0.0633 -0.0096 -0.1425
 1096BUT     C1 1096   6.258   0.609   2.644  0.1247 -0.0839 -0.0653
 1097BUT     C1 1097   5.292   2.142   4.883 -0.1165  0.0698  0.0190
 1098BUT     C1 1098   1.099   1.786   1.009 -0.5493 -0.0415  0.1283
 1099BUT     C1 1099   5.698   3.811   2.593  0.1530  0.1287  0.0623
 1100BUT     C1 1100   4.532   0.304   3.241  0.0397  0.1050 -0.3379
 1101BUT     C1 1101   3.489   1.906   4.679  0.1066  0.0852 -0.3425
 1102BUT     C1 1102   2.275   5.601   0.462  0.1991 -0.0316 -0.0600
 1103BUT     C1 1103   4.187   2.766   2.981 -0.1911  0.0300  0.3462
 1104BUT     C1 1104   0.732   1.837   6.387  0.0848 -0.4680 -0.2331
 1105BUT     C1 1105   6.600   1.280   2.920  0.3598 -0.0787 -0.0636
 1106BUT     C1 1106   2.225   5.185   1.626  0.1303  0.2635 -0.0068
 1107BUT     C1 1107   2.594   0.750   2.927  0.1687  0.1276  0.1415
 1108BUT     C1 1108   2.369   1.631   5.511 -0.0087  0.0525 -0.0729
 1109BUT     C1 1109   2.705   0.825   6.133  0.1128  0.0976 -0.0504
 1110BUT     C1 1110   2.909   0.783   5.660  0.0842  0.2950 -0.2013
 1111BUT     C1 1111   3.497   2.325   2.552 -0.0758 -0.1482 -0.0544
 1112BUT     C1 1112   0.333   4.607   2.715 -0.0512 -0.1643 -0.2399
 1113BUT     C1 1113   4.325   5.522   3.824  0.0869  0.2425 -0.0114
 1114BUT     C1 1114   3.204   0.496   2.444  0.1023 -0.0004 -0.3051
 1115BUT     C1 1115   5.533   2.058   0.562 -0.0798 -0.0982 -0.2328
 1116BUT     C1 1116   1.783   3.510   1.116 -0.1642 -0.2593 -0.0284
 1117BUT     C1 1117   5.823   1.380   5.276 -0.0057 -0.0630 -0.0225
 1118BUT     C1 1118   3.397   6.310   4.532  0.0427 -0.2624  0.2153
 1119BUT     C1 1119   6.584   2.506   5.451  0.0332 -0.2211  0.0794
 1120BUT     C1 1120   2.338   3.953   5.253  0.1302  0.1427  0.0171
 1121BUT     C1 1121   0.944   3.263   0.784 -0.0054 -0.0699  0.0866
 1122BUT     C1 1122   5.223   4.694   5.816  0.2112  0.2172 -0.2500
 1123BUT     C1 1123   0.497   0.409   2.838 -0.1432 -0.0720 -0.0693
 1124BUT     C1 1124   2.349   4.459   0.489  0.1765  0.0529  0.0435
 1125BUT     C1 1125   1.746   4.608   2.283  0.1599  0.0937  0.2726
 1126BUT     C1 1126   0.852   1.362   0.823 -0.3797 -0.1571 -0.1040
 1127BUT     C1 1127   4.780   5.528   6.190  0.2010  0.4746  0.1807
 1128BUT     C1 1128   6.217   6.175   5.660 -0.3213  0.1222  0.1804
 1129BUT     C1 1129   6.391   4.427   5.236 -0.1124 -0.0725  0.1106
 1130BUT     C1 1130   0.462   0.525   1.861  0.3874 -0.1965 -0.1113
 1131BUT     C1 1131   6.533   5.959   2.266  0.2325  0.0158 -0.2144
 1132BUT     C1 1132   6.120   2.918   0.015 -0.1326 -0.0437 -0.0181
 1133BUT     C1 1133   5.775   2.509   4.641 -0.2236  0.1015 -0.2108
 1134BUT     C1 1134   6.174   2.033   6.404 -0.0097 -0.1220 -0.0131
 1135BUT     C1 1135   4.048   5.984   2.975  0.1620  0.0619 -0.1217
 1136BUT     C1 1136   5.643   1.475   1.875 -0.6269 -0.3424  0.0837
 1137BUT     C1 1137   5.377   0.693   3.722  0.1441 -0.0657  0.0795
 1138BUT     C1 1138   3.349   3.200   5.344  0.0398  0.4612 -0.4874
 1139BUT     C1 1139   1.908   4.686   0.335  0.0443  0.2198  0.3708
 1140BUT     C1 1140   4.449   0.620   2.208 -0.0566  0.1922  0.0461
 1141BUT     C1 1141   5.639   4.950   1.975  0.0669 -0.5354  0.0924
 1142BUT     C1 1142   5.872   5.961   3.882 -0.1196 -0.0086 -0.2299
 1143BUT     C1 1143   1.889   3.049   3.331 -0.1961  0.1189  0.1379
 1144BUT     C1 1144   4.703   2.658   2.459  0.0654 -0.2793 -0.0394
 1145BUT     C1 1145   4.248   2.661   4.994 -0.0871 -0.3574 -0.2001
 1146BUT     C1 1146   1.374   0.440   1.183  0.0147 -0.1000  0.0351
 1147BUT     C1 1147   1.232   5.712   5.377 -0.0025  0.0991 -0.0484
 1148BUT     C1 1148   2.623   5.030   4.844  0.1028  0.0832  0.1595
 1149BUT     C1 1149   0.229   5.631   0.536 -0.3205  0.2136 -0.2760
 1150BUT     C1 1150   3.577   0.950   4.438 -0.1550  0.0331 -0.2178
 1151BUT     C1 1151   6.435   4.768   3.517  0.0517 -0.0981  0.0309
 1152BUT     C1 1152   0.467   2.483   6.226 -0.2355  0.1891 -0.0948
 1153BUT     C1 1153   3.383   2.120   5.418  0.1800 -0.0200  0.0414
 1154BUT     C1 1154   3.357   1.345   6.604  0.1308  0.1548  0.0683
 1155BUT     C1 1155   6.230   0.130   1.972  0.4078  0.0031  0.3095
 1156BUT     C1 1156   5.416   6.446   4.452 -0.1377  0.0272  0.2110
 1157BUT     C1 1157   2.964   2.438   0.393  0.4874  0.1270  0.0832
 1158BUT     C1 1158   3.284   3.958   2.985 -0.0403 -0.1509 -0.0332
 1159BUT     C1 1159   0.380   2.687   5.148 -0.2448  0.1238  0.0193
 1160BUT     C1 1160   3.855   5.407   0.991 -0.0282  0.1186  0.0054
 1161BUT     C1 1161   1.738   4.765   3.555 -0.1486  0.5130  0.2675
 1162BUT     C1 1162   0.113   5.643   0.020  0.0048  0.1514 -0.1093
 1163BUT     C1 1163   3.235   3.170   3.807  0.1183  0.1508  0.0854
 1164BUT     C1 1164   3.015   3.808   1.751 -0.0995 -0.0797 -0.0302
 1165BUT     C1 1165   6.392   1.602   4.083  0.0182  0.0175 -0.2050
 1166BUT     C1 1166   0.515   6.289   5.518 -0.2601  0.1361  0.2115
 1167BUT     C1 1167   4.722   6.548   5.050 -0.0597  0.0001  0.0323
 1168BUT     C1 1168   2.871   1.465   3.989  0.0355 -0.0451  0.1599
 1169BUT     C1 1169   0.076   0.163   1.634 -0.1001 -0.2012 -0.1028
 1170BUT     C1 1170   0.009   5.095   1.110  0.0123 -0.0590  0.0107
 1171BUT     C1 1171   4.816   6.579   4.500 -0.4459  0.0307 -0.0348
 1172BUT     C1 1172   1.442   5.241   5.527  0.0798  0.0831  0.2550
 1173BUT     C1 1173   1.366   2.700   2.746 -0.0845 -0.0967 -0.1151
 1174BUT     C1 1174   6.219   4.108   1.690  0.2300  0.0582  0.1912
 1175BUT     C1 1175   6.275   4.441   1.165  0.1229  0.2635 -0.0036
 1176BUT     C1 1176   0.759   2.414   0.641  0.0830  0.1074 -0.0808
 1177BUT     C1 1177   4.140   6.156   5.780  0.1552 -0.0876 -0.0699
 1178BUT     C1 1178   0.706   4.217   2.667  0.2360 -0.0595 -0.1244
 1179BUT     C1 1179   1.520   3.990   6.299 -0.1598  0.1352  0.0192
 1180BUT     C1 1180   4.233   1.332   4.210  0.0666 -0.1096  0.3436
 1181BUT     C1 1181   3.796   1.436   2.697 -0.0383 -0.2261 -0.0729
 1182BUT     C1 1182   5.548   0.315   4.710  0.0432  0.1471 -0.1595
 1183BUT     C1 1183   0.402   1.753   0.125 -0.1110  0.1224  0.0815
 1184BUT     C1 1184   4.793   1.634   1.792 -0.3065  0.0360  0.1168
 1185BUT     C1 1185   5.126   0.017   5.885  0.0000 -0.0100 -0.1056
 1186BUT     C1 1186   0.095   3.391   2.678  0.0109 -0.1664  0.3152
 1187BUT     C1 1187   5.404   3.950   2.203  0.0167  0.0235  0.0080
 1188BUT     C1 1188   5.769   2.076   3.712 -0.3065  0.0347 -0.1550
 1189BUT     C1 1189   5.857   3.673   5.538  0.3247 -0.2086  0.1331
 1190BUT     C1 1190   2.840   4.080   2.444  0.1171  0.0382 -0.0828
 1191BUT     C1 1191   5.869   0.937   2.951  0.0970 -0.1448  0.0900
 1192BUT     C1 1192   6.261   0.564   1.625  0.0520 -0.0139  0.1170
 1193BUT     C1 1193   3.783   2.498   3.914  0.0402 -0.1001 -0.0535
 1194BUT     C1 1194   4.674   1.746   2.536 -0.0038  0.0822 -0.0478
 1195BUT     C1 1195   0.264   0.027   6.408 -0.2497 -0.0647 -0.0578
 1196BUT     C1 1196   2.448   3.751   1.804 -0.0773 -0.1854 -0.0549
 1197BUT     C1 1197   5.247   3.275   2.717 -0.1012 -0.3495 -0.0920
 1198BUT     C1 1198   6.582   3.780   3.356 -0.0502  0.0859 -0.3688
 1199BUT     C1 1199   1.694   4.479   5.580 -0.0455 -0.2136 -0.0246
 1200BUT     C1 1200   3.735   3.477   4.166 -0.1016  0.0596  0.0284
 1201BUT     C1 1201   4.044   0.983   0.449  0.0835  0.0661 -0.0508
 1202BUT     C1 1202   3.009   3.452   5.071 -0.2767 -0.0120 -0.1213
 1203BUT     C1 1203   2.236   1.246   1.181 -0.2132  0.0092 -0.0574
 1204BUT     C1 1204   3.077   6.378   3.141 -0.0402 -0.2830  0.1580
 1205BUT     C1 1205   2.998   1.369   2.659  0.0882 -0.0737 -0.0732
 1206BUT     C1 1206   3.429   6.346   3.988  0.2701 -0.0582 -0.0044
 1207BUT     C1 1207   5.014   0.534   5.154  0.1563 -0.3024  0.1235
 1208BUT     C1 1208   0.629   2.175   2.143 -0.0094 -0.3398  0.0067
 1209BUT     C1 1209   5.418   1.332   2.759  0.0905 -0.3981  0.1242
 1210BUT     C1 1210   5.826   3.398   6.045  0.2174  0.1300  0.1559
 1211BUT     C1 1211   6.328   3.624   3.808 -0.1248  0.2249  0.0626
 1212BUT     C1 1212   2.028   5.838   3.577 -0.0084  0.0471  0.2860
 1213BUT     C1 1213   1.670   0.055   1.348  0.0861  0.0921 -0.0447
 1214BUT     C1 1214   3.374   6.568   1.461 -0.1375 -0.0252  0.1433
 1215BUT     C1 1215   4.847   3.685   0.113  0.1472 -0.0923 -0.1964
 1216BUT     C1 1216   3.115   1.798   1.458 -0.0993 -0.1361 -0.1596
 1217BUT     C1 1217   5.115   3.168   3.224  0.1083 -0.1748  0.0490
 1218BUT     C1 1218   1.604   0.146   3.873 -0.2432  0.1596  0.1320
 1219BUT     C1 1219   5.801   0.523   0.182  0.0630  0.0116 -0.0488
 1220BUT     C1 1220   3.080   5.074   0.249  0.0148 -0.3247 -0.3783
 1221BUT     C1 1221   3.138   3.920   4.786  0.0300 -0.1450 -0.1638
 1222BUT     C1 1222   5.387   0.744   0.956  0.0010  0.2680  0.1837
 1223BUT     C1 1223   5.312   2.822   2.909 -0.0244  0.2462 -0.2647
 1224BUT     C1 1224   5.595   3.773   4.467 -0.0164  0.1077 -0.0398
 1225BUT     C1 1225   0.535   4.007   3.607 -0.2242  0.0208 -0.0009
 1226BUT     C1 1226   4.535   4.838   1.457 -0.3825  0.1023 -0.1090
 1227BUT     C1 1227   4.362   6.236   3.738 -0.0546  0.0458 -0.0167
 1228BUT     C1 1228   6.225   2.011   3.626 -0.0500  0.1120  0.3399
 1229BUT     C1 1229   1.222   4.340   2.274  0.1181 -0.1910  0.0971
 1230BUT     C1 1230   4.222   3.355   3.154  0.0285  0.2462  0.4458
 1231BUT     C1 1231   2.902   1.824   0.054 -0.1311  0.2507 -0.0544
 1232BUT     C1 1232   4.187   0.461   1.298  0.1353  0.1118  0.0975
 1233BUT     C1 1233   6.353   4.217   5.971  0.2176  0.0153  0.2019
 1234BUT     C1 1234   3.013   4.238   3.434  0.1758  0.1491  0.1099
 1235BUT     C1 1235   3.073   5.744   2.757 -0.1644  0.3329 -0.4383
 1236BUT     C1 1236   4.905   1.009   5.025  0.0873 -0.1390  0.1038
 1237BUT     C1 1237   2.143   4.834   3.192 -0.0472  0.1634 -0.2170
 1238BUT     C1 1238   0.797   5.703   0.876  0.1518 -0.2923  0.2193
 1239BUT     C1 1239   1.164   5.415   1.435 -0.0951  0.2380 -0.0445
 1240BUT     C1 1240   4.144   0.840   3.279 -0.0380 -0.2870 -0.2409
 1241BUT     C1 1241   0.460   2.148   3.144  0.0775  0.0169  0.1644
 1242BUT     C1 1242   1.409   3.524   1.663 -0.2296 -0.1979  0.1280
 1243BUT     C1 1243   1.199   0.601   4.353 -0.2209  0.1035 -0.0277
 1244BUT     C1 1244   5.359   5.186   5.980  0.0483  0.0921 -0.3870
 1245BUT     C1 1245   2.649   5.332   0.687 -0.1435  0.0591 -0.0033
 1246BUT     C1 1246   2.662   0.511   5.233  0.0042  0.1023 -0.0920
 1247BUT     C1 1247   2.601   1.520   0.415  0.0356 -0.3725 -0.2482
 1248BUT     C1 1248   5.478   6.234   0.276 -0.1904  0.2419  0.0983
 1249BUT     C1 1249   4.513   4.123   0.075  0.2754  0.2951 -0.0532
 1250BUT     C1 1250   5.007   4.601   2.687  0.1875  0.1470  0.4956
 1251BUT     C1 1251   2.191   0.183   3.738 -0.1653 -0.0023 -0.1947
 1252BUT     C1 1252   2.835   2.147   2.518 -0.0850  0.2691  0.0985
 1253BUT     C1 1253   6.376   0.373   5.255  0.2934 -0.0038  0.0875
 1254BUT     C1 1254   5.342   2.742   4.427 -0.0814  0.1088  0.3523
 1255BUT     C1 1255   5.568   4.399   2.613  0.2820 -0.0212 -0.1890
 1256BUT     C1 1256   4.480   2.952   4.575 -0.2447  0.1015 -0.1459
 1257BUT     C1 1257   6.075   4.924   3.872 -0.1328 -0.2059 -0.4709
 1258BUT     C1 1258   3.397   3.984   1.468  0.1172  0.1419  0.0592
 1259BUT     C1 1259   1.571   6.315   1.632  0.0651  0.2433  0.1670
 1260BUT     C1 1260   0.712   2.145   0.188 -0.0352 -0.1331  0.1803
 1261BUT     C1 1261   4.509   5.238   6.504  0.1659 -0.0088 -0.2783
 1262BUT     C1 1262   5.403   2.712   4.985  0.0391 -0.1420 -0.0706
 1263BUT     C1 1263   5.219   0.120   2.852  0.1524 -0.2130 -0.2984
 1264BUT     C1 1264   1.798   5.720   2.488  0.2555 -0.3761  0.0781
 1265BUT     C1 1265   1.480   2.834   0.234 -0.2124 -0.0622 -0.0388
 1266BUT     C1 1266   5.273   3.924   0.891 -0.1372 -0.1259 -0.2126
 1267BUT     C1 1267   5.885   3.797   1.627 -0.0121  0.1683 -0.2424
 1268BUT     C1 1268   1.365   6.594   3.487  0.0990  0.1348  0.1176
 1269BUT     C1 1269   3.774   4.932   6.256  0.2235 -0.1995 -0.2420
 1270BUT     C1 1270   3.067   0.350   6.170 -0.0036  0.1997 -0.0036
 1271BUT     C1 1271   5.551   0.672   5.815  0.2416  0.1371  0.0508
 1272BUT     C1 1272   5.047   3.904   5.268 -0.0402 -0.0287 -0.0735
 1273BUT     C1 1273   6.556   4.581   4.030  0.1461 -0.2161 -0.0629
 1274BUT     C1 1274   1.369   3.994   3.167 -0.2829  0.0270  0.0590
 1275BUT     C1 1275   0.803   1.657   0.436  0.2100 -0.0209  0.0966
 1276BUT     C1 1276   0.081   3.862   2.845  0.5430  0.0162 -0.2197
 1277BUT     C1 1277   5.807   6.248   2.222 -0.0156 -0.5051 -0.0316
 1278BUT     C1 1278   5.192   2.695   3.925  0.1586  0.0998  0.0082
 1279BUT     C1 1279   3.370   6.146   5.380  0.1554  0.1929  0.0739
 1280BUT     C1 1280   0.013   2.542   2.551  0.0847 -0.3485  0.1841
 1281BUT     C1 1281   3.050   2.291   4.822 -0.3301 -0.0721 -0.0614
 1282BUT     C1 1282   3.407   3.124   5.805 -0.0205  0.1836  0.3845
 1283BUT     C1 1283   4.233   1.773   2.097 -0.0027 -0.0393 -0.1161
 1284BUT     C1 1284   2.538   1.373   3.607  0.1196  0.2152 -0.0679
 1285BUT     C1 1285   1.264   1.502   3.878 -0.4290 -0.2282  0.3140
 1286BUT     C1 1286   5.110   3.185   4.041  0.0419 -0.0575 -0.0326
 1287BUT     C1 1287   2.023   5.859   0.857 -0.1973 -0.3948 -0.0774
 1288BUT     C1 1288   2.100   1.976   0.059 -0.2459  0.3898  0.0610
 1289BUT     C1 1289   6.433   0.620   0.678  0.0943  0.1923  0.0159
 1290BUT     C1 1290   2.971   4.781   6.309  0.0492  0.1785  0.2577
 1291BUT     C1 1291   1.107   5.906   1.343 -0.0682  0.0798 -0.1309
 1292BUT     C1 1292   5.289   5.383   5.240 -0.4627 -0.1622 -0.1287
 1293BUT     C1 1293   3.137   3.693   2.414 -0.2535  0.4041  0.0282
 1294BUT     C1 1294   2.860   0.437   3.321 -0.4497 -0.1013 -0.0966
 1295BUT     C1 1295   1.482   2.555   1.686  0.1097  0.2389  0.2566
 1296BUT     C1 1296   2.464   1.112   5.306  0.0611  0.0112 -0.0611
 1297BUT     C1 1297   1.455   1.056   0.630 -0.1189 -0.0624  0.1672
 1298BUT     C1 1298   1.104   0.528   5.355  0.0379  0.0435 -0.2624
 1299BUT     C1 1299   5.983   4.409   4.116 -0.2992  0.0098  0.1900
 1300BUT     C1 1300   2.342   3.313   0.341 -0.0327 -0.1129  0.0333
 1301BUT     C1 1301   5.598   5.046   6.497 -0.3526 -0.0382  0.0156
 1302BUT     C1 1302   6.177   0.799   6.076  0.1384 -0.1999 -0.0944
 1303BUT     C1 1303   2.220   4.836   4.464 -0.1516 -0.0858  0.3408
 1304BUT     C1 1304   5.073   4.771   1.838 -0.0567 -0.2130  0.3179
 1305BUT     C1 1305   4.683   3.299   2.955 -0.0009  0.0446 -0.1471
 1306BUT     C1 1306   0.099   6.419   3.036  0.1971 -0.1003  0.0012
 1307BUT     C1 1307   1.353   5.888   1.796 -0.4169 -0.2891 -0.1618
 1308BUT     C1 1308   6.473   3.209   3.395 -0.2132 -0.4635  0.0167
 1309BUT     C1 1309   1.593   5.843   1.321  0.3212 -0.1114 -0.3382
 1310BUT     C1 1310   4.922   5.744   3.859 -0.0479  0.0161  0.2530
 1311BUT     C1 1311   4.787   4.899   3.645  0.0359 -0.0906  0.2558
 1312BUT     C1 1312   5.116   4.679   3.897 -0.0466 -0.0338 -0.0609
 1313BUT     C1 1313   6.458   5.764   3.596 -0.0384 -0.3813 -0.2839
 1314BUT     C1 1314   3.301   4.774   1.702  0.2945 -0.0324  0.3867
 1315BUT     C1 1315   2.907   3.845   3.729  0.1136  0.7976 -0.1143
 1316BUT     C1 1316   2.488   5.785   0.940 -0.0018  0.0216  0.4125
 1317BUT     C1 1317   2.257   5.743   1.738  0.0523 -0.0655 -0.0524
 1318BUT     C1 1318   3.376   1.798   0.945 -0.1400 -0.0289 -0.1350
 1319BUT     C1 1319   3.537   6.558   2.937 -0.1881 -0.1163 -0.3725
 1320BUT     C1 1320   1.270   5.737   0.930 -0.0912 -0.0549  0.1760
 1321BUT     C1 1321   5.988   2.886   1.964 -0.1987 -0.2194  0.2209
 1322BUT     C1 1322   0.955   3.855   2.858  0.2676  0.1966 -0.0531
 1323BUT     C1 1323   5.857   2.331   1.509 -0.2342 -0.0292 -0.0451
 1324BUT     C1 1324   2.140   4.420   3.466 -0.0220 -0.0384 -0.0634
 1325BUT     C1 1325   4.726   5.251   4.522 -0.2004  0.0947  0.1269
 1326BUT     C1 1326   4.917   5.907   6.479  0.2361  0.0965 -0.0459
 1327BUT     C1 1327   1.380   6.112   2.280 -0.0423  0.0169  0.0562
 1328BUT     C1 1328   3.787   3.919   3.079 -0.0091 -0.1120 -0.2326
 1329BUT     C1 1329   2.013   5.200   4.665 -0.0530  0.4526 -0.1303
 1330BUT     C1 1330   3.855   1.287   1.974 -0.0508 -0.0325 -0.2313
 1331BUT     C1 1331   4.238   6.325   3.243 -0.0803 -0.0104 -0.1145
 1332BUT     C1 1332   1.972   4.741   5.966 -0.0046  0.1764 -0.1768
 1333BUT     C1 1333   0.160   0.691   2.538  0.3037 -0.0156  0.2921
 1334BUT     C1 1334   2.122   1.690   2.737 -0.0680  0.3002 -0.2351
 1335BUT     C1 1335   1.784   4.087   4.502 -0.0238 -0.1859 -0.1358
 1336BUT     C1 1336   5.690   5.102   4.920 -0.1689 -0.0144 -0.2233
 1337BUT     C1 1337   1.660   3.486   5.251 -0.2828  0.0584 -0.1661
 1338BUT     C1 1338   4.905   6.080   5.088  0.1947  0.0608 -0.0298
 1339BUT     C1 1339   3.678   0.554   2.702 -0.0342  0.0998  0.0063
 1340BUT     C1 1340   4.476   0.614   3.668  0.0178 -0.3190 -0.1045
 1341BUT     C1 1341   3.266   3.628   4.060  0.0957  0.1858 -0.1283
 1342BUT     C1 1342   3.780   6.144   6.480 -0.1401 -0.1995 -0.2332
 1343BUT     C1 1343   2.311   0.157   2.076  0.0180  0.2807  0.0864
 1344BUT     C1 1344   5.397   5.884   5.280 -0.3098  0.0811 -0.0834
 1345BUT     C1 1345   5.329   6.277   2.896 -0.0042  0.0977 -0.0413
 1346BUT     C1 1346   2.992   4.763   4.686 -0.2723  0.0422 -0.0310
 1347BUT     C1 1347   2.669   1.156   4.776  0.0186 -0.1156  0.1145
 1348BUT     C1 1348   2.031   2.108   0.778 -0.2915  0.0160  0.0061
 1349BUT     C1 1349   1.621   5.622   0.604  0.0285 -0.2772 -0.1411
 1350BUT     C1 1350   3.666   0.302   5.290  0.0590 -0.1134  0.1652
 1351BUT     C1 1351   4.225   2.433   3.468 -0.0562 -0.1146 -0.3423
 1352BUT     C1 1352   4.591   1.892   4.648  0.2465 -0.2717 -0.2453
 1353BUT     C1 1353   5.261   2.837   0.967  0.0208 -0.1853 -0.2775
 1354BUT     C1 1354   0.920   6.088   3.668 -0.1928  0.0824 -0.1031
 1355BUT     C1 1355   1.984   3.286   4.066  0.0164 -0.2317  0.2857
 1356BUT     C1 1356   3.663   5.003   0.614  0.0149  0.1940  0.1988
 1357BUT     C1 1357   4.073   0.987   2.481 -0.1453 -0.4209 -0.2639
 1358BUT     C1 1358   3.743   0.706   3.687  0.1130  0.2078 -0.2430
 1359BUT     C1 1359   3.580   0.210   6.086 -0.4030 -0.0317  0.2578
 1360BUT     C1 1360   5.382   6.314   4.973  0.0424  0.1102 -0.0170
 1361BUT     C1 1361   4.607   5.738   1.926 -0.0034 -0.0152 -0.0152
 1362BUT     C1 1362   6.310   6.461   0.068 -0.4471 -0.0025  0.0912
 1363BUT     C1 1363   0.658   5.386   5.795  0.0528 -0.3084  0.2846
 1364BUT     C1 1364   4.733   4.584   0.985 -0.1561  0.2320 -0.0952
 1365BUT     C1 1365   5.462   3.794   3.030  0.2042  0.1260  0.1574
 1366BUT     C1 1366   3.737   5.890   5.987 -0.1890 -0.2612  0.0159
 1367BUT     C1 1367   3.503   5.499   0.196  0.2356  0.0801  0.2568
 1368BUT     C1 1368   5.279   2.438   6.153  0.3786  0.1982  0.2196
 1369BUT     C1 1369   6.393   6.584   4.092 -0.3631  0.2062 -0.1891
 1370BUT     C1 1370   4.890   5.657   5.642 -0.1362 -0.1084  0.2000
 1371BUT     C1 1371   2.638   5.064   2.151  0.1801  0.2333  0.1519
 1372BUT     C1 1372   4.023   6.578   2.857 -0.0199 -0.1701 -0.0372
 1373BUT     C1 1373   6.573   3.080   0.126  0.3267  0.2576  0.0904
 1374BUT     C1 1374   3.528   4.265   0.305  0.4750  0.0146  0.1780
 1375BUT     C1 1375   2.168   2.454   2.131 -0.1516  0.1790  0.0388
 1376BUT     C1 1376   3.130   2.570   2.652  0.0037  0.0198  0.0185
 1377BUT     C1 1377   3.293   1.331   3.069  0.0432 -0.2288  0.0345
 1378BUT     C1 1378   4.622   0.865   5.844  0.2306 -0.0081 -0.1083
 1379BUT     C1 1379   2.330   4.379   2.453  0.0576  0.0403 -0.0759
 1380BUT     C1 1380   3.311   1.191   5.831 -0.2273  0.1985 -0.3484
 1381BUT     C1 1381   4.679   3.988   1.684 -0.0353  0.2119  0.1196
 1382BUT     C1 1382   2.864   5.689   1.468  0.1308  0.2419  0.2630
 1383BUT     C1 1383   5.740   0.840   4.953 -0.2601  0.1271 -0.2988
 1384BUT     C1 1384   5.010   6.205   0.299  0.0378  0.0883  0.1638
 1385BUT     C1 1385   4.979   4.246   0.704  0.1045 -0.2573  0.3053
 1386BUT     C1 1386   3.867   6.481   4.203 -0.2357 -0.0382  0.0117
 1387BUT     C1 1387   1.963   0.521   1.275  0.1943  0.2732  0.3291
 1388BUT     C1 1388   2.242   5.324   5.097 -0.0091 -0.2043  0.3413
 1389BUT     C1 1389   0.755   3.513   3.929  0.0399 -0.1365 -0.1858
 1390BUT     C1 1390   0.941   0.062   1.298  0.0993  0.1032  0.0080
 1391BUT     C1 1391   0.021   3.918   1.409  0.4639  0.2944  0.0499
 1392BUT     C1 1392   1.368   1.962   4.089  0.2885  0.1366 -0.2378
 1393BUT     C1 1393   4.859   2.991   3.659 -0.0492 -0.2987 -0.0382
 1394BUT     C1 1394   0.927   2.531   4.973  0.1499  0.1104 -0.0189
 1395BUT     C1 1395   4.804   2.766   4.240 -0.2578  0.0563 -0.3356
 1396BUT     C1 1396   5.885   0.260   5.843 -0.1785 -0.1249 -0.0556
 1397BUT     C1 1397   2.733   3.650   2.668  0.0983 -0.1203 -0.3586
 1398BUT     C1 1398   2.733   3.657   0.170  0.0933  0.3175  0.2510
 1399BUT     C1 1399   5.967   1.438   2.810 -0.0262  0.1520 -0.0419
 1400BUT     C1 1400   5.258   5.750   0.302  0.1125  0.2011  0.2129
 1401BUT     C1 1401   5.200   4.574   3.402  0.0584  0.1004  0.2054
 1402BUT     C1 1402   0.937   2.335   1.158 -0.1870 -0.1695  0.4143
 1403BUT     C1 1403   3.981   5.000   3.057  0.1767 -0.0072 -0.0654
 1404BUT     C1 1404   1.179   0.820   1.000  0.0091  0.0006  0.3662
 1405BUT     C1 1405   2.113   2.446   0.408  0.0626  0.0102 -0.0573
 1406BUT     C1 1406   1.371   2.405   5.079  0.0817 -0.0164  0.0553
 1407BUT     C1 1407   1.602   1.882   1.455  0.1433  0.1393  0.2039
 1408BUT     C1 1408   5.064   1.849   3.875 -0.0801  0.1371  0.1488
 1409BUT     C1 1409   3.383   5.418   0.882 -0.0793  0.1912 -0.2256
 1410BUT     C1 1410   2.281   3.165   3.624  0.5135 -0.0894  0.0206
 1411BUT     C1 1411   1.144   2.042   1.523 -0.0332 -0.2319  0.0543
 1412BUT     C1 1412   0.342   0.311   0.392 -0.1007 -0.1407 -0.0333
 1413BUT     C1 1413   2.787   3.230   2.155 -0.3271  0.0288  0.2067
 1414BUT     C1 1414   4.678   3.002   5.566 -0.0897  0.0602  0.0572
 1415BUT     C1 1415   0.613   0.736   0.193  0.0692  0.1713 -0.0309
 1416BUT     C1 1416   0.417   2.461   1.269  0.0161  0.2933  0.0224
 1417BUT     C1 1417   1.294   4.701   1.656  0.3602 -0.1339  0.0056
 1418BUT     C1 1418   5.757   0.663   6.347 -0.2276 -0.0003 -0.0022
 1419BUT     C1 1419   5.885   4.078   5.160  0.2051 -0.1810  0.2796
 1420BUT     C1 1420   6.462   4.713   3.010  0.0163 -0.0182  0.2502
 1421BUT     C1 1421   5.450   4.438   2.179  0.0980  0.1595  0.2499
 1422BUT     C1 1422   6.597   2.839   0.564 -0.0681 -0.1950  0.2702
 1423BUT     C1 1423   0.417   0.972   1.488  0.2741 -0.1172 -0.0289
 1424BUT     C1 1424   5.775   4.838   3.490  0.0095 -0.2325 -0.1493
 1425BUT     C1 1425   4.920   1.959   3.378  0.0262  0.0613 -0.2673
 1426BUT     C1 1426   4.749   0.297   0.448  0.0011  0.0163 -0.3060
 1427BUT     C1 1427   5.403   0.744   5.364 -0.0401  0.0706  0.2181
 1428BUT     C1 1428   3.894   0.054   1.624  0.2643 -0.0664 -0.0690
 1429BUT     C1 1429   5.415   0.237   5.214 -0.1294  0.2322  0.0328
 1430BUT     C1 1430   1.953   5.282   2.933 -0.1856  0.1530  0.0286
 1431BUT     C1 1431   1.614   0.504   0.030  0.2048 -0.2379 -0.0110
 1432BUT     C1 1432   6.461   6.430   2.310 -0.0717 -0.0049 -0.1043
 1433BUT     C1 1433   0.003   5.176   6.303  0.0957  0.1448 -0.2451
 1434BUT     C1 1434   0.475   5.192   3.029 -0.3086  0.1288 -0.0790
 1435BUT     C1 1435   6.160   5.549   1.321  0.2098 -0.3652 -0.3675
 1436BUT     C1 1436   4.751   5.341   1.551  0.4484 -0.0132  0.1304
 1437BUT     C1 1437   4.955   2.683   5.101  0.0491  0.0159  0.2231
 1438BUT     C1 1438   2.241   1.099   0.472 -0.2233 -0.1395 -0.0688
 1439BUT     C1 1439   4.383   0.595   0.476  0.2232 -0.0988 -0.0363
 1440BUT     C1 1440   0.415   2.922   4.172 -0.2052 -0.1742 -0.2063
 1441BUT     C1 1441   2.726   3.169   6.031  0.0603 -0.0923 -0.1289
 1442BUT     C1 1442   0.734   1.574   3.839 -0.1541  0.0495 -0.6006
 1443BUT     C1 1443   3.065   6.154   1.437 -0.0732  0.1443  0.3614
 1444BUT     C1 1444   6.141   6.508   6.137 -0.0311 -0.0953 -0.1427
 1445BUT     C1 1445   0.496   1.841   4.310  0.1647 -0.1991  0.0011
 1446BUT     C1 1446   3.043   0.710   0.156 -0.1160  0.0138  0.2765
 1447BUT     C1 1447   3.651   3.966   4.276  0.4426  0.0978 -0.1027
 1448BUT     C1 1448   5.919   5.278   0.704 -0.0547  0.1406  0.1458
 1449BUT     C1 1449   4.157   5.513   4.491  0.1765 -0.0822 -0.0405
 1450BUT     C1 1450   3.260   0.158   4.235  0.0959  0.0334 -0.0950
 1451BUT     C1 1451   6.289   0.405   4.310  0.1793 -0.3089  0.0923
 1452BUT     C1 1452   1.793   0.177   3.287 -0.0413 -0.3549  0.0897
 1453BUT     C1 1453   1.236   1.682   6.130 -0.0800 -0.2208  0.1302
 1454BUT     C1 1454   4.246   4.655   3.564  0.0380 -0.3889  0.2640
 1455BUT     C1 1455   2.301   1.396   4.962 -0.2642 -0.2533 -0.1173
 1456BUT     C1 1456   4.096   2.536   6.155 -0.0187 -0.1687 -0.1284
 1457BUT     C1 1457   1.542   1.278   6.288 -0.0332 -0.2074  0.0108
 1458BUT     C1 1458   4.273   5.416   1.774  0.1506  0.0757 -0.1049
 1459BUT     C1 1459   0.562   6.116   6.535  0.0882 -0.0601  0.3444
 1460BUT     C1 1460   2.438   3.325   6.492  0.0526 -0.1864  0.0770
 1461BUT     C1 1461   3.676   5.927   4.309 -0.2415  0.2233  0.0120
 1462BUT     C1 1462   6.365   4.239   3.639 -0.0074  0.0265  0.2728
 1463BUT     C1 1463   2.447   4.331   1.450 -0.1193  0.0322  0.2778
 1464BUT     C1 1464   4.239   4.143   3.270  0.1201  0.0147 -0.1820
 1465BUT     C1 1465   6.484   1.072   1.497  0.0690 -0.1576  0.0877
 1466BUT     C1 1466   6.377   5.717   0.846  0.2102 -0.0070 -0.3030
 1467BUT     C1 1467   0.576   5.198   1.974  0.4064 -0.1734  0.4845
 1468BUT     C1 1468   2.153   6.028   2.742  0.4329  0.2018 -0.1810
 1469BUT     C1 1469   0.550   4.414   5.694 -0.0798  0.0283 -0.0132
 1470BUT     C1 1470   5.961   0.176   1.009 -0.1290 -0.1323 -0.1191
 1471BUT     C1 1471   4.409   5.369   0.873  0.2471 -0.1371 -0.2000
 1472BUT     C1 1472   6.064   3.551   0.048 -0.2189 -0.1314  0.2354
 1473BUT     C1 1473   2.715   2.391   3.432  0.0407 -0.2250  0.0936
 1474BUT     C1 1474   2.769   1.557   5.263 -0.0492  0.1462  0.3955
 1475BUT     C1 1475   2.914   0.361   1.426 -0.0282 -0.0838 -0.0142
 1476BUT     C1 1476   1.715   2.946   3.803  0.0778  0.1558  0.2027
 1477BUT     C1 1477   1.117   4.369   2.909 -0.0859 -0.1892  0.3435
 1478BUT     C1 1478   6.444   3.332   2.162  0.0067  0.1326 -0.0126
 1479BUT     C1 1479   5.825   0.596   1.368 -0.2639  0.4193  0.0604
 1480BUT     C1 1480   0.466   6.475   1.766  0.0633 -0.1313 -0.1868
 1481BUT     C1 1481   2.065   4.838   4.996  0.2919  0.2351  0.1103
 1482BUT     C1 1482   6.562   0.238   6.101 -0.0547  0.1330  0.0842
 1483BUT     C1 1483   2.398   6.120   0.473  0.0341 -0.1483  0.0519
 1484BUT     C1 1484   6.065   5.846   1.684  0.3253 -0.0839  0.2023
 1485BUT     C1 1485   3.574   0.035   6.551 -0.0889  0.1085 -0.0500
 1486BUT     C1 1486   5.402   3.278   5.706 -0.2612  0.2507  0.0287
 1487BUT     C1 1487   1.486   3.261   4.840  0.0227 -0.2300  0.1415
 1488BUT     C1 1488   1.649   5.393   4.362 -0.0800  0.0160  0.1054
 1489BUT     C1 1489   0.148   4.165   2.468  0.1585 -0.4191  0.4054
 1490BUT     C1 1490   0.205   3.930   4.600 -0.0027 -0.0997  0.2335
 1491BUT     C1 1491   4.623   6.156   4.209  0.1675  0.0341  0.0480
 1492BUT     C1 1492   3.735   6.331   2.523 -0.1794  0.0039 -0.0313
 1493BUT     C1 1493   5.845   0.465   1.887 -0.1325  0.0399 -0.2266
 1494BUT     C1 1494   2.043   5.250   3.856  0.3596 -0.0522 -0.0259
 1495BUT     C1 1495   5.910   6.271   4.311  0.1598  0.3929  0.1813
 1496BUT     C1 1496   1.237   2.873   5.034  0.2650 -0.2259  0.0234
 1497BUT     C1 1497   4.156   3.305   4.295  0.1664  0.0533  0.0736
 1498BUT     C1 1498   3.910   1.160   3.790  0.1556 -0.1309 -0.1851
 1499BUT     C1 1499   0.511   3.995   3.067  0.1545  0.2125 -0.3910
 1500BUT     C1 1500   0.474   2.646   2.799  0.1060 -0.0697  0.2611
 1501BUT     C1 1501   0.735   5.571   4.884 -0.1178  0.0901  0.2575
 1502BUT     C1 1502   1.686   1.754   6.533 -0.2450 -0.6415 -0.0872
 1503BUT     C1 1503   4.404   4.296   0.610  0.2896  0.4218  0.2473
 1504BUT     C1 1504   6.232   2.338   1.972 -0.0544  0.1011 -0.0961
 1505BUT     C1 1505   6.211   3.194   0.482  0.0330 -0.0282  0.1294
 1506BUT     C1 1506   2.215   5.069   6.546  0.2162  0.1765 -0.1530
 1507BUT     C1 1507   3.934   1.662   1.184  0.2546  0.0505 -0.0070
 1508BUT     C1 1508   1.443   6.141   4.846 -0.2142  0.0869  0.0039
 1509BUT     C1 1509   2.237   4.361   4.237  0.2310  0.0099 -0.3067
 1510BUT     C1 1510   3.402   0.052   2.423 -0.2092  0.1107 -0.0569
 1511BUT     C1 1511   5.718   4.293   3.695  0.2031  0.1107  0.0934
 1512BUT     C1 1512   5.709   2.303   5.256  0.2385  0.0103 -0.0212
 1513BUT     C1 1513   4.744   3.405   5.054  0.0093 -0.0365  0.1336
 1514BUT     C1 1514   0.715   2.321   5.375 -0.0250  0.0266 -0.0029
 1515BUT     C1 1515   1.231   2.397   5.585  0.0109  0.2994 -0.1075
 1516BUT     C1 1516   6.516   2.537   1.516  0.0166  0.0949  0.3471
 1517BUT     C1 1517   0.556   3.941   5.654  0.0652 -0.1649 -0.0963
 1518BUT     C1 1518   0.241   0.319   5.555  0.2125  0.1268 -0.0574
 1519BUT     C1 1519   2.669   1.464   1.293 -0.0779  0.1949  0.4206
 1520BUT     C1 1520   1.768   4.922   1.905 -0.0002 -0.2329  0.2114
 1521BUT     C1 1521   0.263   2.341   0.615  0.1723  0.0249  0.0801
 1522BUT     C1 1522   2.210   0.492   2.914 -0.1649 -0.1820 -0.0019
 1523BUT     C1 1523   2.771   0.781   1.819 -0.1263  0.1064  0.0597
 1524BUT     C1 1524   5.442   1.051   1.321  0.0325  0.3705  0.1486
 1525BUT     C1 1525   5.318   1.380   3.651 -0.0711  0.0582  0.0129
 1526BUT     C1 1526   5.284   5.981   3.619  0.0334 -0.0749 -0.0202
 1527BUT     C1 1527   5.820   4.794   2.434 -0.3151 -0.0749 -0.2959
 1528BUT     C1 1528   4.201   2.787   4.234  0.1869  0.3238 -0.3796
 1529BUT     C1 1529   6.491   3.506   4.748  0.0654  0.1762  0.0747
 1530BUT     C1 1530   1.777   5.562   1.682  0.2160 -0.0394 -0.0897
 1531BUT     C1 1531   0.269   1.689   6.237  0.0243  0.3089 -0.2431
 1532BUT     C1 1532   3.716   0.124   4.644 -0.1913 -0.0610 -0.1982
 1533BUT     C1 1533   2.149   3.757   6.515  0.0759  0.2395  0.1153
 1534BUT     C1 1534   1.834   4.225   0.031  0.0099 -0.3013  0.0613
 1535BUT     C1 1535   1.914   3.045   5.192 -0.0404 -0.2431 -0.2127
 1536BUT     C1 1536   2.264   1.301   4.121 -0.0349 -0.2727  0.1759
 1537BUT     C1 1537   3.801   3.771   1.684  0.2164  0.1223  0.2015
 1538BUT     C1 1538   4.101   3.807   4.031 -0.2680 -0.2217 -0.2857
 1539BUT     C1 1539   4.397   5.031   2.695 -0.3041  0.0747 -0.1009
 1540BUT     C1 1540   0.768   6.541   2.866 -0.0232  0.2307 -0.0064
 1541BUT     C1 1541   6.250   5.701   5.692  0.4501 -0.1800  0.0200
 1542BUT     C1 1542   0.098   6.243   5.295  0.0375  0.0998 -0.0272
 1543BUT     C1 1543   3.723   2.771   2.672  0.0380  0.1486 -0.0321
 1544BUT     C1 1544   3.122   6.419   1.923 -0.1588  0.1421  0.0387
 1545BUT     C1 1545   2.453   2.999   3.197  0.0529  0.0096  0.2092
 1546BUT     C1 1546   3.667   2.260   6.209  0.2537  0.0411 -0.0793
 1547BUT     C1 1547   1.369   2.766   6.333  0.1176  0.0884 -0.1134
 1548BUT     C1 1548   3.529   4.841   4.800 -0.3798  0.1228  0.2214
 1549BUT     C1 1549   0.092   2.072   6.502 -0.0205 -0.0878  0.0441
 1550BUT     C1 1550   6.324   6.081   4.101  0.0207 -0.1409 -0.0273
 1551BUT     C1 1551   0.478   0.222   1.284 -0.0006  0.2515  0.1421
 1552BUT     C1 1552   0.496   4.881   1.136  0.0360  0.1119  0.1099
 1553BUT     C1 1553   4.552   1.891   6.135 -0.0663  0.0394 -0.2930
 1554BUT     C1 1554   4.527   2.466   3.949  0.0453 -0.2157  0.1501
 1555BUT     C1 1555   1.094   2.786   0.731  0.0059  0.0942 -0.0405
 1556BUT     C1 1556   5.786   3.504   0.468  0.0230  0.2583 -0.1159
 1557BUT     C1 1557   1.565   1.605   2.499  0.1724 -0.2799 -0.0826
 1558BUT     C1 1558   1.672   3.923   4.987  0.0816 -0.1067 -0.0984
 1559BUT     C1 1559   0.585   1.495   1.764  0.1001 -0.3131 -0.1236
 1560BUT     C1 1560   3.091   2.608   4.439 -0.0218  0.2111  0.1192
 1561BUT     C1 1561   3.901   3.559   0.480 -0.0424 -0.0384 -0.0590
 1562BUT     C1 1562   2.128   0.286   6.078  0.0719  0.2724  0.0232
 1563BUT     C1 1563   5.805   4.718   1.269 -0.3644  0.1938 -0.3631
 1564BUT     C1 1564   6.515   1.526   2.480  0.3076 -0.1182  0.0325
 1565BUT     C1 1565   0.282   2.177   4.636 -0.0346 -0.2070  0.3082
 1566BUT     C1 1566   5.128   2.366   2.043 -0.3645  0.1382  0.0794
 1567BUT     C1 1567   1.803   2.867   1.067  0.1767  0.0909  0.1749
 1568BUT     C1 1568   3.113   4.229   0.584  0.1037  0.0835  0.1611
 1569BUT     C1 1569   5.052   1.988   5.975 -0.1915 -0.1820 -0.0652
 1570BUT     C1 1570   1.039   5.197   4.783  0.0917  0.3819  0.1687
 1571BUT     C1 1571   1.825   6.108   3.949  0.1330  0.2172 -0.0894
 1572BUT     C1 1572   6.001   4.753   6.518 -0.0659 -0.1531  0.0829
 1573BUT     C1 1573   4.832   6.243   3.573 -0.2101 -0.3565  0.2255
 1574BUT     C1 1574   3.024   5.510   6.520  0.1175  0.0653  0.0343
 1575BUT     C1 1575   4.562   4.125   2.901  0.0942 -0.1304  0.2242
 1576BUT     C1 1576   3.464   0.850   4.970 -0.2830  0.2699 -0.0690
 1577BUT     C1 1577   0.842   2.907   2.971 -0.2685 -0.1066  0.1829
 1578BUT     C1 1578   5.120   0.820   2.138  0.1429 -0.0202 -0.0914
 1579BUT     C1 1579   3.749   5.814   5.523  0.0680  0.1042 -0.0494
 1580BUT     C1 1580   1.957   2.906   2.397  0.1238 -0.0510  0.1728
 1581BUT     C1 1581   0.696   3.670   0.106 -0.0837  0.0303 -0.0941
 1582BUT     C1 1582   3.787   2.940   4.009  0.2248 -0.1720  0.2317
 1583BUT     C1 1583   0.659   0.736   2.494  0.2519  0.0594  0.0169
 1584BUT     C1 1584   3.898   2.852   4.635 -0.0495 -0.1560 -0.0243
 1585BUT     C1 1585   4.295   5.792   0.604 -0.3494 -0.1331 -0.0664
 1586BUT     C1 1586   4.329   0.797   6.560  0.1630 -0.2811  0.0198
 1587BUT     C1 1587   2.586   5.664   2.876 -0.1267 -0.0663 -0.0809
 1588BUT     C1 1588   1.830   5.128   2.422 -0.1897  0.1999 -0.0527
 1589BUT     C1 1589   2.756   2.075   3.063  0.3997 -0.0375  0.0259
 1590BUT     C1 1590   5.539   4.721   4.105  0.2439 -0.0346  0.0341
 1591BUT     C1 1591   3.043   4.492   0.149  0.0272 -0.3340  0.2985
 1592BUT     C1 1592   5.126   2.974   0.296  0.0409  0.1298  0.1155
 1593BUT     C1 1593   5.162   1.759   0.770 -0.2588  0.0951  0.2351
 1594BUT     C1 1594   5.515   0.060   0.019 -0.1181 -0.1627 -0.3359
 1595BUT     C1 1595   4.675   4.394   3.371 -0.0921  0.2334 -0.1543
 1596BUT     C1 1596   0.399   5.265   1.444  0.0119  0.2922 -0.3114
 1597BUT     C1 1597   2.811   2.705   5.887  0.1595  0.0208  0.4223
 1598BUT     C1 1598   1.629   1.840   3.533 -0.1491  0.2573 -0.0381
 1599BUT     C1 1599   1.308   2.121   3.120  0.2567 -0.0839 -0.1457
 1600BUT     C1 1600   4.142   6.404   6.245  0.0672  0.3492 -0.2380
 1601BUT     C1 1601   1.777   3.439   2.322 -0.0965 -0.0463 -0.1051
 1602BUT     C1 1602   6.288   5.955   5.158 -0.2940  0.0995  0.1244
 1603BUT     C1 1603   1.841   1.537   3.957 -0.2347 -0.0361 -0.0113
 1604BUT     C1 1604   3.842   0.243   0.681 -0.0150 -0.1438 -0.3487
 1605BUT     C1 1605   0.475   2.602   3.804  0.1618 -0.1620  0.2102
 1606BUT     C1 1606   4.497   1.616   3.193  0.0270 -0.2440  0.1071
 1607BUT     C1 1607   0.185   4.333   3.156 -0.3202  0.4969 -0.1449
 1608BUT     C1 1608   0.966   0.149   1.818  0.3428 -0.1494 -0.3726
 1609BUT     C1 1609   0.726   6.595   5.126 -0.2408  0.1531 -0.0329
 1610BUT     C1 1610   0.205   5.983   1.326 -0.0455 -0.3872  0.1660
 1611BUT     C1 1611   2.493   5.337   1.219  0.1446 -0.2572 -0.0695
 1612BUT     C1 1612   5.278   4.339   5.364 -0.4104  0.0045  0.1627
 1613BUT     C1 1613   6.223   0.935   5.288 -0.0378  0.1309  0.0887
 1614BUT     C1 1614   4.313   4.493   5.146 -0.0123 -0.1316 -0.0717
 1615BUT     C1 1615   5.899   6.571   4.784 -0.1885 -0.0133  0.1422
 1616BUT     C1 1616   2.379   4.958   0.952 -0.0483 -0.0596 -0.0861
 1617BUT     C1 1617   1.167   3.477   0.122 -0.2838 -0.0879  0.2129
 1618BUT     C1 1618   4.978   0.722   0.586  0.0966  0.1577 -0.3215
 1619BUT     C1 1619   6.429   2.822   5.814 -0.0994  0.0520 -0.0574
 1620BUT     C1 1620   1.656   1.179   2.685 -0.1198 -0.0492  0.1201
 1621BUT     C1 1621   2.549   6.052   1.455  0.0130  0.0916 -0.1786
 1622BUT     C1 1622   1.130   4.596   0.063  0.1033  0.2108  0.0952
 1623BUT     C1 1623   5.405   2.151   2.361  0.0709  0.1132 -0.2974
 1624BUT     C1 1624   3.416   3.041   1.883 -0.0611 -0.2411  0.1880
 1625BUT     C1 1625   3.360   1.807   2.320  0.1321  0.2099  0.1092
 1626BUT     C1 1626   2.117   6.116   6.568 -0.0848 -0.1078 -0.1271
 1627BUT     C1 1627   1.361   0.460   0.639  0.2911 -0.0544 -0.1933
 1628BUT     C1 1628   4.356   1.516   5.884 -0.0051  0.0597  0.2377
 1629BUT     C1 1629   2.437   2.245   4.750  0.0848  0.1531  0.1787
 1630BUT     C1 1630   2.661   3.953   4.857  0.4787 -0.0673 -0.1298
 1631BUT     C1 1631   2.073   3.990   3.905 -0.0565 -0.3613 -0.0222
 1632BUT     C1 1632   3.184   4.794   2.612 -0.5011 -0.1651 -0.0021
 1633BUT     C1 1633   5.279   4.060   3.495  0.0924 -0.1123  0.3006
 1634BUT     C1 1634   0.874   2.187   2.909  0.1936 -0.2108  0.3073
 1635BUT     C1 1635   1.372   4.801   5.312 -0.0024  0.0729  0.5088
 1636BUT     C1 1636   1.695   0.698   2.597  0.0921 -0.1005  0.4480
 1637BUT     C1 1637   4.344   5.735   5.881 -0.3388  0.1421 -0.0754
 1638BUT     C1 1638   2.414   0.400   1.475  0.2460 -0.0608  0.1125
 1639BUT     C1 1639   0.248   1.346   3.390 -0.1436 -0.1261  0.1933
 1640BUT     C1 1640   3.295   3.954   5.750 -0.4378 -0.1839  0.2783
 1641BUT     C1 1641   5.211   0.230   4.292  0.1968  0.0613 -0.1190
 1642BUT     C1 1642   5.464   0.896   0.520 -0.1836 -0.0459 -0.0233
 1643BUT     C1 1643   0.248   4.415   3.642 -0.0646  0.1342  0.0162
 1644BUT     C1 1644   1.247   4.282   5.274 -0.1027 -0.0908 -0.1177
 1645BUT     C1 1645   5.157   2.365   1.377  0.0383  0.0592  0.1520
 1646BUT     C1 1646   1.752   0.377   5.793  0.1021  0.3774  0.2686
 1647BUT     C1 1647   1.856   2.379   2.586 -0.2083 -0.4229  0.0129
 1648BUT     C1 1648   1.872   4.253   6.091 -0.3590  0.1990  0.2136
 1649BUT     C1 1649   0.418   6.204   4.870 -0.0624 -0.0242 -0.1105
 1650BUT     C1 1650   4.289   3.003   6.072  0.0400  0.0963  0.2374
 1651BUT     C1 1651   6.385   4.160   4.266 -0.2813  0.1563  0.0418
 1652BUT     C1 1652   6.308   3.708   0.624 -0.0471 -0.2283  0.2704
 1653BUT     C1 1653   2.882   6.121   0.868 -0.1332  0.1525  0.1150
 1654BUT     C1 1654   3.981   2.216   4.867 -0.0650  0.0819  0.1369
 1655BUT     C1 1655   4.851   5.623   4.906  0.1415 -0.4367 -0.0046
 1656BUT     C1 1656   0.799   2.316   3.516  0.0792  0.1522 -0.0214
 1657BUT     C1 1657   5.918   4.000   0.268  0.3997  0.2345 -0.4338
 1658BUT     C1 1658   3.329   0.654   1.246  0.2570 -0.0366  0.2593
 1659BUT     C1 1659   5.637   1.320   3.222 -0.0356 -0.1152  0.0378
 1660BUT     C1 1660   5.891   5.943   0.311  0.0467  0.3789  0.2073
 1661BUT     C1 1661   5.133   4.239   1.876  0.0423  0.2265  0.4239
 1662BUT     C1 1662   5.679   5.407   3.400  0.0229 -0.2701  0.0197
 1663BUT     C1 1663   1.258   1.350   5.645  0.4832  0.1635 -0.0138
 1664BUT     C1 1664   1.729   3.694   4.140 -0.0410 -0.0516  0.1867
 1665BUT     C1 1665   2.973   4.833   5.347 -0.1229  0.1893 -0.2924
 1666BUT     C1 1666   4.050   2.355   2.797 -0.0134 -0.0528  0.2779
 1667BUT     C1 1667   0.922   4.346   3.757 -0.0256  0.3370  0.1597
 1668BUT     C1 1668   6.266   3.602   5.885 -0.1335  0.1768  0.3838
 1669BUT     C1 1669   5.929   4.804   5.403  0.0063  0.0828 -0.3501
 1670BUT     C1 1670   0.003   1.318   1.856  0.0330 -0.1044 -0.3565
 1671BUT     C1 1671   2.344   1.750   4.590  0.1378 -0.0004  0.2002
 1672BUT     C1 1672   1.673   3.860   1.388  0.0275 -0.1564 -0.0710
 1673BUT     C1 1673   5.614   0.104   2.123 -0.1258  0.1725  0.3335
 1674BUT     C1 1674   4.839   1.438   3.557 -0.0565 -0.2289  0.0418
 1675BUT     C1 1675   1.675   4.394   3.153 -0.0504 -0.1115 -0.2196
 1676BUT     C1 1676   1.259   1.866   5.627  0.1165 -0.2391  0.3558
 1677BUT     C1 1677   0.488   3.846   1.668 -0.1415  0.1217 -0.0529
 1678BUT     C1 1678   0.197   1.560   5.786  0.0433 -0.2380 -0.0077
 1679BUT     C1 1679   3.381   3.486   4.592  0.2572 -0.3174 -0.0165
 1680BUT     C1 1680   4.076   4.696   1.645 -0.2246 -0.1558  0.0187
 1681BUT     C1 1681   0.863   0.516   6.260  0.0455  0.0618  0.0085
 1682BUT     C1 1682   0.949   4.982   5.807  0.2028 -0.1148  0.3800
 1683BUT     C1 1683   3.153   6.239   2.621  0.1316 -0.0690 -0.0011
 1684BUT     C1 1684   4.280   5.011   4.387 -0.0653  0.0982 -0.2795
 1685BUT     C1 1685   2.548   3.468   4.938 -0.2136 -0.1958 -0.3143
 1686BUT     C1 1686   2.921   5.015   3.994  0.3486  0.2629  0.1428
 1687BUT     C1 1687   1.619   3.910   2.083  0.3391 -0.0208 -0.1015
 1688BUT     C1 1688   1.979   1.072   5.119  0.1585  0.3117 -0.1401
 1689BUT     C1 1689   0.498   1.196   2.631 -0.0206 -0.3348 -0.2143
 1690BUT     C1 1690   1.059   4.500   5.675 -0.1398 -0.1189 -0.1436
 1691BUT     C1 1691   5.366   3.276   0.746 -0.0943 -0.1068 -0.1382
 1692BUT     C1 1692   4.125   5.517   3.069  0.1136  0.1901 -0.2282
 1693BUT     C1 1693   1.334   5.733   6.350  0.2163  0.2452  0.0134
 1694BUT     C1 1694   1.876   1.868   4.360 -0.1425  0.1071 -0.2670
 1695BUT     C1 1695   3.811   3.512   5.333 -0.2597 -0.1160  0.0250
 1696BUT     C1 1696   0.010   0.910   0.262  0.3976  0.0441 -0.0512
 1697BUT     C1 1697   4.020   6.537   1.183 -0.0777 -0.0709  0.0240
 1698BUT     C1 1698   1.310   6.226   6.139 -0.2283 -0.3741  0.2793
 1699BUT     C1 1699   3.880   6.291   3.757 -0.1681 -0.1440  0.2640
 1700BUT     C1 1700   6.106   2.761   1.356  0.3946  0.0786 -0.0434
 1701BUT     C1 1701   4.331   2.543   1.842  0.0448 -0.2499 -0.0815
 1702BUT     C1 1702   0.015   1.097   0.735  0.0075 -0.0972 -0.2961
 1703BUT     C1 1703   4.836   3.188   2.512 -0.0209  0.0398 -0.0254
 1704BUT     C1 1704   3.927   5.179   3.536 -0.1630 -0.0248 -0.1906
 1705BUT     C1 1705   0.302   5.535   3.559  0.0249 -0.0209 -0.0027
 1706BUT     C1 1706   2.493   5.192   3.035  0.2620 -0.3765 -0.1634
 1707BUT     C1 1707   1.296   2.599   4.602  0.2318 -0.0761  0.1571
 1708BUT     C1 1708   5.481   0.087   1.093  0.3419 -0.2008 -0.1448
 1709BUT     C1 1709   5.112   2.309   2.983  0.1164  0.1170 -0.1215
 1710BUT     C1 1710   5.650   2.628   1.112  0.0580 -0.0556 -0.1327
 1711BUT     C1 1711   1.450   2.425   3.606  0.0014  0.0513 -0.2847
 1712BUT     C1 1712   0.519   1.179   0.553  0.0872  0.2241 -0.5003
 1713BUT     C1 1713   6.167   2.394   3.324  0.1810  0.2298 -0.1781
 1714BUT     C1 1714   3.105   0.919   3.668 -0.0597  0.1462 -0.0448
 1715BUT     C1 1715   2.904   1.023   1.213 -0.4446  0.2174 -0.1905
 1716BUT     C1 1716   0.065   5.105   2.338 -0.0353 -0.3328 -0.1126
 1717BUT     C1 1717   4.686   3.884   0.521 -0.3924  0.1837  0.0486
 1718BUT     C1 1718   1.983   6.242   4.771 -0.1361  0.0842 -0.0990
 1719BUT     C1 1719   1.228   1.503   6.593  0.1135  0.1072  0.0624
 1720BUT     C1 1720   6.379   3.009   1.675 -0.0729 -0.1458  0.0111
 1721BUT     C1 1721   2.015   0.843   2.142 -0.2035  0.0889 -0.1930
 1722BUT     C1 1722   6.214   4.402   0.166  0.0340  0.1908 -0.1586
 1723BUT     C1 1723   1.184   5.726   4.371  0.3372 -0.0789  0.0202
 1724BUT     C1 1724   6.453   5.165   1.687  0.1190 -0.0292  0.2214
 1725BUT     C1 1725   3.918   5.706   0.017  0.0361 -0.1461  0.0925
 1726BUT     C1 1726   4.559   1.148   6.326 -0.1412  0.1602  0.1423
 1727BUT     C1 1727   5.716   1.013   3.532 -0.0226 -0.2358 -0.0741
 1728BUT     C1 1728   5.546   2.585   0.537 -0.3888 -0.0867 -0.3566
 1729BUT     C1 1729   6.117   4.761   1.681 -0.3131 -0.0168 -0.0473
 1730BUT     C1 1730   3.966   4.750   2.560 -0.3543  0.0279 -0.1089
 1731BUT     C1 1731   1.921   1.184   0.799 -0.0789  0.3424  0.0729
 1732BUT     C1 1732   6.344   5.431   0.412 -0.1254  0.0178 -0.3556
 1733BUT     C1 1733   1.018   1.263   1.943  0.0432  0.1016 -0.3497
 1734BUT     C1 1734   3.265   5.244   5.557  0.0113  0.2060 -0.1974
 1735BUT     C1 1735   3.393   5.000   3.861  0.1650  0.1767 -0.2311
 1736BUT     C1 1736   3.194   0.832   2.799 -0.1761  0.0534  0.1661
 1737BUT     C1 1737   0.056   4.410   0.432  0.2806  0.3636  0.0822
 1738BUT     C1 1738   6.066   2.631   5.538 -0.1776  0.2054 -0.0179
 1739BUT     C1 1739   4.446   5.720   0.104 -0.1139  0.0108 -0.0095
 1740BUT     C1 1740   2.901   1.250   0.105  0.1255  0.0257 -0.0652
 1741BUT     C1 1741   1.013   3.659   3.317  0.0753  0.0175  0.2905
 1742BUT     C1 1742   0.413   5.722   6.201  0.2321 -0.1126  0.1604
 1743BUT     C1 1743   2.306   2.812   0.143 -0.0983  0.1304 -0.1049
 1744BUT     C1 1744   0.379   2.728   5.767  0.0171 -0.0084  0.2004
 1745BUT     C1 1745   2.171   5.826   5.770 -0.0689  0.1017 -0.0857
 1746BUT     C1 1746   6.345   0.021   5.610  0.0840 -0.1610 -0.2679
 1747BUT     C1 1747   6.087   5.134   3.143  0.2099  0.0793  0.0461
 1748BUT     C1 1748   0.530   4.274   0.736  0.2973 -0.2530  0.0644
 1749BUT     C1 1749   2.936   6.268   4.322  0.1439 -0.2440 -0.2598
 1750BUT     C1 1750   4.447   4.428   4.612  0.0092  0.0471 -0.1408
 1751BUT     C1 1751   2.131   5.603   6.555  0.3699  0.3228 -0.0135
 1752BUT     C1 1752   0.447   0.883   3.047  0.2605 -0.3401 -0.1901
 1753BUT     C1 1753   6.159   0.839   3.510  0.0456  0.2192 -0.0790
 1754BUT     C1 1754   2.155   4.742   3.868 -0.1457 -0.1548  0.2134
 1755BUT     C1 1755   2.215   2.242   4.254 -0.0445 -0.0220 -0.1373
 1756BUT     C1 1756   5.524   1.775   5.753  0.3751 -0.2098 -0.2383
 1757BUT     C1 1757   5.727   3.044   0.350  0.3703  0.1477  0.1125
 1758BUT     C1 1758   5.283   4.808   5.115 -0.0805 -0.2133  0.0486
 1759BUT     C1 1759   4.205   2.506   0.905 -0.0538 -0.0582 -0.2764
 1760BUT     C1 1760   4.018   4.736   4.688  0.1869  0.0543  0.1533
 1761BUT     C1 1761   0.980   3.088   0.315  0.0047  0.0532  0.1597
 1762BUT     C1 1762   3.349   4.622   3.301 -0.0660  0.1659 -0.0701
 1763BUT     C1 1763   0.162   1.964   1.151  0.2364  0.1243  0.0437
 1764BUT     C1 1764   3.537   5.812   2.558  0.3515 -0.1501  0.0900
 1765BUT     C1 1765   1.500   6.397   4.390 -0.0198  0.2700  0.1380
 1766BUT     C1 1766   0.335   4.847   3.305  0.2808  0.2928 -0.0041
 1767BUT     C1 1767   5.842   0.684   5.395  0.0496  0.0392 -0.0110
 1768BUT     C1 1768   6.294   4.158   3.008  0.2185 -0.0217  0.0220
 1769BUT     C1 1769   3.552   6.193   2.099 -0.2534  0.1052 -0.2525
 1770BUT     C1 1770   3.764   2.989   5.241  0.3480  0.3067  0.1388
 1771BUT     C1 1771   3.793   5.845   3.394 -0.2327  0.3363  0.0922
 1772BUT     C1 1772   3.418   0.648   5.837 -0.0962  0.1532 -0.0253
 1773BUT     C1 1773   0.464   1.314   4.487  0.0075 -0.2563 -0.1419
 1774BUT     C1 1774   0.250   3.865   6.415 -0.2162 -0.0240  0.0365
 1775BUT     C1 1775   6.266   3.299   6.270  0.0239  0.4018 -0.1985
 1776BUT     C1 1776   6.031   0.241   6.431 -0.2609 -0.3729  0.0831
 1777BUT     C1 1777   2.884   3.087   4.735  0.2513  0.0490  0.0721
 1778BUT     C1 1778   5.305   6.423   3.410  0.1997  0.2180 -0.3553
 1779BUT     C1 1779   1.320   1.041   4.117 -0.3206  0.1541 -0.3111
 1780BUT     C1 1780   2.055   6.458   2.854  0.1139  0.0173  0.5986
 1781BUT     C1 1781   5.362   6.320   2.358 -0.0816  0.3538  0.0266
 1782BUT     C1 1782   3.259   2.813   6.339 -0.1240 -0.3200 -0.0111
 1783BUT     C1 1783   4.377   4.332   1.325 -0.2628 -0.0440  0.0795
 1784BUT     C1 1784   5.016   4.996   5.467 -0.0142  0.1138  0.2915
 1785BUT     C1 1785   5.618   6.295   5.456 -0.1828 -0.0464  0.0588
 1786BUT     C1 1786   2.083   2.572   5.865 -0.4694  0.0165 -0.2454
 1787BUT     C1 1787   2.380   6.278   1.897 -0.0102  0.0523 -0.0597
 1788BUT     C1 1788   3.634   5.882   5.057 -0.1081  0.1599 -0.1502
 1789BUT     C1 1789   4.542   0.180   2.607 -0.3051 -0.1021 -0.1375
 1790BUT     C1 1790   1.356   0.103   6.492  0.0751 -0.1098 -0.0423
 1791BUT     C1 1791   1.392   4.371   4.549  0.0061 -0.0525 -0.0359
 1792BUT     C1 1792   2.292   3.012   5.523 -0.1802  0.1113 -0.0694
 1793BUT     C1 1793   6.078   1.209   4.823  0.0282 -0.1504 -0.2483
 1794BUT     C1 1794   0.877   3.642   4.583  0.3416 -0.1943 -0.4208
 1795BUT     C1 1795   4.578   5.661   4.274  0.0016  0.1014  0.1158
 1796BUT     C1 1796   4.304   4.282   6.237 -0.1670 -0.2996  0.3654
 1797BUT     C1 1797   4.631   1.893   0.304  0.0915 -0.2163 -0.2412
 1798BUT     C1 1798   4.424   4.501   2.599 -0.1601  0.2183  0.0018
 1799BUT     C1 1799   4.526   3.139   1.651  0.1059 -0.1624  0.1021
 1800BUT     C1 1800   0.477   2.710   2.190  0.0937  0.1261 -0.0873
 1801BUT     C1 1801   2.941   2.273   5.280  0.4535  0.3889 -0.1317
 1802BUT     C1 1802   6.319   1.940   0.929 -0.0518 -0.1458 -0.1465
 1803BUT     C1 1803   4.879   4.457   1.463  0.1267  0.2424  0.0111
 1804BUT     C1 1804   6.134   3.861   4.545  0.2728 -0.1791 -0.1379
 1805BUT     C1 1805   6.199   3.114   4.922  0.1342  0.0617  0.1863
 1806BUT     C1 1806   5.979   6.556   3.732  0.0475  0.0861 -0.1123
 1807BUT     C1 1807   1.365   5.486   2.313 -0.2384 -0.2063 -0.0740
 1808BUT     C1 1808   2.320   3.642   6.020 -0.1957 -0.3672 -0.0739
 1809BUT     C1 1809   5.402   1.939   1.298  0.1104  0.1473 -0.0103
 1810BUT     C1 1810   1.739   2.155   4.799  0.0232 -0.2086  0.2866
 1811BUT     C1 1811   0.162   2.991   2.417  0.2941  0.2782 -0.0395
 1812BUT     C1 1812   1.881   5.713   4.925 -0.1159  0.1433  0.1066
 1813BUT     C1 1813   2.807   1.329   5.696  0.0805  0.0162 -0.2698
 1814BUT     C1 1814   0.806   1.484   5.062  0.1909  0.0040  0.2834
 1815BUT     C1 1815   3.647   2.429   4.393  0.0212  0.1511  0.0597
 1816BUT     C1 1816   5.493   2.104   4.436 -0.0027 -0.1537  0.1219
 1817BUT     C1 1817   2.654   5.637   2.076 -0.3944 -0.2554 -0.0933
 1818BUT     C1 1818   6.410   3.844   6.350 -0.2315  0.2457  0.0343
 1819BUT     C1 1819   3.110   4.116   1.071 -0.0170  0.2661  0.1729
 1820BUT     C1 1820   5.826   5.639   4.917  0.1090 -0.0844  0.0676
 1821BUT     C1 1821   0.498   3.735   2.289  0.1883  0.0289 -0.0347
 1822BUT     C1 1822   3.485   0.640   6.460  0.2823  0.1500  0.1038
 1823BUT     C1 1823   4.832   5.860   1.451 -0.0735  0.1279  0.1990
 1824BUT     C1 1824   0.931   2.333   6.397 -0.4063  0.0543 -0.3589
 1825BUT     C1 1825   2.424   1.858   4.093 -0.1993 -0.1264  0.2113
 1826BUT     C1 1826   6.202   2.671   4.293  0.2680 -0.0155  0.0918
 1827BUT     C1 1827   0.938   3.662   2.422  0.3144 -0.1551  0.0641
 1828BUT     C1 1828   4.561   6.482   6.014 -0.0221  0.0425  0.2421
 1829BUT     C1 1829   3.482   1.288   5.238 -0.3216 -0.1313 -0.3204
 1830BUT     C1 1830   3.857   4.494   5.886 -0.0836  0.0233  0.0400
 1831BUT     C1 1831   5.463   4.025   6.369  0.3251  0.2519  0.0428
 1832BUT     C1 1832   5.867   5.365   3.884 -0.1141  0.1412 -0.0936
 1833BUT     C1 1833   1.489   4.437   0.816 -0.0117 -0.2693 -0.1923
 1834BUT     C1 1834   2.269   1.460   0.073  0.0914  0.0991  0.0039
 1835BUT     C1 1835   2.437   0.619   2.423 -0.1443 -0.0691 -0.0913
 1836BUT     C1 1836   6.543   1.062   2.236 -0.0137  0.0175 -0.1112
 1837BUT     C1 1837   0.547   2.655   4.636 -0.2009 -0.1054 -0.1134
 1838BUT     C1 1838   2.097   1.978   1.678  0.1128  0.1879  0.0267
 1839BUT     C1 1839   2.208   0.769   0.888 -0.1048  0.0371  0.4070
 1840BUT     C1 1840   3.097   3.153   1.180 -0.1456  0.1956  0.1357
 1841BUT     C1 1841   5.934   1.417   3.779 -0.3323 -0.3933  0.1392
 1842BUT     C1 1842   0.917   4.191   3.286  0.0698 -0.1988 -0.2950
 1843BUT     C1 1843   4.922   1.885   1.210  0.1350  0.0097  0.1829
 1844BUT     C1 1844   1.175   5.789   0.325 -0.1477 -0.1902 -0.2136
 1845BUT     C1 1845   1.079   0.791   2.116  0.0276  0.0823  0.1015
 1846BUT     C1 1846   2.596   4.455   3.249  0.2313 -0.2851  0.0263
 1847BUT     C1 1847   1.224   1.180   2.431  0.0990 -0.0187 -0.1378
 1848BUT     C1 1848   0.953   6.318   4.318 -0.2707 -0.2651  0.0292
 1849BUT     C1 1849   4.069   6.104   0.301  0.3129  0.0178  0.1383
 1850BUT     C1 1850   5.564   6.566   6.148 -0.3414  0.0993  0.1156
 1851BUT     C1 1851   6.403   1.523   5.459  0.1522 -0.1101 -0.1443
 1852BUT     C1 1852   1.568   4.280   2.683 -0.3585 -0.2249  0.1843
 1853BUT     C1 1853   2.052   1.321   2.341 -0.0344  0.2042  0.1225
 1854BUT     C1 1854   0.422   4.358   1.367 -0.1646 -0.0234  0.2203
 1855BUT     C1 1855   4.929   3.807   2.078 -0.0910  0.1021 -0.2787
 1856BUT     C1 1856   2.792   1.744   4.757  0.1761  0.2406 -0.0742
 1857BUT     C1 1857   4.566   1.139   0.747  0.1950  0.0988  0.0901
 1858BUT     C1 1858   6.457   2.054   5.578 -0.0158 -0.1643  0.0685
 1859BUT     C1 1859   3.039   4.542   3.863  0.4393  0.0409  0.0012
 1860BUT     C1 1860   2.305   1.613   2.009 -0.2032 -0.1637 -0.0733
 1861BUT     C1 1861   1.107   3.906   3.757 -0.1142 -0.0595 -0.2550
 1862BUT     C1 1862   3.376   5.318   1.580  0.2954  0.1189  0.0196
 1863BUT     C1 1863   0.791   4.514   1.893 -0.2148  0.1068 -0.0360
 1864BUT     C1 1864   6.122   5.970   6.100 -0.3048 -0.2145  0.1332
 1865BUT     C1 1865   0.261   3.411   5.060 -0.2555 -0.0509 -0.3358
 1866BUT     C1 1866   1.728   6.473   2.417 -0.2549  0.1444  0.0866
 1867BUT     C1 1867   5.686   3.219   5.228 -0.3940 -0.2138  0.2550
 1868BUT     C1 1868   0.017   3.124   4.472 -0.1357 -0.0524 -0.0916
 1869BUT     C1 1869   1.917   0.982   5.732 -0.0922 -0.0528  0.2185
 1870BUT     C1 1870   5.132   0.293   2.354 -0.3313  0.0131 -0.3217
 1871BUT     C1 1871   5.069   5.607   4.327 -0.0802 -0.2809 -0.1606
 1872BUT     C1 1872   1.680   2.399   3.070  0.1399 -0.0086 -0.2469
 1873BUT     C1 1873   5.468   5.114   3.726 -0.1073  0.1093  0.0705
 1874BUT     C1 1874   6.337   3.993   4.969 -0.0761  0.0304  0.0686
 1875BUT     C1 1875   2.437   2.722   6.275 -0.1654  0.1060  0.3001
 1876BUT     C1 1876   3.589   0.161   1.999 -0.3416 -0.0036 -0.0909
 1877BUT     C1 1877   3.183   5.789   5.976  0.1908  0.1358  0.2732
 1878BUT     C1 1878   3.764   4.981   4.326 -0.2806  0.0962 -0.1086
 1879BUT     C1 1879   4.863   3.155   1.212 -0.1072 -0.0881  0.0794
 1880BUT     C1 1880   3.103   5.525   0.494  0.0036 -0.1664  0.2426
 1881BUT     C1 1881   2.319   0.185   2.555  0.1227 -0.0800 -0.2534
 1882BUT     C1 1882   4.167   1.060   5.705  0.1042 -0.0337 -0.0464
 1883BUT     C1 1883   6.068   5.239   4.494 -0.1614 -0.1728 -0.1516
 1884BUT     C1 1884   1.401   4.107   5.812 -0.1099 -0.1518 -0.0088
 1885BUT     C1 1885   5.289   0.395   6.215 -0.0202 -0.2850  0.0174
 1886BUT     C1 1886   2.847   1.952   4.312  0.0285 -0.0273 -0.0003
 1887BUT     C1 1887   4.377   0.222   0.847 -0.1250  0.3097  0.2249
 1888BUT     C1 1888   1.491   3.271   6.427  0.1531  0.0076 -0.0181
 1889BUT     C1 1889   0.826   1.856   4.653  0.1226 -0.0654  0.0166
 1890BUT     C1 1890   2.037   6.468   0.714  0.0096 -0.3320 -0.0284
 1891BUT     C1 1891   4.347   2.112   1.406 -0.2350  0.2739 -0.1416
 1892BUT     C1 1892   4.171   1.547   3.636  0.1384  0.0123  0.3793
 1893BUT     C1 1893   5.656   4.275   3.140  0.1520  0.0387  0.0930
 1894BUT     C1 1894   3.647   5.202   5.264 -0.2111 -0.1906 -0.3857
 1895BUT     C1 1895   0.832   1.439   1.335  0.1351 -0.0673  0.3310
 1896BUT     C1 1896   3.413   1.267   3.920  0.0848  0.1910  0.2127
 1897BUT     C1 1897   2.467   2.252   5.970 -0.0474  0.0823  0.2444
 1898BUT     C1 1898   1.634   6.188   6.517 -0.0238 -0.3343  0.1918
 1899BUT     C1 1899   3.765   1.587   0.166  0.1231 -0.1319 -0.1187
 1900BUT     C1 1900   5.488   4.317   4.476 -0.2864 -0.2758 -0.1811
 1901BUT     C1 1901   3.094   5.437   2.074  0.3664 -0.0816 -0.2218
 1902BUT     C1 1902   5.402   1.905   1.836 -0.3402 -0.1651  0.1561
 1903BUT     C1 1903   3.865   5.831   1.906 -0.2023  0.1839  0.0117
 1904BUT     C1 1904   4.946   2.205   2.526 -0.2270  0.0109 -0.1382
 1905BUT     C1 1905   4.477   0.317   6.596 -0.0158  0.1639 -0.1855
 1906BUT     C1 1906   4.335   4.623   5.718  0.0968  0.1783  0.4687
 1907BUT     C1 1907   4.042   0.057   0.124  0.3078  0.0499 -0.2767
 1908BUT     C1 1908   5.117   0.496   5.672  0.0949 -0.0364  0.0891
 1909BUT     C1 1909   3.556   4.481   2.875 -0.2250 -0.1290  0.1621
 1910BUT     C1 1910   0.010   2.513   4.042 -0.0665 -0.1583 -0.3266
 1911BUT     C1 1911   3.368   1.937   5.960  0.0094  0.0060 -0.2905
 1912BUT     C1 1912   0.204   3.281   6.329 -0.0443  0.0997  0.0458
 1913BUT     C1 1913   2.335   6.502   6.361 -0.0878  0.0674  0.0866
 1914BUT     C1 1914   3.246   5.698   3.380 -0.2016 -0.1495 -0.1947
 1915BUT     C1 1915   6.010   6.037   3.400 -0.0408 -0.0921 -0.0460
 1916BUT     C1 1916   5.044   2.916   6.198 -0.2010 -0.1657  0.0785
 1917BUT     C1 1917   6.161   3.962   1.173 -0.0983 -0.0866  0.1582
 1918BUT     C1 1918   2.712   2.867   3.773  0.0565 -0.0274  0.0628
 1919BUT     C1 1919   1.321   1.331   1.147 -0.1525  0.0453  0.2260
 1920BUT     C1 1920   5.449   1.286   6.187  0.0191  0.2080  0.0188
 1921BUT     C1 1921   4.321   0.224   1.866 -0.0205  0.0744 -0.0717
 1922BUT     C1 1922   6.056   4.262   2.465 -0.2021 -0.0933 -0.2044
 1923BUT     C1 1923   1.920   2.804   2.939 -0.0315  0.1123  0.4280
 1924BUT     C1 1924   2.853   4.901   2.991 -0.0402 -0.2539  0.0314
 1925BUT     C1 1925   2.747   5.465   3.340  0.0517  0.1687  0.1449
 1926BUT     C1 1926   2.004   1.310   3.119 -0.1581 -0.0321  0.0121
 1927BUT     C1 1927   1.338   5.661   4.867  0.1510 -0.0912  0.1485
 1928BUT     C1 1928   4.782   2.115   1.664  0.3068 -0.1825  0.2463
 1929BUT     C1 1929   5.952   1.882   4.340  0.2106  0.0998  0.0511
 1930BUT     C1 1930   3.066   2.773   5.012  0.0036  0.0026 -0.3208
 1931BUT     C1 1931   0.163   5.363   5.888 -0.2918 -0.0223  0.1309
 1932BUT     C1 1932   3.186   1.789   0.465  0.0407  0.1247  0.2358
 1933BUT     C1 1933   2.201   6.363   2.345 -0.2037  0.0241  0.1901
 1934BUT     C1 1934   4.789   1.213   2.216  0.1008  0.0536  0.1884
 1935BUT     C1 1935   1.180   0.552   5.862 -0.0469  0.1151 -0.0829
 1936BUT     C1 1936   6.170   2.337   5.959 -0.1620 -0.1047 -0.3613
 1937BUT     C1 1937   3.410   3.200   2.532  0.0787  0.0754 -0.3563
 1938BUT     C1 1938   3.349   1.089   1.628 -0.0120 -0.0536  0.1380
 1939BUT     C1 1939   2.264   3.239   1.441  0.0877 -0.0887  0.2527
 1940BUT     C1 1940   6.110   1.845   2.448 -0.0881 -0.0354 -0.4508
 1941BUT     C1 1941   1.144   1.007   3.656  0.1726 -0.2926  0.0857
 1942BUT     C1 1942   5.834   5.484   2.683 -0.0318  0.0491  0.2640
 1943BUT     C1 1943   1.625   0.898   1.056 -0.1617  0.0221 -0.2369
 1944BUT     C1 1944   2.605   0.209   2.953 -0.2646  0.0694 -0.0700
 1945BUT     C1 1945   5.858   3.877   6.065 -0.0523 -0.0294  0.0269
 1946BUT     C1 1946   2.746   2.380   4.200 -0.0385 -0.2302  0.0002
 1947BUT     C1 1947   0.965   2.819   5.445 -0.2064 -0.2279  0.0873
 1948BUT     C1 1948   4.573   6.323   5.495  0.3102  0.0458 -0.1290
 1949BUT     C1 1949   2.598   1.627   2.541  0.0850  0.2257 -0.0525
 1950BUT     C1 1950   3.144   0.277   5.170  0.1533  0.1749  0.1477
 1951BUT     C1 1951   3.987   1.908   6.082 -0.1778  0.2302  0.2807
 1952BUT     C1 1952   4.470   4.478   1.843  0.1202  0.0515  0.1276
 1953BUT     C1 1953   0.286   3.992   0.360  0.1975 -0.2704 -0.0712
 1954BUT     C1 1954   0.698   0.278   2.256  0.0174  0.4026 -0.2667
 1955BUT     C1 1955   1.595   6.385   3.079 -0.3063  0.0685  0.1157
 1956BUT     C1 1956   5.758   0.506   0.743 -0.2957 -0.0707 -0.1379
 1957BUT     C1 1957   4.555   0.706   1.053  0.0098  0.0426  0.1021
 1958BUT     C1 1958   4.026   4.307   0.945 -0.0305 -0.3687 -0.2031
 1959BUT     C1 1959   1.706   2.756   4.922 -0.0068  0.0082  0.0011
 1960BUT     C1 1960   0.132   0.883   5.584 -0.1049 -0.2010  0.0828
 1961BUT     C1 1961   4.897   4.176   3.849 -0.0266 -0.2121  0.2555
 1962BUT     C1 1962   1.172   1.524   3.336 -0.2611 -0.1261 -0.2195
 1963BUT     C1 1963   0.604   5.618   2.421  0.1233 -0.2453 -0.1433
 1964BUT     C1 1964   0.110   5.331   4.928  0.0622 -0.1904  0.4173
 1965BUT     C1 1965   5.490   5.176   0.444 -0.1229 -0.0660 -0.0404
 1966BUT     C1 1966   4.250   0.571   2.733 -0.0363  0.0609  0.2080
 1967BUT     C1 1967   6.396   3.513   5.258 -0.0987  0.0582  0.0281
 1968BUT     C1 1968   6.303   5.551   6.204 -0.2049 -0.1874  0.3580
 1969BUT     C1 1969   2.739   4.562   2.312 -0.2429 -0.2025  0.0257
 1970BUT     C1 1970   1.578   0.619   2.022  0.0378 -0.0774 -0.2437
 1971BUT     C1 1971   0.241   4.384   6.081 -0.2001  0.0310  0.2036
 1972BUT     C1 1972   0.147   0.053   3.640 -0.0724 -0.0468 -0.0182
 1973BUT     C1 1973   2.625   4.109   4.400  0.1958  0.0106 -0.0134
 1974BUT     C1 1974   2.717   1.033   2.500  0.0665 -0.3552 -0.1860
 1975BUT     C1 1975   3.604   4.451   4.499  0.4773 -0.1653 -0.1444
 1976BUT     C1 1976   0.758   1.231   3.453  0.0244 -0.4231  0.1860
 1977BUT     C1 1977   3.234   2.212   4.150  0.3691  0.3699 -0.0226
 1978BUT     C1 1978   4.008   4.281   2.817  0.1933 -0.1291 -0.1784
 1979BUT     C1 1979   3.762   3.923   5.574  0.2831 -0.1722  0.0200
 1980BUT     C1 1980   4.269   2.753   1.334 -0.0597  0.0385 -0.0496
 1981BUT     C1 1981   5.999   3.698   3.001  0.1147 -0.2637  0.1649
 1982BUT     C1 1982   2.481   4.971   3.571 -0.1335  0.1124  0.1460
 1983BUT     C1 1983   3.910   3.180   5.772  0.0258  0.0024 -0.0938
 1984BUT     C1 1984   1.038   2.736   3.598 -0.2833  0.0414  0.1609
 1985BUT     C1 1985   0.108   4.342   6.526 -0.0435  0.0052 -0.0420
 1986BUT     C1 1986   4.168   6.212   5.243  0.0441  0.0388 -0.0320
 1987BUT     C1 1987   4.468   1.997   3.665  0.0738 -0.0584  0.1122
 1988BUT     C1 1988   5.137   1.771   0.285 -0.1375  0.1476  0.0487
 1989BUT     C1 1989   1.305   1.978   4.637 -0.0899 -0.2564 -0.2925
 1990BUT     C1 1990   2.969   1.568   6.247 -0.0877 -0.3128  0.1533
 1991BUT     C1 1991   5.524   1.603   4.106  0.0404 -0.0592 -0.1223
 1992BUT     C1 1992   5.674   1.453   4.680  0.3320  0.0860 -0.0142
 1993BUT     C1 1993   3.908   0.396   6.387  0.2313  0.1836 -0.0980
 1994BUT     C1 1994   0.661   2.377   1.681 -0.3347 -0.0044  0.2571
 1995BUT     C1 1995   0.549   0.559   5.226  0.1475 -0.1887 -0.1044
 1996BUT     C1 1996   4.849   4.846   3.069  0.2000 -0.3105 -0.1025
 1997BUT     C1 1997   1.261   1.511   1.560 -0.1413 -0.0026 -0.0141
 1998BUT     C1 1998   4.584   1.000   4.244  0.0902 -0.0671  0.2441
 1999BUT     C1 1999   3.983   4.263   4.795  0.0934 -0.2010 -0.0761
 2000BUT     C1 2000   1.960   4.681   0.905  0.0418 -0.0468 -0.0949
 2001BUT     C1 2001   3.928   0.584   2.189 -0.2494  0.0816 -0.0259
 2002BUT     C1 2002   4.085   1.838   5.536  0.2302 -0.0495 -0.2092
 2003BUT     C1 2003   2.325   3.489   0.964 -0.2207  0.0611  0.0431
 2004BUT     C1 2004   3.664   6.385   0.581 -0.0460  0.3357  0.0581
 2005BUT     C1 2005   4.501   3.043   2.167 -0.0709  0.1694  0.0239
 2006BUT     C1 2006   0.538   3.345   1.055 -0.2802  0.3576  0.1609
 2007BUT     C1 2007   5.960   3.396   1.982  0.1300  0.2041 -0.0790
 2008BUT     C1 2008   4.574   5.404   2.308  0.0174  0.0703 -0.0817
 2009BUT     C1 2009   5.438   3.642   5.260 -0.1457 -0.0768 -0.0274
 2010BUT     C1 2010   2.790   1.875   3.689 -0.0528 -0.1589  0.1325
 2011BUT     C1 2011   0.217   1.213   6.484 -0.0678  0.1388  0.1888
 2012BUT     C1 2012   2.534   2.651   0.583  0.2525 -0.0395  0.1544
 2013BUT     C1 2013   4.083   0.823   4.064 -0.0033 -0.0001  0.0777
 2014BUT     C1 2014   0.973   3.581   1.530  0.1789  0.2842 -0.2264
 2015BUT     C1 2015   0.953   2.070   5.957 -0.0549  0.1329 -0.0288
 2016BUT     C1 2016   6.523   1.834   5.133 -0.3429  0.1818 -0.2482
 2017BUT     C1 2017   0.912   1.409   4.363  0.3154 -0.1489  0.2174
 2018BUT     C1 2018   2.983   4.321   1.746 -0.0072  0.0087 -0.3153
 2019BUT     C1 2019   2.140   4.261   4.727 -0.0731 -0.2176 -0.0590
 2020BUT     C1 2020   4.636   3.607   4.056 -0.2105  0.2862  0.0935
 2021BUT     C1 2021   1.920   2.853   6.385  0.1123 -0.3192 -0.1430
 2022BUT     C1 2022   3.138   1.849   3.348 -0.1554 -0.1244  0.0428
 2023BUT     C1 2023   4.364   4.761   0.235  0.1335 -0.2627  0.0234
 2024BUT     C1 2024   0.983   5.055   0.986 -0.0812  0.1428 -0.1102
 2025BUT     C1 2025   3.039   6.130   0.379  0.0143  0.4117 -0.1123
 2026BUT     C1 2026   2.179   3.760   4.839 -0.4083  0.1095  0.0154
 2027BUT     C1 2027   3.945   6.218   4.702 -0.1958 -0.0502  0.1154
 2028BUT     C1 2028   2.360   6.576   4.796  0.1609  0.1171  0.0743
 2029BUT     C1 2029   4.335   0.431   4.567  0.1076 -0.1524  0.0241
 2030BUT     C1 2030   4.922   2.031   6.484 -0.2627  0.1462  0.0064
 2031BUT     C1 2031   0.253   3.094   3.653 -0.0849  0.1949 -0.2313
 2032BUT     C1 2032   3.442   1.095   0.983 -0.0382  0.1606  0.1695
 2033BUT     C1 2033   5.656   3.066   6.447 -0.1559 -0.0501 -0.1161
 2034BUT     C1 2034   2.386   0.481   3.422  0.0968  0.1051 -0.3707
 2035BUT     C1 2035   2.070   1.364   4.540  0.2976 -0.3730 -0.1878
 2036BUT     C1 2036   2.091   1.571   0.547  0.0587 -0.2148 -0.1065
 2037BUT     C1 2037   3.257   1.776   3.876 -0.0652  0.1025  0.0423
 2038BUT     C1 2038   1.960   2.048   3.289 -0.2387 -0.1059  0.0335
 2039BUT     C1 2039   4.244   0.571   6.085 -0.0044  0.0406  0.0294
 2040BUT     C1 2040   4.912   0.032   6.522  0.3552 -0.0255  0.1441
 2041BUT     C1 2041   4.954   3.712   3.057 -0.0292  0.2540 -0.1831
 2042BUT     C1 2042   3.313   4.373   5.493  0.3527 -0.0136 -0.1170
 2043BUT     C1 2043   0.069   5.484   4.445 -0.2590  0.3015  0.2729
 2044BUT     C1 2044   4.388   2.924   3.400  0.1409 -0.4433 -0.0893
 2045BUT     C1 2045   2.072   1.858   1.166  0.1901 -0.1570 -0.0467
 2046BUT     C1 2046   1.427   4.831   5.881  0.0768 -0.1905  0.0362
 2047BUT     C1 2047   1.130   1.955   3.591 -0.1503 -0.1158 -0.1973
 2048BUT     C1 2048   4.186   1.861   0.690 -0.2759 -0.5278 -0.0474
 2049BUT     C1 2049   2.507   0.905   0.054  0.0351 -0.0391 -0.0151
 2050BUT     C1 2050   4.894   2.732   0.631  0.1788  0.0130  0.1634
 2051BUT     C1 2051   2.238   2.750   1.333  0.1066  0.0808 -0.1934
 2052BUT     C1 2052   1.639   3.733   0.078  0.1635  0.1512 -0.0122
 2053BUT     C1 2053   4.321   3.125   2.653 -0.2016  0.1364  0.1219
 2054BUT     C1 2054   6.545   2.543   6.189 -0.1661  0.1404  0.0189
 2055BUT     C1 2055   3.321   3.391   6.202  0.1317  0.0660  0.1658
 2056BUT     C1 2056   3.600   3.060   1.321 -0.1074 -0.0083 -0.2957
 2057BUT     C1 2057   2.730   0.356   4.787  0.0006  0.3530 -0.0472
 2058BUT     C1 2058   6.267   4.943   5.013  0.1934  0.1742  0.1022
 2059BUT     C1 2059   1.853   1.524   5.613  0.0065  0.2716 -0.3327
 2060BUT     C1 2060   5.614   5.489   1.886 -0.0379 -0.1203 -0.0257
 2061BUT     C1 2061   5.276   1.197   4.474  0.1400  0.1358  0.3234
 2062BUT     C1 2062   6.526   3.637   4.275 -0.1193 -0.0103  0.0804
 2063BUT     C1 2063   5.754   2.334   2.076 -0.2004  0.1182 -0.3646
 2064BUT     C1 2064   6.242   1.355   3.222 -0.4466  0.1883  0.2988
 2065BUT     C1 2065   3.854   4.014   6.071 -0.1114 -0.0679  0.0427
 2066BUT     C1 2066   3.153   1.672   5.545 -0.2925  0.2165 -0.2401
 2067BUT     C1 2067   6.273   3.175   2.858  0.0056 -0.0642 -0.5358
 2068BUT     C1 2068   3.592   4.767   2.231  0.1772 -0.2199 -0.3584
 2069BUT     C1 2069   4.068   0.115   2.311 -0.1161  0.3070 -0.3704
 2070BUT     C1 2070   4.901   0.281   3.688 -0.4006 -0.3914 -0.1211
 2071BUT     C1 2071   5.534   4.580   6.243  0.2852  0.1626  0.1591
 2072BUT     C1 2072   6.518   1.899   3.230 -0.1375 -0.1429 -0.3478
 2073BUT     C1 2073   4.616   2.039   4.142  0.4011 -0.0638  0.2375
 2074BUT     C1 2074   3.528   2.532   4.872 -0.1835 -0.0553  0.1246
 2075BUT     C1 2075   4.295   3.787   5.805  0.0401 -0.0327  0.0587
 2076BUT     C1 2076   0.594   4.215   4.703 -0.0206  0.3100  0.1656
 2077BUT     C1 2077   6.540   2.646   4.847 -0.0214  0.2331 -0.1959
 2078BUT     C1 2078   1.789   1.600   1.936  0.1585  0.2626 -0.0015
 2079BUT     C1 2079   6.554   2.693   3.473 -0.2053  0.2945 -0.2340
 2080BUT     C1 2080   6.443   2.458   1.006 -0.0283 -0.0374 -0.0149
 2081BUT     C1 2081   0.906   2.599   2.560  0.2412  0.1694 -0.3457
 2082BUT     C1 2082   3.663   1.962   4.179 -0.1426 -0.0086 -0.1224
 2083BUT     C1 2083   4.926   3.451   5.575  0.0794  0.0411  0.2101
 2084BUT     C1 2084   6.282   5.500   4.888 -0.1257  0.0509 -0.0131
 2085BUT     C1 2085   4.495   3.598   2.400  0.0274  0.0705  0.0912
 2086BUT     C1 2086   1.111   4.961   6.286 -0.2323  0.0662 -0.2340
 2087BUT     C1 2087   0.094   0.582   1.330 -0.2407 -0.5337 -0.2558
 2088BUT     C1 2088   4.697   3.931   3.387 -0.1089  0.1111 -0.2636
 2089BUT     C1 2089   3.452   4.779   5.304 -0.0985  0.1452 -0.1451
 2090BUT     C1 2090   3.153   0.358   1.958 -0.0607 -0.1070  0.1139
 2091BUT     C1 2091   1.779   3.077   5.796  0.0580  0.0109  0.1382
 2092BUT     C1 2092   4.674   4.536   4.118  0.0232  0.1189 -0.1244
 2093BUT     C1 2093   4.703   2.687   3.069  0.0674  0.1884  0.0845
 2094BUT     C1 2094   2.582   3.420   5.594  0.0316  0.3137 -0.1272
 2095BUT     C1 2095   0.254   6.011   3.336 -0.1814  0.3782  0.0147
 2096BUT     C1 2096   5.657   4.177   1.818  0.2829  0.1114  0.1481
 2097BUT     C1 2097   5.227   6.253   6.285  0.1162  0.1900 -0.0914
 2098BUT     C1 2098   5.084   1.706   5.434 -0.1308  0.3049 -0.3531
 2099BUT     C1 2099   2.271   0.314   0.508  0.0550  0.1087  0.1515
 2100BUT     C1 2100   5.635   0.060   2.624  0.1386  0.3756 -0.2103
 2101BUT     C1 2101   0.048   6.538   0.599 -0.4532  0.0398  0.1254
 2102BUT     C1 2102   1.055   0.832   0.025 -0.0052 -0.1658 -0.0451
 2103BUT     C1 2103   0.343   4.889   5.917  0.3224  0.1878 -0.1818
 2104BUT     C1 2104   0.223   0.657   5.995 -0.0225 -0.0080  0.0342
 2105BUT     C1 2105   2.613   6.351   0.091 -0.2289  0.1561  0.2248
 2106BUT     C1 2106   6.500   5.481   2.066 -0.3024 -0.3004  0.1834
 2107BUT     C1 2107   4.730   4.302   2.227  0.2008 -0.4368 -0.2780
 2108BUT     C1 2108   1.456   0.902   3.121  0.3748  0.0824 -0.0994
 2109BUT     C1 2109   2.872   5.339   2.491  0.1190 -0.3249 -0.2594
 2110BUT     C1 2110   4.066   4.245   4.296 -0.0169  0.0453  0.0339
 2111BUT     C1 2111   1.955   1.114   6.552  0.1506  0.2643  0.1992
 2112BUT     C1 2112   2.396   5.854   5.135  0.0877 -0.0538  0.1295
 2113BUT     C1 2113   6.130   2.392   2.440 -0.0268 -0.1727  0.3090
 2114BUT     C1 2114   5.594   1.678   2.325  0.0968 -0.3005  0.0030
 2115BUT     C1 2115   4.752   0.449   6.159 -0.0320 -0.2323 -0.0919
 2116BUT     C1 2116   3.405   5.540   4.803 -0.4423  0.2865  0.0244
 2117BUT     C1 2117   0.969   5.210   5.300 -0.0045  0.0248 -0.1067
 2118BUT     C1 2118   1.288   3.204   5.457  0.0259  0.0265 -0.1965
 2119BUT     C1 2119   2.737   3.863   0.828  0.0627  0.0421 -0.1545
 2120BUT     C1 2120   4.164   6.388   0.675  0.1288  0.2973 -0.0336
 2121BUT     C1 2121   4.068   0.311   4.049  0.1551 -0.0748  0.1412
 2122BUT     C1 2122   3.176   5.678   4.339  0.0193  0.2308 -0.0825
 2123BUT     C1 2123   2.178   0.836   6.153  0.2273 -0.4562 -0.1710
 2124BUT     C1 2124   5.777   5.458   0.187 -0.1210  0.1508 -0.1984
 2125BUT     C1 2125   5.623   0.363   3.200 -0.2558 -0.0938 -0.0783
 2126BUT     C1 2126   0.771   4.780   2.932 -0.0072  0.0334  0.1087
 2127BUT     C1 2127   6.206   1.438   2.163  0.4435 -0.2454  0.1465
 2128BUT     C1 2128   0.754   2.988   4.975  0.0976 -0.2170 -0.0250
 2129BUT     C1 2129   0.162   4.008   3.986 -0.0051 -0.2330 -0.0002
 2130BUT     C1 2130   5.565   1.163   5.696  0.3409  0.3784  0.3339
 2131BUT     C1 2131   5.240   5.110   3.276  0.2336  0.3007  0.1572
 2132BUT     C1 2132   3.957   3.031   0.413 -0.0511 -0.2232  0.3145
 2133BUT     C1 2133   4.511   3.075   3.959  0.0895 -0.4285 -0.0428
 2134BUT     C1 2134   5.783   2.459   2.994  0.0529 -0.1099 -0.2838
 2135BUT     C1 2135   6.278   2.662   2.896 -0.0766  0.1289  0.1724
 2136BUT     C1 2136   3.384   1.592   1.857 -0.3783  0.0240 -0.2130
 2137BUT     C1 2137   5.472   5.563   0.686 -0.1716 -0.1079 -0.3154
 2138BUT     C1 2138   1.358   6.270   1.097 -0.0733 -0.1470 -0.0310
 2139BUT     C1 2139   3.936   3.960   6.542 -0.0181 -0.2711 -0.1413
 2140BUT     C1 2140   4.789   2.381   6.150 -0.0166  0.0912  0.2840
 2141BUT     C1 2141   1.881   0.089   0.071 -0.2549  0.1260 -0.1030
 2142BUT     C1 2142   0.354   1.488   5.305  0.1905  0.1941 -0.0753
 2143BUT     C1 2143   0.189   1.728   3.731 -0.1324  0.0943 -0.0534
 2144BUT     C1 2144   0.476   2.352   4.214  0.4342 -0.0841 -0.3015
 2145BUT     C1 2145   4.326   5.623   1.301  0.0886  0.1525 -0.3256
 2146BUT     C1 2146   5.204   3.371   6.580  0.2293  0.1003 -0.3042
 2147BUT     C1 2147   5.930   4.972   0.324  0.1336  0.3598 -0.1465
 2148BUT     C1 2148   3.758   2.505   5.289  0.2979 -0.1552  0.0792
 2149BUT     C1 2149   3.826   5.676   1.400  0.0516  0.1371  0.3171
 2150BUT     C1 2150   4.803   4.501   0.322  0.1394  0.2125 -0.1707
 2151BUT     C1 2151   2.194   4.421   5.502  0.0068  0.0184 -0.2257
 2152BUT     C1 2152   5.276   6.435   0.754  0.1121  0.0461 -0.3222
 2153BUT     C1 2153   5.893   3.329   2.540 -0.1662 -0.1269  0.0747
 2154BUT     C1 2154   2.435   3.848   3.452 -0.1594 -0.2462 -0.1593
 2155BUT     C1 2155   4.273   2.257   5.255 -0.0028 -0.3220  0.1196
 2156BUT     C1 2156   2.970   6.406   5.723 -0.1632  0.1315  0.1519
 2157BUT     C1 2157   1.016   4.086   4.884  0.0310 -0.0823  0.0438
 2158BUT     C1 2158   0.923   0.742   0.587  0.0481 -0.0515 -0.4215
 2159BUT     C1 2159   2.946   2.638   1.876 -0.4420 -0.0005  0.3021
 2160BUT     C1 2160   6.593   2.047   2.495  0.1055  0.3400 -0.0572
 2161BUT     C1 2161   2.382   3.888   2.302  0.1115 -0.0761 -0.1896
 2162BUT     C1 2162   3.401   2.213   0.111  0.2430 -0.1868 -0.0169
 2163BUT     C1 2163   1.833   3.815   2.864 -0.1510 -0.1223 -0.1548
 2164BUT     C1 2164   1.776   3.961   5.481  0.2729  0.2611 -0.0430
 2165BUT     C1 2165   0.082   3.414   1.331 -0.0846 -0.1962  0.0922
 2166BUT     C1 2166   4.304   2.286   5.831  0.0040  0.0056  0.2284
 2167BUT     C1 2167   2.136   0.951   2.696 -0.1476  0.1237 -0.0888
 2168BUT     C1 2168   2.085   2.545   4.654  0.1436 -0.1061 -0.0082
 2169BUT     C1 2169   5.973   2.721   5.034 -0.3121 -0.0304 -0.2043
 2170BUT     C1 2170   3.208   2.632   1.264  0.0348 -0.1953  0.0446
 2171BUT     C1 2171   5.786   5.812   1.162 -0.0053  0.1557 -0.3244
 2172BUT     C1 2172   0.067   3.507   0.331  0.2083 -0.2499  0.0349
 2173BUT     C1 2173   1.365   2.591   1.169 -0.1129  0.0571  0.2207
 2174BUT     C1 2174   0.962   4.583   1.237  0.0700  0.3166 -0.1695
 2175BUT     C1 2175   5.697   2.929   4.026  0.0386  0.2786  0.0061
 2176BUT     C1 2176   3.402   4.780   5.937 -0.0894  0.4596 -0.1960
 2177BUT     C1 2177   4.749   5.308   3.956  0.0699  0.1263 -0.3767
 2178BUT     C1 2178   6.360   5.267   3.646 -0.1790 -0.0738 -0.1377
 2179BUT     C1 2179   0.707   5.731   5.401 -0.2344 -0.0254 -0.3329
 2180BUT     C1 2180   3.801   6.577   3.380  0.1943  0.0225 -0.3480
 2181BUT     C1 2181   4.007   1.284   1.525  0.1800  0.6066 -0.1177
 2182BUT     C1 2182   2.388   4.876   2.640  0.1291  0.5551 -0.0376
 2183BUT     C1 2183   2.670   0.653   0.525  0.0194  0.0762 -0.0464
 2184BUT     C1 2184   0.730   4.756   4.578 -0.2541  0.0352  0.0813
 2185BUT     C1 2185   3.876   2.405   1.530  0.0387 -0.1520 -0.2714
 2186BUT     C1 2186   3.052   0.005   0.057 -0.1210 -0.1083 -0.0140
 2187BUT     C1 2187   6.389   0.569   2.187  0.2674  0.1947  0.0551
 2188BUT     C1 2188   1.078   3.108   4.569 -0.0816 -0.0545  0.0854
 2189BUT     C1 2189   3.750   6.432   5.515  0.2218 -0.2355 -0.2410
 2190BUT     C1 2190   5.251   1.338   2.196  0.3205 -0.0745 -0.1867
 2191BUT     C1 2191   3.335   2.541   5.913  0.0265 -0.1045 -0.2011
 2192BUT     C1 2192   3.558   4.437   0.973  0.0589  0.2673  0.0631
 2193BUT     C1 2193   0.639   0.626   3.677  0.2592  0.1774  0.0825
 2194BUT     C1 2194   5.738   3.028   4.643 -0.1753 -0.0518 -0.1353
 2195BUT     C1 2195   4.099   0.069   4.965  0.2807  0.0360 -0.0926
 2196BUT     C1 2196   2.381   0.990   3.345  0.3175  0.0318 -0.0008
 2197BUT     C1 2197   5.917   4.225   6.368  0.4285  0.1195 -0.0331
   6.60723   6.60723   6.60723
