;;
;; Generated by CHARMM-GUI (http://www.charmm-gui.org) v1.7
;;
;; psf2itp_mol.py
;;
;; Correspondance:
;; jul316@lehigh.edu or wonpil@lehigh.edu
;;
;; GROMACS topology file for MACS
;;


[ moleculetype ]
; name	nrexcl
MACS	     3

[ atoms ]
; nr	type	resnr	residu	atom	cgnr	charge	mass
     1      CG331      1     MACS     C1      1     -0.268    12.0110   ; qtot -0.268
     2       HGA3      1     MACS     H1      2      0.090     1.0080   ; qtot -0.178
     3       HGA3      1     MACS     H2      3      0.090     1.0080   ; qtot -0.088
     4       HGA3      1     MACS     H3      4      0.090     1.0080   ; qtot  0.002
     5      CG321      1     MACS     C2      5     -0.244    12.0110   ; qtot -0.242
     6       HGA2      1     MACS     H4      6      0.090     1.0080   ; qtot -0.152
     7       HGA2      1     MACS     H5      7      0.090     1.0080   ; qtot -0.062
     8      CG2O2      1     MACS     C3      8      0.894    12.0110   ; qtot  0.832
     9      OG2D1      1     MACS     O1      9     -0.607    15.9994   ; qtot  0.225
    10      OG302      1     MACS     O2     10     -0.484    15.9994   ; qtot -0.259
    11      CG331      1     MACS     C4     11     -0.011    12.0110   ; qtot -0.270
    12       HGA3      1     MACS     H6     12      0.090     1.0080   ; qtot -0.180
    13       HGA3      1     MACS     H7     13      0.090     1.0080   ; qtot -0.090
    14       HGA3      1     MACS     H8     14      0.090     1.0080   ; qtot -0.000

[ bonds ]
; ai	aj	funct	b0	Kb
    1     2     1
    1     3     1
    1     4     1
    1     5     1
    5     6     1
    5     7     1
    5     8     1
    8     9     1
    8    10     1
   10    11     1
   11    12     1
   11    13     1
   11    14     1

[ pairs ]
; ai	aj	funct	c6	c12
    1     9     1 
    1    10     1 
    2     6     1 
    2     7     1 
    2     8     1 
    3     6     1 
    3     7     1 
    3     8     1 
    4     6     1 
    4     7     1 
    4     8     1 
    5    11     1 
    6     9     1 
    6    10     1 
    7     9     1 
    7    10     1 
    8    12     1 
    8    13     1 
    8    14     1 
    9    11     1 

[ angles ] 
; ai	aj	ak	funct	th0	cth	S0	Kub
    2     1     3     5
    2     1     4     5
    2     1     5     5
    3     1     4     5
    3     1     5     5
    4     1     5     5
    1     5     6     5
    1     5     7     5
    1     5     8     5
    6     5     7     5
    6     5     8     5
    7     5     8     5
    5     8     9     5
    5     8    10     5
    9     8    10     5
    8    10    11     5
   10    11    12     5
   10    11    13     5
   10    11    14     5
   12    11    13     5
   12    11    14     5
   13    11    14     5

[ dihedrals ]
; ai	aj	ak	al	funct	phi0	cp	mult
    2     1     5     6     9
    2     1     5     7     9
    2     1     5     8     9
    3     1     5     6     9
    3     1     5     7     9
    3     1     5     8     9
    4     1     5     6     9
    4     1     5     7     9
    4     1     5     8     9
    1     5     8     9     9
    1     5     8    10     9
    6     5     8     9     9
    6     5     8    10     9
    7     5     8     9     9
    7     5     8    10     9
    5     8    10    11     9
    9     8    10    11     9
    8    10    11    12     9
    8    10    11    13     9
    8    10    11    14     9

[ dihedrals ]
; ai	aj	ak	al	funct	q0	cq
    8     5     9    10     2
