GROup of MAchos and Cynical Suckers
   14
    1MAC     C1    1  -0.190  -0.062  -0.018
    1MAC    H11    2  -0.295  -0.065   0.017
    1MAC    H12    3  -0.189  -0.062  -0.129
    1MAC    H13    4  -0.138  -0.154   0.018
    1MAC     C2    5  -0.120   0.063   0.036
    1MAC    H21    6  -0.173   0.154  -0.000
    1MAC    H22    7  -0.120   0.063   0.147
    1MAC     C3    8   0.024   0.066  -0.016
    1MAC     O1    9   0.064   0.139  -0.104
    1MAC     O2   10   0.096  -0.024   0.051
    1MAC     C4   11   0.233  -0.028   0.008
    1MAC    H41   12   0.288  -0.105   0.067
    1MAC    H42   13   0.239  -0.056  -0.100
    1MAC    H43   14   0.282   0.070   0.024
   0.00000   0.00000   0.00000
