Acetid acid box
 2197
    1ACH    OOH    1   0.449   5.933   1.204  0.1343 -0.1248  0.2339
    2ACH    OOH    2   5.882   3.389   5.738 -0.1276 -0.0111  0.3619
    3ACH    OOH    3   3.053   1.094   4.947  0.0254  0.0796 -0.3203
    4ACH    OOH    4   0.191   3.331   4.087  0.0683 -0.0370 -0.1790
    5ACH    OOH    5   3.655   0.887   3.261 -0.1106  0.2227  0.2364
    6ACH    OOH    6   3.786   1.340   3.312 -0.0465 -0.1535 -0.2515
    7ACH    OOH    7   1.252   2.891   5.551 -0.0878  0.1227  0.1391
    8ACH    OOH    8   0.464   2.394   4.550 -0.2065 -0.3633  0.2659
    9ACH    OOH    9   3.127   1.000   0.221  0.0054  0.3228 -0.1705
   10ACH    OOH   10   1.874   2.728   3.722  0.0989 -0.0622  0.3102
   11ACH    OOH   11   6.276   3.722   0.564  0.2304 -0.0128 -0.2166
   12ACH    OOH   12   2.020   0.389   4.244  0.0819  0.0122  0.1425
   13ACH    OOH   13   4.670   0.754   5.304  0.1767 -0.1418  0.2254
   14ACH    OOH   14   6.180   2.564   3.408  0.2202  0.0921  0.1163
   15ACH    OOH   15   3.329   2.724   2.000  0.0002  0.2564  0.0721
   16ACH    OOH   16   1.961   6.092   5.077 -0.0727  0.0634 -0.2459
   17ACH    OOH   17   4.517   5.859   0.884  0.1398 -0.0467 -0.1515
   18ACH    OOH   18   2.713   2.090   4.862  0.1437  0.2526  0.0961
   19ACH    OOH   19   1.699   5.712   5.845 -0.0745 -0.1498  0.0756
   20ACH    OOH   20   1.060   4.490   2.284  0.2313 -0.5174  0.2159
   21ACH    OOH   21   2.415   4.512   5.034 -0.0567 -0.1360  0.1001
   22ACH    OOH   22   2.589   3.149   0.576 -0.3197  0.2246  0.1034
   23ACH    OOH   23   5.805   0.160   2.268  0.3556 -0.2245  0.0057
   24ACH    OOH   24   4.540   5.401   2.121 -0.2845 -0.0484 -0.1213
   25ACH    OOH   25   6.099   2.564   5.492  0.1924 -0.0874  0.1737
   26ACH    OOH   26   0.191   2.291   5.596  0.2073  0.0756  0.2517
   27ACH    OOH   27   5.734   2.995   0.911  0.1952 -0.1887  0.1191
   28ACH    OOH   28   3.711   5.238   5.465 -0.1003  0.1157  0.0662
   29ACH    OOH   29   5.521   2.209   1.253 -0.4521 -0.1172  0.4903
   30ACH    OOH   30   0.838   5.030   0.308  0.0131  0.0516 -0.3417
   31ACH    OOH   31   5.575   5.737   0.701  0.0661  0.0923 -0.0088
   32ACH    OOH   32   1.974   1.659   0.119 -0.1000  0.0331  0.0807
   33ACH    OOH   33   0.408   2.757   5.045 -0.0570  0.2649  0.1854
   34ACH    OOH   34   6.160   4.402   3.574 -0.1001 -0.0645  0.1363
   35ACH    OOH   35   2.160   0.713   1.101 -0.0985  0.0244  0.1022
   36ACH    OOH   36   2.107   2.758   4.330 -0.0386  0.0710 -0.2057
   37ACH    OOH   37   2.536   0.186   3.305  0.1773  0.0537 -0.1412
   38ACH    OOH   38   3.274   0.766   2.521 -0.0491  0.1572 -0.0587
   39ACH    OOH   39   1.053   0.717   4.204  0.3679 -0.2620 -0.1175
   40ACH    OOH   40   5.872   4.279   0.008 -0.1101  0.0762  0.1235
   41ACH    OOH   41   4.724   0.276   5.425  0.3086  0.0660 -0.2026
   42ACH    OOH   42   3.070   2.636   0.715  0.0785 -0.0149 -0.4793
   43ACH    OOH   43   2.426   5.137   3.375 -0.3520  0.1503  0.3388
   44ACH    OOH   44   0.687   4.623   2.590  0.0341 -0.1631 -0.3867
   45ACH    OOH   45   1.249   0.359   2.814  0.0900 -0.1110 -0.3356
   46ACH    OOH   46   4.229   0.210   1.582 -0.0669  0.0167  0.3162
   47ACH    OOH   47   2.481   6.254   4.986 -0.5452  0.0657 -0.1481
   48ACH    OOH   48   0.080   3.243   5.757  0.2720 -0.1291  0.2365
   49ACH    OOH   49   0.813   3.153   2.899  0.2767  0.1092  0.0344
   50ACH    OOH   50   1.265   1.750   2.351 -0.0497  0.0558 -0.0998
   51ACH    OOH   51   5.369   5.406   4.041 -0.0905 -0.1346  0.0335
   52ACH    OOH   52   3.823   4.951   4.587 -0.2577 -0.1493  0.0741
   53ACH    OOH   53   3.330   2.684   4.546  0.2216  0.1041 -0.0085
   54ACH    OOH   54   2.004   1.969   3.662  0.2030 -0.1946 -0.1213
   55ACH    OOH   55   4.005   3.726   4.158 -0.1934  0.1471  0.0010
   56ACH    OOH   56   4.182   1.250   0.737 -0.1112 -0.1930  0.3731
   57ACH    OOH   57   0.121   6.088   2.857 -0.0941  0.2899  0.0289
   58ACH    OOH   58   1.860   6.000   2.428 -0.0142 -0.1101 -0.1111
   59ACH    OOH   59   4.030   3.044   3.937 -0.0413  0.2522 -0.3388
   60ACH    OOH   60   0.659   5.455   0.938  0.0478 -0.2224 -0.1208
   61ACH    OOH   61   4.750   4.726   3.110 -0.0335  0.4030 -0.1669
   62ACH    OOH   62   2.266   4.319   3.343 -0.1034 -0.0167  0.1091
   63ACH    OOH   63   0.028   0.407   5.390  0.0239 -0.1207  0.2953
   64ACH    OOH   64   2.888   6.245   3.581  0.0460 -0.1063  0.0488
   65ACH    OOH   65   0.954   3.043   1.476  0.3726 -0.2297  0.3392
   66ACH    OOH   66   0.873   5.396   5.546  0.0257 -0.2578 -0.0818
   67ACH    OOH   67   5.214   4.621   3.422  0.1436  0.0962  0.1326
   68ACH    OOH   68   0.523   0.866   4.096 -0.1595  0.4808  0.1729
   69ACH    OOH   69   3.560   0.931   4.202  0.1270 -0.4856  0.1532
   70ACH    OOH   70   1.654   3.726   0.951  0.0210  0.1928  0.1025
   71ACH    OOH   71   1.956   1.469   1.665  0.2284 -0.0326  0.0239
   72ACH    OOH   72   3.216   3.818   4.712  0.4102  0.0450 -0.4477
   73ACH    OOH   73   1.445   2.946   1.530 -0.0471 -0.1064 -0.0251
   74ACH    OOH   74   4.697   0.246   1.436 -0.3499 -0.0256  0.1838
   75ACH    OOH   75   2.208   1.026   3.948  0.1406 -0.2743  0.0121
   76ACH    OOH   76   2.904   2.420   1.477 -0.0815  0.1764  0.0450
   77ACH    OOH   77   3.336   0.167   5.060 -0.1305 -0.1150  0.2564
   78ACH    OOH   78   5.270   4.194   0.376  0.1758 -0.1070 -0.0890
   79ACH    OOH   79   1.760   0.797   4.130  0.4258 -0.0622  0.2105
   80ACH    OOH   80   3.430   4.186   2.087  0.2299 -0.1414  0.2395
   81ACH    OOH   81   0.616   3.983   0.336  0.0379 -0.1454 -0.0804
   82ACH    OOH   82   3.766   3.763   0.033  0.3561 -0.2540  0.0715
   83ACH    OOH   83   6.357   5.689   5.337 -0.1045  0.2125 -0.1005
   84ACH    OOH   84   6.045   0.735   2.360 -0.0175 -0.1179  0.0208
   85ACH    OOH   85   1.254   0.767   1.653  0.2245  0.2425  0.2629
   86ACH    OOH   86   0.643   3.850   4.171 -0.2513  0.2164 -0.0249
   87ACH    OOH   87   1.172   5.316   0.178  0.0659  0.1006 -0.1593
   88ACH    OOH   88   3.349   4.007   0.377 -0.0725  0.1573 -0.0139
   89ACH    OOH   89   0.889   1.044   0.818 -0.0403 -0.0769  0.0326
   90ACH    OOH   90   1.985   2.983   0.701 -0.3452 -0.1751 -0.4361
   91ACH    OOH   91   5.516   4.818   1.635 -0.2631  0.1691 -0.1454
   92ACH    OOH   92   0.047   3.790   4.152 -0.0370  0.0396 -0.1041
   93ACH    OOH   93   5.557   6.333   5.366  0.1115  0.0875 -0.2454
   94ACH    OOH   94   1.595   4.472   5.536  0.1151  0.2365  0.3437
   95ACH    OOH   95   4.768   5.211   5.134 -0.2038  0.1120  0.4148
   96ACH    OOH   96   3.890   2.919   2.793  0.0433  0.1019  0.1330
   97ACH    OOH   97   6.231   1.374   0.423  0.3973 -0.2122  0.0414
   98ACH    OOH   98   1.340   3.325   1.089 -0.1148 -0.0325 -0.1119
   99ACH    OOH   99   2.680   4.731   3.570 -0.0552 -0.0353  0.4304
  100ACH    OOH  100   1.861   1.128   0.302  0.0064 -0.1022 -0.2558
  101ACH    OOH  101   4.113   1.379   0.208 -0.0428 -0.0637 -0.0960
  102ACH    OOH  102   0.514   0.918   0.473 -0.1202  0.2410  0.0865
  103ACH    OOH  103   4.429   2.007   3.056  0.1014 -0.0669 -0.2010
  104ACH    OOH  104   4.409   4.184   5.293 -0.2093 -0.1859 -0.0213
  105ACH    OOH  105   5.217   5.536   0.102  0.0335  0.3041  0.0021
  106ACH    OOH  106   0.617   5.911   0.676  0.0373 -0.1269 -0.1304
  107ACH    OOH  107   2.895   4.698   4.002  0.3325  0.0319 -0.2599
  108ACH    OOH  108   2.276   5.932   0.432  0.0547  0.1486 -0.0915
  109ACH    OOH  109   5.941   2.473   0.319  0.0506 -0.1152  0.2446
  110ACH    OOH  110   1.554   5.208   6.009  0.0013 -0.1489  0.0251
  111ACH    OOH  111   1.483   0.266   0.512 -0.1009  0.2314  0.1576
  112ACH    OOH  112   3.702   1.646   5.289 -0.3110 -0.1045  0.2258
  113ACH    OOH  113   2.461   1.268   3.584  0.3908 -0.1010 -0.1126
  114ACH    OOH  114   5.407   6.225   2.447  0.1862  0.2485 -0.0688
  115ACH    OOH  115   2.857   3.869   4.326  0.0795  0.0228 -0.0798
  116ACH    OOH  116   0.434   4.351   1.023 -0.1868 -0.0005 -0.0317
  117ACH    OOH  117   2.402   3.042   1.028  0.3863 -0.2825  0.2974
  118ACH    OOH  118   2.672   6.121   3.123 -0.2056 -0.0147 -0.0704
  119ACH    OOH  119   3.363   5.955   3.389  0.2191  0.0170 -0.0606
  120ACH    OOH  120   4.442   2.278   5.261 -0.3099 -0.1945 -0.0721
  121ACH    OOH  121   0.916   2.638   2.647 -0.0404  0.0794 -0.2477
  122ACH    OOH  122   0.642   1.186   0.044  0.0739  0.0643  0.1471
  123ACH    OOH  123   4.100   1.408   2.149  0.1848  0.1055  0.0837
  124ACH    OOH  124   4.140   0.115   4.903 -0.0833  0.2202  0.2153
  125ACH    OOH  125   0.628   2.030   3.644 -0.1475  0.2275 -0.2707
  126ACH    OOH  126   0.874   1.596   3.505 -0.1257  0.2588 -0.0861
  127ACH    OOH  127   3.506   3.928   5.952 -0.0300 -0.0229 -0.1548
  128ACH    OOH  128   5.633   2.251   4.340  0.2052  0.0370  0.1055
  129ACH    OOH  129   4.991   3.598   1.428 -0.1113  0.2079 -0.0366
  130ACH    OOH  130   4.458   0.767   0.784 -0.2852  0.0558 -0.1182
  131ACH    OOH  131   3.929   0.385   0.311 -0.1039 -0.0663 -0.2049
  132ACH    OOH  132   2.985   4.017   0.782 -0.1020  0.1515 -0.0545
  133ACH    OOH  133   2.380   1.549   3.082  0.1892 -0.2400 -0.0857
  134ACH    OOH  134   5.487   1.412   3.564 -0.3926  0.1985  0.2331
  135ACH    OOH  135   5.217   6.071   0.908  0.0336  0.0586  0.1370
  136ACH    OOH  136   2.650   4.470   2.120 -0.1355 -0.1093  0.3010
  137ACH    OOH  137   2.240   3.282   0.151  0.2748  0.2932 -0.1249
  138ACH    OOH  138   5.489   4.722   6.052 -0.0802 -0.3397  0.3330
  139ACH    OOH  139   4.731   4.663   0.164  0.0325  0.1088  0.0713
  140ACH    OOH  140   2.801   3.338   2.644 -0.1219 -0.0478 -0.1850
  141ACH    OOH  141   4.472   3.516   1.659  0.0118 -0.0101  0.1621
  142ACH    OOH  142   2.330   3.970   5.187  0.0790  0.0759 -0.0970
  143ACH    OOH  143   6.315   6.254   5.271  0.0091 -0.0149  0.0173
  144ACH    OOH  144   1.791   5.145   4.566 -0.1936  0.2382  0.2059
  145ACH    OOH  145   0.021   1.482   3.325  0.2340 -0.2470  0.1578
  146ACH    OOH  146   4.802   3.075   5.195  0.0145 -0.1331 -0.0759
  147ACH    OOH  147   1.632   5.491   2.998  0.0357  0.1440 -0.0696
  148ACH    OOH  148   0.627   4.552   3.988 -0.1785  0.4298  0.0630
  149ACH    OOH  149   0.075   1.360   0.974 -0.1793  0.0761 -0.0587
  150ACH    OOH  150   1.181   0.420   3.425  0.0982 -0.2744 -0.2235
  151ACH    OOH  151   1.692   0.341   3.376 -0.1219  0.1152  0.1539
  152ACH    OOH  152   6.340   5.008   6.043  0.0918  0.2271 -0.0561
  153ACH    OOH  153   0.826   5.123   4.936  0.2503  0.0123  0.0148
  154ACH    OOH  154   0.427   2.336   2.032  0.0689 -0.1720 -0.1868
  155ACH    OOH  155   4.689   1.845   0.900  0.2686 -0.1324 -0.1439
  156ACH    OOH  156   4.403   0.922   6.223 -0.0871 -0.2915 -0.0011
  157ACH    OOH  157   2.575   5.365   4.726  0.1354  0.0689  0.1003
  158ACH    OOH  158   5.683   1.170   2.814 -0.1416  0.1525  0.2035
  159ACH    OOH  159   1.871   5.985   0.127  0.1605 -0.1145  0.0773
  160ACH    OOH  160   5.385   3.480   4.059  0.2107 -0.0387  0.0828
  161ACH    OOH  161   6.020   4.976   0.433  0.0331 -0.0281  0.1701
  162ACH    OOH  162   1.819   4.745   1.838 -0.5026  0.0819 -0.0884
  163ACH    OOH  163   4.680   4.152   0.140 -0.3310  0.1863 -0.0947
  164ACH    OOH  164   4.730   3.599   0.155  0.3235  0.1779  0.0016
  165ACH    OOH  165   3.778   5.499   2.742 -0.1615 -0.3454 -0.0096
  166ACH    OOH  166   5.431   5.246   2.035 -0.3110  0.1288  0.1422
  167ACH    OOH  167   2.440   3.769   3.337 -0.3103  0.0920 -0.2429
  168ACH    OOH  168   4.879   0.761   0.051  0.0248 -0.0648  0.0440
  169ACH    OOH  169   5.647   0.502   1.839 -0.1618  0.1016 -0.2182
  170ACH    OOH  170   5.810   3.099   6.248 -0.0168 -0.1620  0.0039
  171ACH    OOH  171   5.484   2.041   2.364 -0.1286 -0.2617  0.0871
  172ACH    OOH  172   1.173   3.729   2.641  0.2517 -0.2053  0.0227
  173ACH    OOH  173   2.212   3.973   3.722 -0.1192 -0.3021 -0.1140
  174ACH    OOH  174   5.287   5.916   3.757 -0.1950 -0.0276 -0.1452
  175ACH    OOH  175   0.900   0.761   6.169  0.2686  0.2628  0.2277
  176ACH    OOH  176   3.332   4.784   0.201 -0.0703 -0.2511 -0.5701
  177ACH    OOH  177   1.162   1.189   3.008  0.2116 -0.0284 -0.1208
  178ACH    OOH  178   2.682   1.042   0.793 -0.1942  0.1112 -0.1658
  179ACH    OOH  179   1.571   0.992   4.560  0.1374 -0.2745  0.0734
  180ACH    OOH  180   4.035   2.684   6.179  0.0928 -0.0649  0.1490
  181ACH    OOH  181   5.420   1.568   3.032 -0.0395  0.2296 -0.4390
  182ACH    OOH  182   0.076   2.079   2.318  0.1349  0.0466 -0.1340
  183ACH    OOH  183   4.582   1.450   3.902 -0.3123  0.1731  0.2323
  184ACH    OOH  184   2.652   3.041   2.212  0.1046  0.1377 -0.1699
  185ACH    OOH  185   4.607   6.338   3.774  0.1831 -0.0050 -0.1693
  186ACH    OOH  186   4.357   1.373   6.113  0.2075 -0.0982 -0.2864
  187ACH    OOH  187   5.476   3.519   6.102 -0.1251 -0.1871 -0.1611
  188ACH    OOH  188   4.290   0.396   3.938  0.0304 -0.1389 -0.0419
  189ACH    OOH  189   4.154   3.645   4.746  0.1732  0.0018 -0.3093
  190ACH    OOH  190   0.385   2.426   3.352  0.2615 -0.1265 -0.1339
  191ACH    OOH  191   3.457   3.956   0.891 -0.0455 -0.1169  0.0176
  192ACH    OOH  192   6.101   5.729   2.900 -0.2609 -0.0930  0.2933
  193ACH    OOH  193   1.524   5.584   5.249  0.0400 -0.2246  0.0308
  194ACH    OOH  194   4.257   3.595   0.212  0.0344  0.2771 -0.2440
  195ACH    OOH  195   2.578   4.194   0.012  0.0893  0.1651  0.0251
  196ACH    OOH  196   5.923   5.931   5.529  0.2391  0.2075  0.0682
  197ACH    OOH  197   1.732   5.380   0.983  0.1598  0.0917 -0.1199
  198ACH    OOH  198   4.592   3.122   0.043 -0.2155 -0.1367 -0.2554
  199ACH    OOH  199   6.088   0.009   1.802  0.1740  0.1341 -0.2904
  200ACH    OOH  200   1.110   2.710   0.635  0.3383 -0.1956 -0.3514
  201ACH    OOH  201   4.937   1.406   2.099 -0.0440  0.0725 -0.0803
  202ACH    OOH  202   3.073   5.403   0.747  0.0821  0.0147  0.0913
  203ACH    OOH  203   1.267   0.015   5.611  0.1320 -0.1944 -0.1798
  204ACH    OOH  204   5.667   1.490   0.666  0.0436  0.1110  0.1250
  205ACH    OOH  205   5.148   2.445   3.543  0.1083  0.1451  0.3687
  206ACH    OOH  206   2.699   1.848   5.934  0.2645 -0.0095  0.0908
  207ACH    OOH  207   0.245   2.465   0.606  0.3249  0.1597 -0.3310
  208ACH    OOH  208   1.465   1.560   0.155  0.2211 -0.1779 -0.0022
  209ACH    OOH  209   3.313   1.522   4.998  0.0531  0.1611 -0.1671
  210ACH    OOH  210   0.932   6.120   4.764  0.0286  0.2710  0.0527
  211ACH    OOH  211   1.683   2.740   5.713 -0.2560  0.0963  0.0621
  212ACH    OOH  212   2.660   6.179   0.233  0.0857  0.3313 -0.1721
  213ACH    OOH  213   0.653   2.886   3.348  0.0807  0.1389 -0.1309
  214ACH    OOH  214   4.031   0.697   4.530 -0.1934 -0.0263 -0.1665
  215ACH    OOH  215   5.821   0.472   0.448  0.2547  0.0071 -0.1820
  216ACH    OOH  216   3.392   6.207   5.452 -0.0511  0.0792  0.1950
  217ACH    OOH  217   0.120   4.832   0.173  0.2295  0.0572  0.2022
  218ACH    OOH  218   5.561   2.077   2.902  0.0689  0.4067 -0.0186
  219ACH    OOH  219   3.541   2.345   6.264 -0.1349 -0.0596  0.0578
  220ACH    OOH  220   5.158   1.454   4.501  0.1016  0.0984  0.0704
  221ACH    OOH  221   3.218   5.099   3.961  0.2782 -0.1589  0.4090
  222ACH    OOH  222   6.313   1.441   4.617 -0.3588  0.0868  0.1192
  223ACH    OOH  223   2.510   5.487   4.098 -0.3868 -0.2640  0.2434
  224ACH    OOH  224   2.557   3.055   4.991 -0.0791  0.2407  0.0346
  225ACH    OOH  225   0.542   1.045   5.446 -0.3190 -0.0738 -0.1878
  226ACH    OOH  226   2.369   4.358   5.539  0.1477 -0.0734 -0.2599
  227ACH    OOH  227   0.484   4.519   1.570 -0.2490 -0.2661  0.1159
  228ACH    OOH  228   6.184   3.356   5.316 -0.0692  0.0214 -0.2445
  229ACH    OOH  229   0.367   2.854   4.201 -0.2691 -0.0176 -0.0699
  230ACH    OOH  230   3.901   4.189   1.099  0.3066 -0.2101  0.0494
  231ACH    OOH  231   4.118   2.897   5.397  0.1583 -0.4442  0.1448
  232ACH    OOH  232   3.429   3.333   2.982 -0.0674  0.0021 -0.1506
  233ACH    OOH  233   1.174   1.929   1.916  0.3258  0.0667 -0.1757
  234ACH    OOH  234   3.829   0.602   5.021  0.0676 -0.0970  0.1562
  235ACH    OOH  235   4.990   3.662   2.733 -0.0622 -0.1664 -0.1857
  236ACH    OOH  236   4.333   0.235   3.456  0.0634 -0.0444 -0.2759
  237ACH    OOH  237   5.484   2.235   5.349  0.0155  0.4880  0.2760
  238ACH    OOH  238   4.404   0.565   0.260 -0.1249 -0.0851  0.2264
  239ACH    OOH  239   2.235   3.017   5.399  0.0377 -0.0508  0.0851
  240ACH    OOH  240   3.375   0.481   4.214  0.0528 -0.0283 -0.0148
  241ACH    OOH  241   4.757   2.550   4.493 -0.1339 -0.0805  0.2934
  242ACH    OOH  242   1.036   5.663   3.758 -0.0057 -0.2617  0.0861
  243ACH    OOH  243   3.446   2.209   0.903 -0.0710  0.0954  0.1074
  244ACH    OOH  244   5.893   4.270   5.434  0.0915  0.1137 -0.1191
  245ACH    OOH  245   0.026   3.466   2.936  0.3752 -0.1554  0.1238
  246ACH    OOH  246   1.548   0.547   1.997  0.0625  0.3101 -0.1309
  247ACH    OOH  247   1.213   0.667   4.790  0.5333  0.0877  0.3027
  248ACH    OOH  248   1.659   2.323   3.569 -0.1965 -0.1901  0.0859
  249ACH    OOH  249   0.901   1.228   5.908 -0.0391  0.0193  0.3549
  250ACH    OOH  250   5.555   0.064   4.108  0.0406  0.1682 -0.0190
  251ACH    OOH  251   5.641   4.355   0.730 -0.0164  0.1620  0.1970
  252ACH    OOH  252   3.912   0.615   0.781 -0.0741 -0.0480  0.0079
  253ACH    OOH  253   2.315   6.057   5.620  0.0273  0.2303 -0.0734
  254ACH    OOH  254   2.748   5.298   3.698  0.0077 -0.2501 -0.0721
  255ACH    OOH  255   4.623   5.335   0.883 -0.0802  0.1614  0.0615
  256ACH    OOH  256   5.396   3.193   0.152 -0.1197 -0.4224  0.0414
  257ACH    OOH  257   5.802   2.573   5.073  0.1622 -0.1754  0.3656
  258ACH    OOH  258   3.507   6.103   4.706  0.1395 -0.2246 -0.0253
  259ACH    OOH  259   2.961   5.850   5.415 -0.2407 -0.1015  0.2023
  260ACH    OOH  260   1.761   2.739   3.203  0.0708  0.1940  0.0649
  261ACH    OOH  261   0.885   0.895   5.127 -0.0281  0.0424 -0.0487
  262ACH    OOH  262   1.430   2.597   2.811  0.0294 -0.0375 -0.1040
  263ACH    OOH  263   2.828   1.481   5.041  0.3006 -0.0053 -0.3374
  264ACH    OOH  264   5.273   2.942   0.646  0.0413  0.0722 -0.0855
  265ACH    OOH  265   3.160   3.751   2.619  0.0374 -0.3177 -0.1506
  266ACH    OOH  266   5.615   0.716   5.301  0.1893  0.0691 -0.1470
  267ACH    OOH  267   2.847   5.897   2.114 -0.2364  0.0997  0.3504
  268ACH    OOH  268   3.600   2.843   6.332  0.1398 -0.2223  0.2979
  269ACH    OOH  269   5.103   6.233   4.094 -0.0121  0.1095 -0.4316
  270ACH    OOH  270   0.715   0.393   0.357 -0.0416 -0.2502 -0.1422
  271ACH    OOH  271   0.102   3.332   4.963 -0.2889  0.1233  0.1692
  272ACH    OOH  272   4.222   0.485   2.081 -0.2629  0.2086  0.2736
  273ACH    OOH  273   1.512   4.793   1.054  0.5099  0.1106 -0.1160
  274ACH    OOH  274   5.080   3.454   2.277 -0.0095  0.3648  0.0554
  275ACH    OOH  275   1.564   4.279   4.592 -0.0029 -0.0038  0.1716
  276ACH    OOH  276   3.016   3.157   3.131  0.0599  0.2665 -0.5017
  277ACH    OOH  277   3.560   0.399   6.097 -0.2344  0.3049  0.0643
  278ACH    OOH  278   5.520   3.618   2.549 -0.0860  0.4593 -0.1279
  279ACH    OOH  279   3.350   4.254   4.443 -0.0582  0.2278  0.0536
  280ACH    OOH  280   4.613   4.661   1.649  0.0158  0.0462 -0.2345
  281ACH    OOH  281   1.744   5.585   1.667  0.0532 -0.3159  0.0677
  282ACH    OOH  282   1.455   1.753   4.922 -0.2237  0.1343  0.2305
  283ACH    OOH  283   3.041   2.879   5.209 -0.0270  0.3076  0.1854
  284ACH    OOH  284   1.336   2.279   3.163  0.0431  0.0062  0.0301
  285ACH    OOH  285   3.004   4.344   4.872  0.1978  0.1606  0.2052
  286ACH    OOH  286   0.993   2.252   0.705  0.0192  0.2645 -0.1136
  287ACH    OOH  287   0.308   6.145   1.943  0.3263  0.0230 -0.0249
  288ACH    OOH  288   3.256   5.025   5.261 -0.3947 -0.0462  0.1352
  289ACH    OOH  289   0.652   4.711   0.630 -0.1832  0.2152 -0.0225
  290ACH    OOH  290   0.683   3.284   4.216  0.1093 -0.0508  0.0939
  291ACH    OOH  291   3.153   0.094   0.570 -0.2719 -0.2761 -0.4878
  292ACH    OOH  292   2.582   1.511   5.504 -0.0942  0.2960  0.1198
  293ACH    OOH  293   1.000   2.120   5.354 -0.2892 -0.0632  0.1830
  294ACH    OOH  294   2.953   2.382   2.071 -0.0253  0.2438  0.0746
  295ACH    OOH  295   0.793   4.986   3.413  0.1723  0.1364 -0.0756
  296ACH    OOH  296   0.198   2.647   1.638 -0.3750 -0.1988 -0.2278
  297ACH    OOH  297   4.648   1.303   2.541  0.0037 -0.2905 -0.0008
  298ACH    OOH  298   0.051   4.511   4.631 -0.0102 -0.1169  0.4062
  299ACH    OOH  299   5.966   6.198   2.691 -0.3064  0.2388 -0.2859
  300ACH    OOH  300   6.263   5.360   1.728 -0.1593  0.0718  0.0033
  301ACH    OOH  301   5.644   0.289   2.715 -0.3138 -0.0031 -0.0814
  302ACH    OOH  302   6.114   4.503   0.361 -0.3559  0.1735  0.1309
  303ACH    OOH  303   4.935   2.989   5.719 -0.3893 -0.2713  0.1126
  304ACH    OOH  304   0.731   0.471   4.948  0.1341  0.0118  0.0952
  305ACH    OOH  305   2.859   2.682   6.009 -0.0353 -0.0473  0.1115
  306ACH    OOH  306   4.198   4.613   4.333  0.1278  0.0547  0.4365
  307ACH    OOH  307   0.552   0.513   2.357 -0.0917  0.2611  0.1137
  308ACH    OOH  308   4.793   4.845   3.612 -0.1602 -0.0143 -0.1897
  309ACH    OOH  309   3.386   4.887   1.502  0.2453  0.0019  0.0108
  310ACH    OOH  310   1.558   3.253   5.746 -0.1540 -0.1982  0.0641
  311ACH    OOH  311   2.005   0.155   5.566  0.0617  0.2375  0.1146
  312ACH    OOH  312   2.263   1.567   4.092 -0.2729 -0.1950 -0.0472
  313ACH    OOH  313   2.719   5.910   0.741  0.1408  0.1262 -0.0805
  314ACH    OOH  314   0.015   5.210   5.174 -0.2459 -0.2891  0.0841
  315ACH    OOH  315   0.873   4.146   0.890  0.2194 -0.1064 -0.0576
  316ACH    OOH  316   2.624   2.332   6.231  0.1202 -0.1493 -0.2572
  317ACH    OOH  317   2.688   4.276   3.868  0.0482  0.1380  0.3536
  318ACH    OOH  318   0.631   0.259   3.551  0.1448 -0.0193 -0.2013
  319ACH    OOH  319   2.274   4.555   3.795 -0.0151 -0.0859 -0.0027
  320ACH    OOH  320   3.025   6.036   6.219  0.1402 -0.1458 -0.0103
  321ACH    OOH  321   0.876   3.100   0.912  0.2660  0.0250 -0.1231
  322ACH    OOH  322   4.041   2.416   2.591  0.0621 -0.2817  0.1585
  323ACH    OOH  323   2.100   0.803   4.536  0.2073  0.5201  0.1322
  324ACH    OOH  324   5.642   4.661   0.319 -0.0754 -0.0838 -0.0994
  325ACH    OOH  325   4.058   3.907   3.702 -0.0211  0.2236 -0.0120
  326ACH    OOH  326   4.716   3.106   4.672 -0.1654  0.2950 -0.3927
  327ACH    OOH  327   1.441   1.298   5.075 -0.0328  0.3220 -0.0653
  328ACH    OOH  328   0.734   2.320   3.055  0.0562 -0.3076 -0.1579
  329ACH    OOH  329   6.341   0.516   0.514  0.2543 -0.0396 -0.0129
  330ACH    OOH  330   2.175   5.674   4.696 -0.0231 -0.0347 -0.1482
  331ACH    OOH  331   0.376   5.969   4.617 -0.0623  0.0385  0.0569
  332ACH    OOH  332   3.534   0.945   4.753 -0.3365 -0.1237  0.1542
  333ACH    OOH  333   0.136   1.822   4.965 -0.1506 -0.3167  0.1434
  334ACH    OOH  334   4.414   0.988   2.220 -0.0608  0.0894  0.1956
  335ACH    OOH  335   5.995   5.395   6.113 -0.0923  0.0626 -0.2340
  336ACH    OOH  336   3.246   3.446   5.069  0.3358  0.1337  0.0602
  337ACH    OOH  337   0.679   6.069   0.075 -0.1574 -0.0922  0.1856
  338ACH    OOH  338   5.754   5.380   2.670 -0.0089  0.1711 -0.1188
  339ACH    OOH  339   2.960   5.024   2.565  0.2061  0.1837  0.1211
  340ACH    OOH  340   1.812   5.187   0.117  0.0620 -0.1533 -0.0842
  341ACH    OOH  341   3.225   4.654   6.071  0.1316  0.0115  0.0300
  342ACH    OOH  342   3.848   5.001   2.762  0.0658  0.0959  0.1325
  343ACH    OOH  343   2.024   3.273   4.967  0.0903 -0.3517 -0.3090
  344ACH    OOH  344   2.519   4.137   4.685  0.1309  0.1537  0.0372
  345ACH    OOH  345   5.738   5.567   4.496 -0.0094  0.1696 -0.1782
  346ACH    OOH  346   1.029   3.829   3.356  0.0968 -0.1417  0.0776
  347ACH    OOH  347   2.953   1.031   3.185  0.1997 -0.3773  0.0053
  348ACH    OOH  348   1.797   0.731   1.524  0.2619  0.3577 -0.2649
  349ACH    OOH  349   4.247   2.639   4.349  0.0325  0.3330  0.1301
  350ACH    OOH  350   5.405   5.866   4.261  0.1938  0.0612  0.1379
  351ACH    OOH  351   3.824   3.956   5.575 -0.0449 -0.0350 -0.2416
  352ACH    OOH  352   0.991   2.261   1.235 -0.0279  0.2837  0.4451
  353ACH    OOH  353   4.487   3.586   3.693 -0.2094  0.2039 -0.1536
  354ACH    OOH  354   0.981   1.747   5.638 -0.5803  0.1645 -0.2085
  355ACH    OOH  355   1.673   3.017   5.233 -0.5149 -0.1276  0.0464
  356ACH    OOH  356   0.921   0.298   4.435  0.0995 -0.2923 -0.0224
  357ACH    OOH  357   0.710   1.011   2.280 -0.0456  0.1108 -0.1820
  358ACH    OOH  358   3.146   1.044   1.146  0.3176 -0.3558  0.5561
  359ACH    OOH  359   2.692   3.837   5.617  0.1586  0.1868 -0.0457
  360ACH    OOH  360   4.130   0.982   3.076 -0.2986 -0.2296 -0.0775
  361ACH    OOH  361   2.233   2.037   5.981 -0.0775 -0.0106  0.0082
  362ACH    OOH  362   1.641   5.266   2.160  0.3275  0.0627 -0.1687
  363ACH    OOH  363   1.884   4.001   3.222  0.0540  0.6314 -0.1121
  364ACH    OOH  364   2.013   4.056   4.585 -0.2355 -0.0584 -0.0671
  365ACH    OOH  365   4.003   5.246   3.171 -0.0513 -0.1438  0.0706
  366ACH    OOH  366   2.324   5.939   6.233 -0.0651  0.1590  0.0094
  367ACH    OOH  367   3.272   3.716   3.593  0.0440 -0.1950  0.0286
  368ACH    OOH  368   4.013   4.045   4.985  0.0298  0.0216 -0.1347
  369ACH    OOH  369   2.541   1.262   2.096 -0.0805  0.0205  0.0319
  370ACH    OOH  370   4.199   2.717   1.775  0.1826 -0.0081 -0.1421
  371ACH    OOH  371   3.605   1.190   0.935  0.1413  0.2736  0.1636
  372ACH    OOH  372   1.748   1.887   1.978 -0.0396 -0.1328 -0.0157
  373ACH    OOH  373   4.972   1.974   2.182  0.1913 -0.1893  0.1268
  374ACH    OOH  374   5.776   1.775   1.132 -0.0198  0.2621  0.0328
  375ACH    OOH  375   2.895   1.532   6.321  0.4094 -0.1404 -0.0034
  376ACH    OOH  376   4.064   5.083   1.311 -0.1757  0.0738 -0.1581
  377ACH    OOH  377   0.882   4.015   6.289 -0.0624  0.1532 -0.0843
  378ACH    OOH  378   2.771   4.792   4.656 -0.2009  0.1728  0.2303
  379ACH    OOH  379   2.461   6.254   2.284 -0.0293  0.0848  0.2469
  380ACH    OOH  380   6.201   2.210   0.710  0.0158  0.0811  0.4250
  381ACH    OOH  381   5.610   4.993   2.942  0.1503  0.2624  0.0842
  382ACH    OOH  382   4.757   4.365   0.611  0.2075 -0.0731 -0.0385
  383ACH    OOH  383   2.671   2.912   5.560 -0.1518 -0.1896 -0.1140
  384ACH    OOH  384   2.022   2.069   2.398 -0.0201  0.1222  0.2180
  385ACH    OOH  385   3.076   1.717   5.473  0.0604 -0.0988 -0.1594
  386ACH    OOH  386   3.164   3.419   1.514 -0.2269 -0.1852 -0.0551
  387ACH    OOH  387   2.215   4.645   2.958  0.2273 -0.3033 -0.0142
  388ACH    OOH  388   3.390   5.907   5.851  0.0726  0.1221 -0.0228
  389ACH    OOH  389   4.459   1.795   5.144  0.1985  0.0078  0.1242
  390ACH    OOH  390   6.357   5.288   0.143 -0.2797  0.1748  0.2432
  391ACH    OOH  391   4.464   1.570   0.496 -0.0429 -0.0369  0.0903
  392ACH    OOH  392   3.294   5.736   2.012 -0.0639 -0.3150 -0.0343
  393ACH    OOH  393   5.896   3.292   1.921  0.2869 -0.2026 -0.2318
  394ACH    OOH  394   2.215   1.015   1.632 -0.0269  0.1018 -0.2787
  395ACH    OOH  395   1.183   5.008   3.072  0.0244 -0.0322 -0.0572
  396ACH    OOH  396   1.647   4.777   4.848  0.0831  0.1022 -0.0117
  397ACH    OOH  397   5.380   2.819   6.129 -0.1095  0.0765  0.0315
  398ACH    OOH  398   4.190   4.591   6.243 -0.0107  0.0967 -0.2098
  399ACH    OOH  399   5.836   3.973   5.050  0.2539 -0.3598  0.1136
  400ACH    OOH  400   4.549   2.263   3.480 -0.2642 -0.1808  0.0449
  401ACH    OOH  401   2.792   1.819   2.264 -0.0504 -0.4231 -0.2060
  402ACH    OOH  402   5.424   4.172   4.890  0.3818 -0.4311  0.2345
  403ACH    OOH  403   4.220   0.465   5.291  0.1750  0.0749 -0.0673
  404ACH    OOH  404   3.552   2.526   0.433 -0.0043 -0.1270 -0.2235
  405ACH    OOH  405   0.818   6.157   3.936  0.1705 -0.1461  0.2390
  406ACH    OOH  406   2.955   6.225   1.103 -0.2051 -0.3567 -0.1365
  407ACH    OOH  407   0.424   4.068   6.089  0.1725  0.1726  0.2218
  408ACH    OOH  408   0.083   4.599   1.294  0.2049  0.4690 -0.1110
  409ACH    OOH  409   2.360   0.427   4.588  0.2158  0.0008 -0.0990
  410ACH    OOH  410   5.780   0.711   4.856 -0.1173  0.0144 -0.2639
  411ACH    OOH  411   1.361   4.822   2.033 -0.1400  0.2077 -0.1430
  412ACH    OOH  412   6.218   5.026   1.348 -0.1367 -0.0913  0.0634
  413ACH    OOH  413   1.654   3.525   2.842  0.0729  0.0580 -0.1815
  414ACH    OOH  414   1.345   3.397   5.292  0.0645  0.0412 -0.1282
  415ACH    OOH  415   5.249   0.567   1.090 -0.1739 -0.3389  0.3237
  416ACH    OOH  416   2.261   1.659   2.170  0.0222  0.2630  0.0002
  417ACH    OOH  417   4.495   4.070   3.503  0.0488  0.3577  0.0940
  418ACH    OOH  418   0.267   4.677   3.602 -0.2583 -0.1128 -0.0465
  419ACH    OOH  419   5.458   1.637   4.878  0.0692 -0.0305 -0.0758
  420ACH    OOH  420   4.149   0.010   2.941  0.0319 -0.0500 -0.0340
  421ACH    OOH  421   4.710   5.211   2.885 -0.1503  0.0725  0.0101
  422ACH    OOH  422   5.997   1.928   5.004 -0.0436 -0.1210 -0.1983
  423ACH    OOH  423   5.978   4.730   3.135 -0.0823 -0.1690 -0.0023
  424ACH    OOH  424   2.847   5.289   5.579 -0.2216 -0.0485 -0.1234
  425ACH    OOH  425   5.284   5.803   1.875 -0.3615  0.0812 -0.0069
  426ACH    OOH  426   1.834   4.060   2.199 -0.2556 -0.4628  0.0926
  427ACH    OOH  427   6.072   0.872   0.216 -0.3529 -0.0293 -0.0485
  428ACH    OOH  428   4.432   1.557   1.373 -0.1370 -0.1069  0.1053
  429ACH    OOH  429   3.534   0.366   3.240  0.0703 -0.1286 -0.0732
  430ACH    OOH  430   4.977   5.126   1.874  0.0492 -0.0032 -0.1394
  431ACH    OOH  431   3.523   2.494   4.965  0.1730  0.3559 -0.0450
  432ACH    OOH  432   1.322   4.358   1.138 -0.0396  0.3921 -0.2677
  433ACH    OOH  433   0.876   1.522   2.161  0.2098  0.3011 -0.1752
  434ACH    OOH  434   0.004   1.357   5.791  0.0199  0.0033  0.0662
  435ACH    OOH  435   0.956   1.928   3.158 -0.0819 -0.0385 -0.4842
  436ACH    OOH  436   2.720   3.406   1.201 -0.1230  0.1474  0.0899
  437ACH    OOH  437   1.172   2.233   4.842 -0.0707  0.0502 -0.0506
  438ACH    OOH  438   1.693   2.961   4.097  0.2312  0.0031 -0.2458
  439ACH    OOH  439   4.884   3.308   1.865  0.2309  0.3271 -0.0501
  440ACH    OOH  440   1.157   2.724   1.121  0.3774 -0.0350 -0.1376
  441ACH    OOH  441   0.015   1.211   1.606 -0.1726  0.2269  0.0265
  442ACH    OOH  442   3.205   1.267   4.002 -0.0787  0.0419 -0.1795
  443ACH    OOH  443   0.196   2.762   3.730  0.3485 -0.0634 -0.1158
  444ACH    OOH  444   1.102   4.336   4.337  0.3131 -0.1928 -0.0128
  445ACH    OOH  445   0.601   5.361   1.883 -0.1152 -0.0335  0.0925
  446ACH    OOH  446   4.065   3.224   6.198 -0.1940 -0.1412  0.0205
  447ACH    OOH  447   5.147   2.381   0.532 -0.0939 -0.2226  0.0148
  448ACH    OOH  448   4.575   1.159   4.323 -0.1819 -0.1300  0.0150
  449ACH    OOH  449   3.360   3.731   4.231 -0.1620  0.2603 -0.2667
  450ACH    OOH  450   3.645   5.822   1.132  0.0129 -0.3014  0.1176
  451ACH    OOH  451   1.463   2.091   3.989  0.0574 -0.0934 -0.1227
  452ACH    OOH  452   6.362   5.169   0.805 -0.0280 -0.1588  0.0517
  453ACH    OOH  453   3.724   6.296   3.237  0.0243 -0.1178  0.1106
  454ACH    OOH  454   0.762   5.848   1.960  0.2250  0.3758  0.0584
  455ACH    OOH  455   1.928   0.562   5.340 -0.0063 -0.2235 -0.0488
  456ACH    OOH  456   3.359   4.417   1.103  0.1381  0.0067 -0.0708
  457ACH    OOH  457   2.061   0.440   6.040 -0.0825 -0.0256 -0.1748
  458ACH    OOH  458   2.756   0.903   2.640 -0.0110  0.1555  0.0332
  459ACH    OOH  459   5.001   0.572   4.479  0.2543  0.1829  0.2315
  460ACH    OOH  460   2.500   0.784   3.534  0.0794 -0.0530 -0.0626
  461ACH    OOH  461   3.898   4.690   5.705 -0.0428  0.0695  0.3448
  462ACH    OOH  462   4.496   1.588   5.572  0.3117 -0.0908 -0.0228
  463ACH    OOH  463   2.786   4.779   6.312  0.0276 -0.0212  0.1967
  464ACH    OOH  464   6.232   4.252   4.163  0.1401  0.0245  0.0505
  465ACH    OOH  465   5.212   0.398   4.084  0.1333 -0.1381 -0.0822
  466ACH    OOH  466   5.481   1.743   5.359 -0.1592 -0.1759 -0.2924
  467ACH    OOH  467   1.517   5.626   6.345  0.0500  0.2270 -0.0032
  468ACH    OOH  468   3.241   0.696   1.528  0.1899 -0.1184 -0.0895
  469ACH    OOH  469   3.731   6.175   3.698  0.0626 -0.2591  0.0609
  470ACH    OOH  470   1.047   4.728   6.325 -0.3358  0.0835 -0.0423
  471ACH    OOH  471   3.093   0.068   3.144 -0.1526  0.4680 -0.0789
  472ACH    OOH  472   1.356   1.131   4.113  0.2104 -0.0058  0.0954
  473ACH    OOH  473   4.490   6.225   5.135  0.1479 -0.1118  0.0621
  474ACH    OOH  474   5.853   2.365   2.217  0.2765  0.2257 -0.2289
  475ACH    OOH  475   4.822   0.391   0.941  0.0344  0.3124 -0.1438
  476ACH    OOH  476   4.141   5.594   2.384 -0.0855  0.0231 -0.0517
  477ACH    OOH  477   2.770   1.983   3.205  0.1744  0.0315 -0.0905
  478ACH    OOH  478   1.867   0.992   5.007 -0.1613  0.1923 -0.0137
  479ACH    OOH  479   0.315   4.972   4.773  0.1933 -0.1066 -0.3539
  480ACH    OOH  480   1.587   0.141   5.276  0.0995  0.2241 -0.0119
  481ACH    OOH  481   0.963   0.720   2.614 -0.1511 -0.1415  0.2137
  482ACH    OOH  482   4.715   6.036   5.577  0.2129 -0.1873 -0.0134
  483ACH    OOH  483   5.268   5.923   5.578 -0.1750  0.3240  0.0299
  484ACH    OOH  484   3.675   3.376   5.483  0.1286 -0.0558 -0.0864
  485ACH    OOH  485   2.779   1.474   2.766 -0.0821 -0.1763 -0.1043
  486ACH    OOH  486   2.124   4.650   4.606 -0.4883  0.0140 -0.0781
  487ACH    OOH  487   5.520   0.821   0.197 -0.3131  0.0734 -0.1591
  488ACH    OOH  488   4.041   5.087   5.934  0.3904 -0.0124 -0.0875
  489ACH    OOH  489   3.835   3.372   4.424 -0.2529 -0.1170  0.2620
  490ACH    OOH  490   5.008   1.440   3.313  0.3881 -0.0663  0.2677
  491ACH    OOH  491   0.944   3.149   0.358 -0.2386 -0.1177  0.2840
  492ACH    OOH  492   1.875   4.944   0.760 -0.0276  0.0553  0.1603
  493ACH    OOH  493   5.044   4.966   5.540  0.2202 -0.0225 -0.3454
  494ACH    OOH  494   2.796   0.571   2.989 -0.0445  0.1671  0.0547
  495ACH    OOH  495   2.888   5.432   2.255 -0.0125 -0.0733  0.0413
  496ACH    OOH  496   4.223   5.940   5.518 -0.2673 -0.0295 -0.0236
  497ACH    OOH  497   1.392   0.838   5.225  0.0397  0.1827 -0.5259
  498ACH    OOH  498   1.272   0.682   0.741  0.2379  0.0724  0.1030
  499ACH    OOH  499   4.862   5.244   1.310  0.0492 -0.1958 -0.0864
  500ACH    OOH  500   1.434   0.416   4.313  0.2538  0.0466 -0.0613
  501ACH    OOH  501   2.076   5.024   2.538  0.0714 -0.0950 -0.0337
  502ACH    OOH  502   4.573   3.044   1.567  0.1869  0.0492 -0.0291
  503ACH    OOH  503   5.459   3.719   5.634 -0.2731  0.1776  0.0006
  504ACH    OOH  504   2.397   4.010   1.907 -0.0427 -0.3608  0.1350
  505ACH    OOH  505   1.046   1.488   6.264  0.0315 -0.2585  0.1413
  506ACH    OOH  506   0.710   4.873   5.685 -0.1182 -0.1634 -0.1406
  507ACH    OOH  507   1.113   3.789   0.336  0.2339 -0.0475  0.0818
  508ACH    OOH  508   0.737   1.827   1.199  0.1117  0.1432  0.1316
  509ACH    OOH  509   0.453   0.226   1.846 -0.0420 -0.0816  0.0146
  510ACH    OOH  510   0.196   5.662   0.805  0.1796 -0.1340  0.3514
  511ACH    OOH  511   0.309   5.343   1.272  0.1961 -0.1411  0.0046
  512ACH    OOH  512   0.224   0.832   1.871 -0.1392 -0.1616  0.1998
  513ACH    OOH  513   4.189   6.097   3.451  0.0093  0.0344 -0.0779
  514ACH    OOH  514   3.233   3.566   0.524 -0.0275  0.0558 -0.2174
  515ACH    OOH  515   5.151   5.079   4.803  0.0931  0.0183 -0.3920
  516ACH    OOH  516   3.701   1.861   3.309 -0.3738 -0.3027 -0.0449
  517ACH    OOH  517   4.728   0.455   3.759 -0.0067 -0.0201 -0.0268
  518ACH    OOH  518   0.454   0.721   3.344  0.1987  0.1019 -0.3189
  519ACH    OOH  519   1.509   2.923   0.827 -0.0047 -0.3283  0.0081
  520ACH    OOH  520   4.321   1.622   4.263  0.3166  0.0158  0.2449
  521ACH    OOH  521   0.324   1.588   1.489 -0.0798 -0.1458  0.2895
  522ACH    OOH  522   4.095   3.511   1.023  0.1592 -0.2231  0.1082
  523ACH    OOH  523   0.153   5.719   3.263 -0.0197 -0.1050 -0.2715
  524ACH    OOH  524   0.882   2.512   2.097  0.0064  0.1527  0.4598
  525ACH    OOH  525   5.788   5.994   2.187  0.1558  0.0056 -0.3522
  526ACH    OOH  526   5.211   0.401   1.563 -0.2395  0.2305  0.1811
  527ACH    OOH  527   0.653   4.535   4.596  0.0086 -0.0762  0.0960
  528ACH    OOH  528   4.521   2.651   2.660 -0.1069 -0.3944 -0.0168
  529ACH    OOH  529   3.165   1.665   0.375  0.1370 -0.2208 -0.2784
  530ACH    OOH  530   1.206   5.723   5.781 -0.0695 -0.0421 -0.1313
  531ACH    OOH  531   2.726   4.283   5.899  0.0708 -0.1323  0.0975
  532ACH    OOH  532   3.014   1.398   3.543  0.3323  0.1415 -0.3452
  533ACH    OOH  533   3.391   4.191   2.612 -0.2746  0.1834 -0.0110
  534ACH    OOH  534   0.890   5.866   3.319 -0.2799 -0.0089 -0.1805
  535ACH    OOH  535   4.831   4.347   3.826  0.2727 -0.3863  0.1872
  536ACH    OOH  536   1.615   6.141   1.651 -0.1951 -0.1289  0.0697
  537ACH    OOH  537   1.233   2.641   4.551  0.1936  0.2105 -0.0903
  538ACH    OOH  538   2.110   0.012   3.199 -0.2381 -0.0277 -0.1938
  539ACH    OOH  539   1.635   3.586   3.324 -0.2332  0.0759  0.0735
  540ACH    OOH  540   1.135   0.799   2.153  0.0479  0.1012  0.1114
  541ACH    OOH  541   4.318   4.165   2.432 -0.1079  0.1576  0.4101
  542ACH    OOH  542   0.309   0.070   0.153  0.1837 -0.4064 -0.1399
  543ACH    OOH  543   5.935   5.008   1.807  0.0026 -0.2689 -0.0429
  544ACH    OOH  544   4.552   0.840   2.813 -0.0954 -0.0732 -0.0354
  545ACH    OOH  545   0.221   3.686   0.139 -0.1073 -0.1352  0.1332
  546ACH    OOH  546   1.500   0.463   1.157  0.2726  0.1241  0.1783
  547ACH    OOH  547   2.551   3.870   1.045 -0.2324 -0.2213 -0.0998
  548ACH    OOH  548   1.618   2.785   1.973 -0.4033 -0.1263 -0.0499
  549ACH    OOH  549   0.857   3.951   5.802 -0.0640  0.0390 -0.1733
  550ACH    OOH  550   0.786   5.578   0.397 -0.0249 -0.1040  0.1143
  551ACH    OOH  551   1.604   6.032   5.463  0.3640 -0.2804 -0.2990
  552ACH    OOH  552   4.520   0.723   3.347  0.2304  0.2350 -0.0620
  553ACH    OOH  553   1.890   0.352   0.785  0.1488 -0.1810  0.4002
  554ACH    OOH  554   4.043   3.778   1.511  0.0590 -0.0729 -0.1983
  555ACH    OOH  555   2.392   5.689   3.673  0.0505  0.0855  0.0770
  556ACH    OOH  556   5.058   0.988   5.976  0.3320 -0.1265 -0.1666
  557ACH    OOH  557   1.769   0.605   2.965 -0.2744  0.0747 -0.2311
  558ACH    OOH  558   4.505   1.052   0.374 -0.1267 -0.0867  0.1871
  559ACH    OOH  559   3.744   0.007   5.766 -0.0353 -0.0423 -0.0074
  560ACH    OOH  560   3.808   0.182   5.284 -0.1110 -0.0803  0.1015
  561ACH    OOH  561   3.921   0.979   5.904  0.3666 -0.0157 -0.2352
  562ACH    OOH  562   0.216   5.576   2.789  0.2074  0.0432 -0.1060
  563ACH    OOH  563   4.113   2.928   0.256  0.1440 -0.1494  0.2010
  564ACH    OOH  564   5.072   1.210   0.416 -0.5100 -0.0634 -0.1258
  565ACH    OOH  565   5.333   4.178   1.991 -0.0772 -0.1139 -0.2020
  566ACH    OOH  566   5.797   3.643   3.264  0.0859  0.2314  0.1406
  567ACH    OOH  567   0.676   0.397   2.892 -0.1807  0.0545  0.0330
  568ACH    OOH  568   2.826   0.438   2.397 -0.0401  0.1004  0.4296
  569ACH    OOH  569   4.816   5.932   3.465  0.0159  0.0118  0.1692
  570ACH    OOH  570   5.785   2.522   6.224 -0.0575 -0.1775 -0.1081
  571ACH    OOH  571   4.222   4.832   3.887 -0.3607  0.1334  0.3316
  572ACH    OOH  572   1.789   1.884   1.386  0.1214  0.2169 -0.1224
  573ACH    OOH  573   1.927   0.147   1.777 -0.1859  0.2305 -0.0994
  574ACH    OOH  574   2.423   4.473   1.681  0.1432 -0.0674  0.2495
  575ACH    OOH  575   2.834   4.795   5.184 -0.0285 -0.0614 -0.1471
  576ACH    OOH  576   4.603   2.562   3.885 -0.1972 -0.2488  0.2184
  577ACH    OOH  577   4.985   0.855   4.032  0.2542 -0.0118 -0.0256
  578ACH    OOH  578   0.536   0.291   4.127  0.1443  0.0491  0.1733
  579ACH    OOH  579   0.263   2.139   1.502 -0.0673 -0.1359  0.2256
  580ACH    OOH  580   3.928   3.240   5.073 -0.0375 -0.1016 -0.4649
  581ACH    OOH  581   2.225   0.952   6.341 -0.0208 -0.1196 -0.0982
  582ACH    OOH  582   1.808   2.521   2.492  0.1761  0.2535 -0.2066
  583ACH    OOH  583   2.884   0.571   5.257 -0.1928  0.1390 -0.0986
  584ACH    OOH  584   2.882   3.902   0.312  0.2961 -0.0185 -0.0366
  585ACH    OOH  585   0.158   4.675   5.139 -0.5359 -0.1804 -0.1088
  586ACH    OOH  586   0.119   2.246   3.739 -0.2765  0.2255  0.0452
  587ACH    OOH  587   2.605   3.775   2.827 -0.2064  0.0241  0.1771
  588ACH    OOH  588   0.294   4.779   4.245 -0.1800  0.0199 -0.3134
  589ACH    OOH  589   4.136   0.562   2.596  0.0958  0.0597 -0.1792
  590ACH    OOH  590   4.142   5.967   1.182 -0.0555 -0.1099 -0.1410
  591ACH    OOH  591   4.273   0.019   5.647  0.1923  0.2190  0.2541
  592ACH    OOH  592   1.044   4.800   4.116  0.0803 -0.0186 -0.1338
  593ACH    OOH  593   3.261   1.840   5.991 -0.0020 -0.1741 -0.0781
  594ACH    OOH  594   6.068   2.079   4.112 -0.1985  0.0184 -0.0296
  595ACH    OOH  595   2.336   6.101   2.785  0.2483  0.0764  0.1315
  596ACH    OOH  596   5.122   0.087   4.524  0.2638  0.1758 -0.0282
  597ACH    OOH  597   2.958   4.062   2.284  0.3250  0.0218  0.1419
  598ACH    OOH  598   4.591   3.475   2.939  0.0527 -0.1102 -0.0197
  599ACH    OOH  599   3.076   4.328   3.570 -0.1865 -0.0616  0.0058
  600ACH    OOH  600   2.417   2.190   0.837 -0.3063  0.3588  0.1258
  601ACH    OOH  601   2.253   2.712   2.530 -0.0280 -0.0999 -0.0078
  602ACH    OOH  602   6.018   2.737   1.732 -0.0026 -0.1096 -0.4236
  603ACH    OOH  603   4.180   0.989   5.473 -0.0577  0.1709  0.1131
  604ACH    OOH  604   2.967   6.143   1.617  0.2045  0.1531 -0.0205
  605ACH    OOH  605   0.087   4.214   5.424  0.0719  0.0099  0.0046
  606ACH    OOH  606   0.937   0.775   3.131  0.0420 -0.4053  0.0071
  607ACH    OOH  607   1.166   5.593   4.868  0.2640  0.1024 -0.1934
  608ACH    OOH  608   0.956   0.307   1.852  0.1561  0.0508  0.0175
  609ACH    OOH  609   1.088   6.174   6.061 -0.1033  0.1663 -0.1260
  610ACH    OOH  610   2.261   0.678   3.119  0.1522 -0.0990 -0.2570
  611ACH    OOH  611   2.155   3.944   0.773  0.3511 -0.1498  0.0613
  612ACH    OOH  612   6.192   4.303   5.003  0.0677  0.1248 -0.0919
  613ACH    OOH  613   6.005   4.473   1.506  0.1244 -0.2606 -0.0496
  614ACH    OOH  614   4.807   1.740   4.352 -0.0086 -0.2827 -0.2899
  615ACH    OOH  615   1.568   2.302   1.689  0.1228  0.1048  0.0244
  616ACH    OOH  616   4.887   4.261   3.312 -0.1408  0.1690 -0.0588
  617ACH    OOH  617   0.783   1.637   2.758 -0.0389 -0.0891 -0.0332
  618ACH    OOH  618   4.506   6.073   1.483  0.0318 -0.1123 -0.1239
  619ACH    OOH  619   2.599   2.332   0.373 -0.1053 -0.2383 -0.0041
  620ACH    OOH  620   1.481   5.844   2.080 -0.1007 -0.0777  0.3028
  621ACH    OOH  621   5.270   6.179   0.425 -0.0342  0.1332 -0.1792
  622ACH    OOH  622   3.882   0.316   1.211 -0.2275 -0.2068  0.2403
  623ACH    OOH  623   4.115   5.556   5.137 -0.0123 -0.0007 -0.2762
  624ACH    OOH  624   3.702   4.372   0.697 -0.1504 -0.2983 -0.1918
  625ACH    OOH  625   3.783   2.622   0.905  0.1170 -0.0220 -0.0947
  626ACH    OOH  626   5.708   6.254   3.659 -0.0209 -0.2710  0.2016
  627ACH    OOH  627   3.438   0.040   1.101  0.0851 -0.2825  0.0924
  628ACH    OOH  628   2.427   2.021   3.999 -0.2699  0.4976 -0.1250
  629ACH    OOH  629   3.375   4.650   4.832 -0.0096 -0.2808  0.0638
  630ACH    OOH  630   0.287   0.183   5.068 -0.1467 -0.1848  0.2568
  631ACH    OOH  631   3.772   3.328   0.260  0.1044 -0.1109  0.1439
  632ACH    OOH  632   5.808   1.170   2.313  0.0630 -0.0263 -0.0908
  633ACH    OOH  633   0.430   0.680   0.036  0.1501  0.2606 -0.1819
  634ACH    OOH  634   4.129   3.292   5.677  0.3104 -0.1518 -0.2137
  635ACH    OOH  635   3.668   5.931   2.368  0.4353  0.0778  0.1531
  636ACH    OOH  636   3.511   5.283   4.381 -0.0909 -0.0682 -0.1239
  637ACH    OOH  637   4.510   5.050   6.174 -0.0271  0.1740 -0.1830
  638ACH    OOH  638   3.548   5.055   3.159 -0.0084  0.0912  0.0146
  639ACH    OOH  639   0.605   1.704   0.158  0.0923 -0.1171 -0.1195
  640ACH    OOH  640   4.211   1.644   2.636 -0.0453 -0.0256  0.0003
  641ACH    OOH  641   1.999   0.307   1.321  0.1312 -0.3684  0.0670
  642ACH    OOH  642   2.734   0.308   0.265 -0.2077 -0.2796 -0.0872
  643ACH    OOH  643   2.861   2.895   3.679 -0.1491  0.0851 -0.0436
  644ACH    OOH  644   1.190   0.411   5.953 -0.1849 -0.2558 -0.0732
  645ACH    OOH  645   4.461   1.905   1.805  0.2192 -0.2333 -0.0865
  646ACH    OOH  646   0.549   0.101   4.596  0.0975  0.0938 -0.0549
  647ACH    OOH  647   0.451   2.282   2.580 -0.1358  0.0287 -0.0875
  648ACH    OOH  648   1.450   1.499   4.476  0.1870  0.2588  0.0433
  649ACH    OOH  649   3.604   5.299   6.360  0.1165  0.1926 -0.0556
  650ACH    OOH  650   3.066   0.363   1.041  0.1815 -0.3723 -0.1587
  651ACH    OOH  651   0.015   3.064   1.848 -0.4348 -0.0108 -0.1159
  652ACH    OOH  652   5.709   5.981   1.667 -0.1811 -0.2889  0.2286
  653ACH    OOH  653   3.259   5.674   2.567 -0.0020  0.1146  0.3502
  654ACH    OOH  654   2.736   2.329   3.544  0.1220  0.0618 -0.2087
  655ACH    OOH  655   4.634   2.674   5.461 -0.5371  0.3221  0.1323
  656ACH    OOH  656   3.199   2.028   1.372  0.3473 -0.2185 -0.0536
  657ACH    OOH  657   3.190   3.033   0.238 -0.1451 -0.0797  0.0984
  658ACH    OOH  658   5.588   4.070   1.594  0.0927  0.0122 -0.1939
  659ACH    OOH  659   4.231   3.877   2.056 -0.0131  0.1124  0.4861
  660ACH    OOH  660   3.304   1.763   4.135 -0.1767  0.2010  0.1515
  661ACH    OOH  661   3.265   2.593   1.177  0.2319 -0.0091  0.0991
  662ACH    OOH  662   4.913   4.816   6.016 -0.1810  0.0668  0.3654
  663ACH    OOH  663   0.539   0.693   5.864 -0.3666  0.0140  0.2423
  664ACH    OOH  664   4.258   4.559   0.971  0.1643  0.1120 -0.1576
  665ACH    OOH  665   4.069   5.867   4.090 -0.0829 -0.3878 -0.1939
  666ACH    OOH  666   0.816   1.983   2.293 -0.0328 -0.1550  0.0560
  667ACH    OOH  667   4.864   1.512   5.934  0.1153 -0.1400  0.0929
  668ACH    OOH  668   0.737   4.479   5.970  0.0316 -0.2307 -0.0347
  669ACH    OOH  669   5.833   5.866   3.396 -0.3882 -0.0242 -0.0473
  670ACH    OOH  670   2.532   0.613   6.137  0.0618 -0.2117 -0.5218
  671ACH    OOH  671   2.583   0.177   2.810 -0.0988  0.4204 -0.0481
  672ACH    OOH  672   5.136   5.107   3.269 -0.0549  0.2481 -0.0001
  673ACH    OOH  673   2.357   5.604   0.893  0.1747  0.3036  0.2639
  674ACH    OOH  674   4.310   0.299   0.689  0.1598  0.4578  0.5304
  675ACH    OOH  675   3.803   5.740   3.447  0.0433 -0.2804  0.2415
  676ACH    OOH  676   5.186   3.098   1.349 -0.0816 -0.0928 -0.0077
  677ACH    OOH  677   5.215   5.405   2.767 -0.0393 -0.2223  0.2966
  678ACH    OOH  678   2.439   0.356   2.050  0.1638  0.0325  0.2455
  679ACH    OOH  679   2.775   4.691   3.056 -0.3623 -0.1725 -0.0541
  680ACH    OOH  680   0.765   3.342   1.939  0.2677 -0.2406  0.0252
  681ACH    OOH  681   1.400   5.740   2.560 -0.0386  0.0393  0.0286
  682ACH    OOH  682   1.984   2.583   5.298  0.3565  0.0572  0.2101
  683ACH    OOH  683   0.436   1.554   2.376 -0.0457  0.1130  0.1994
  684ACH    OOH  684   1.408   2.766   3.607 -0.2995 -0.2055 -0.0907
  685ACH    OOH  685   5.525   5.498   3.574 -0.2664  0.2067 -0.0462
  686ACH    OOH  686   4.230   2.352   4.795 -0.0499 -0.0081 -0.0499
  687ACH    OOH  687   0.612   1.619   5.936  0.0536 -0.0593  0.0926
  688ACH    OOH  688   0.360   2.499   0.086  0.0533 -0.4517 -0.0481
  689ACH    OOH  689   4.636   2.839   2.091 -0.0237 -0.0878 -0.1771
  690ACH    OOH  690   3.976   5.551   4.512  0.0765  0.0459  0.2209
  691ACH    OOH  691   5.312   5.235   1.463 -0.0545  0.0143  0.2248
  692ACH    OOH  692   3.535   6.337   4.149  0.0917  0.0801  0.0698
  693ACH    OOH  693   3.023   4.137   1.292 -0.2497 -0.1574 -0.1891
  694ACH    OOH  694   4.033   1.835   0.019 -0.1433  0.2387  0.0185
  695ACH    OOH  695   5.643   4.665   5.554  0.0525  0.1160  0.0044
  696ACH    OOH  696   3.995   0.950   1.143 -0.1297  0.1120  0.0051
  697ACH    OOH  697   3.726   3.790   1.859 -0.0803 -0.4084 -0.2792
  698ACH    OOH  698   2.288   5.934   4.211  0.0163 -0.1049 -0.0236
  699ACH    OOH  699   4.685   4.271   5.996 -0.1987  0.0531  0.0434
  700ACH    OOH  700   5.542   4.842   0.788  0.0145  0.0700 -0.0103
  701ACH    OOH  701   0.138   1.103   0.140 -0.0530  0.3598  0.1294
  702ACH    OOH  702   4.554   4.041   2.839 -0.0099  0.1326 -0.0570
  703ACH    OOH  703   3.190   1.749   1.800 -0.0216 -0.0475  0.1160
  704ACH    OOH  704   6.251   5.341   5.683  0.0446 -0.3547  0.0200
  705ACH    OOH  705   5.676   0.326   0.907 -0.3333 -0.2638 -0.0323
  706ACH    OOH  706   3.243   2.367   3.652 -0.0392 -0.3973 -0.1649
  707ACH    OOH  707   1.818   6.259   0.609  0.0677  0.1295 -0.3182
  708ACH    OOH  708   0.488   3.014   4.626 -0.0823  0.1735 -0.2731
  709ACH    OOH  709   5.019   3.325   0.451 -0.1355 -0.0939 -0.0658
  710ACH    OOH  710   1.015   5.017   2.375 -0.0394  0.2001  0.0340
  711ACH    OOH  711   4.125   1.134   2.580 -0.2730  0.2850 -0.4645
  712ACH    OOH  712   4.004   0.492   3.156 -0.2012 -0.4179  0.0759
  713ACH    OOH  713   6.229   1.117   2.675  0.0191  0.2442  0.0453
  714ACH    OOH  714   1.793   1.306   6.201 -0.1715  0.1481  0.1253
  715ACH    OOH  715   5.661   4.244   5.880  0.3194 -0.0004 -0.0756
  716ACH    OOH  716   5.897   5.098   5.304  0.0217 -0.0434  0.1646
  717ACH    OOH  717   6.013   0.533   4.408 -0.4006 -0.1707 -0.0795
  718ACH    OOH  718   2.964   1.380   5.811 -0.0507 -0.1252 -0.0435
  719ACH    OOH  719   2.270   3.566   6.125 -0.2172 -0.1435 -0.0382
  720ACH    OOH  720   1.583   6.341   1.137  0.1204 -0.0787  0.0216
  721ACH    OOH  721   5.226   0.780   4.931  0.2696 -0.4098 -0.0045
  722ACH    OOH  722   2.470   4.123   2.392 -0.1962 -0.4108 -0.2073
  723ACH    OOH  723   1.959   2.359   2.035 -0.0164 -0.2094  0.1200
  724ACH    OOH  724   3.597   2.364   2.735  0.2416  0.2251  0.1693
  725ACH    OOH  725   5.747   0.000   6.309 -0.0247  0.1052  0.0481
  726ACH    OOH  726   5.667   4.179   2.421  0.0150  0.2126  0.0769
  727ACH    OOH  727   3.076   5.543   4.169 -0.0952  0.1454 -0.0242
  728ACH    OOH  728   2.681   0.052   0.686 -0.2193 -0.0560 -0.1892
  729ACH    OOH  729   2.104   0.217   4.953  0.1341 -0.1707  0.2158
  730ACH    OOH  730   0.513   5.545   3.613 -0.0859  0.1103 -0.0825
  731ACH    OOH  731   3.838   0.412   4.076 -0.0442 -0.2984 -0.0328
  732ACH    OOH  732   1.646   1.508   1.038  0.3107  0.0691 -0.0365
  733ACH    OOH  733   2.178   2.284   4.441  0.1769  0.0725 -0.0419
  734ACH    OOH  734   3.971   5.875   5.933 -0.1140 -0.0382 -0.0176
  735ACH    OOH  735   1.887   1.421   4.676 -0.1000  0.0787  0.1262
  736ACH    OOH  736   2.288   3.353   2.008  0.2457  0.2883 -0.1189
  737ACH    OOH  737   3.347   0.182   1.587  0.0663 -0.0579 -0.1029
  738ACH    OOH  738   0.876   3.816   1.748  0.3415 -0.1247  0.3630
  739ACH    OOH  739   3.599   5.519   3.891  0.3507 -0.1143 -0.4375
  740ACH    OOH  740   0.034   3.580   1.948 -0.1869  0.1466  0.0242
  741ACH    OOH  741   1.865   4.336   3.624  0.0787  0.1307 -0.0914
  742ACH    OOH  742   2.312   3.368   1.441 -0.2686 -0.4359 -0.2635
  743ACH    OOH  743   4.240   2.528   0.625  0.1755  0.1272  0.1245
  744ACH    OOH  744   1.082   1.892   0.278  0.1611  0.2589 -0.0228
  745ACH    OOH  745   1.067   4.388   5.565  0.0069 -0.0594 -0.1378
  746ACH    OOH  746   4.162   2.749   3.516 -0.0224 -0.1894 -0.1376
  747ACH    OOH  747   3.913   5.565   1.429  0.0282  0.2272 -0.0355
  748ACH    OOH  748   3.015   6.128   4.872  0.0251  0.3421  0.2079
  749ACH    OOH  749   2.640   5.648   3.194 -0.1049 -0.2946  0.0590
  750ACH    OOH  750   4.419   4.726   5.775  0.1776 -0.2038 -0.2233
  751ACH    OOH  751   4.064   5.296   1.942 -0.3887 -0.0311  0.1725
  752ACH    OOH  752   5.633   0.133   1.489  0.1019 -0.1226  0.0906
  753ACH    OOH  753   0.201   4.927   5.582 -0.0448  0.0939  0.1567
  754ACH    OOH  754   3.462   6.079   2.834  0.0103 -0.0561  0.0315
  755ACH    OOH  755   4.114   1.688   0.994 -0.0625  0.0239 -0.2378
  756ACH    OOH  756   6.356   4.123   2.379  0.0477  0.1388  0.0723
  757ACH    OOH  757   1.139   2.547   1.673 -0.3608  0.0999  0.0209
  758ACH    OOH  758   3.879   1.404   1.314 -0.1063 -0.1752 -0.1148
  759ACH    OOH  759   1.281   1.688   0.635  0.0434  0.1671  0.4254
  760ACH    OOH  760   1.646   0.691   0.343 -0.2290 -0.1592  0.1386
  761ACH    OOH  761   2.033   5.509   2.045 -0.1157  0.0005 -0.1279
  762ACH    OOH  762   5.495   0.951   3.877  0.0322 -0.2118 -0.0121
  763ACH    OOH  763   5.330   4.270   3.793 -0.0127 -0.3478 -0.0587
  764ACH    OOH  764   0.128   3.753   5.631 -0.0303  0.4408  0.1644
  765ACH    OOH  765   4.028   1.872   0.470  0.2462 -0.1190  0.1213
  766ACH    OOH  766   1.580   3.996   1.360  0.2680  0.1881  0.1024
  767ACH    OOH  767   0.562   2.140   0.384  0.2291 -0.0188  0.0752
  768ACH    OOH  768   1.317   1.850   1.437 -0.1297  0.2351  0.2668
  769ACH    OOH  769   5.394   1.013   3.210  0.3015  0.1681  0.2371
  770ACH    OOH  770   4.894   4.508   5.555 -0.1681 -0.3437  0.0811
  771ACH    OOH  771   2.763   2.052   5.377  0.1166 -0.1330 -0.1675
  772ACH    OOH  772   5.598   1.246   5.307  0.1760 -0.0496  0.2226
  773ACH    OOH  773   5.125   2.920   3.213 -0.1229 -0.1601 -0.0426
  774ACH    OOH  774   1.345   6.104   0.751 -0.1466  0.0728 -0.1275
  775ACH    OOH  775   1.483   3.132   3.142 -0.0106 -0.2279  0.2950
  776ACH    OOH  776   5.317   3.681   0.243  0.1208 -0.1062  0.0995
  777ACH    OOH  777   2.477   3.023   6.192  0.1639 -0.2755 -0.1974
  778ACH    OOH  778   4.253   4.291   1.497 -0.4319 -0.2370  0.0114
  779ACH    OOH  779   5.227   0.331   2.364 -0.0455  0.1282  0.0148
  780ACH    OOH  780   2.748   1.052   6.219  0.2851 -0.2087 -0.3738
  781ACH    OOH  781   1.447   4.026   5.030 -0.1236  0.0207 -0.0204
  782ACH    OOH  782   0.474   1.079   1.464 -0.2226 -0.2100  0.1826
  783ACH    OOH  783   2.698   4.937   2.110 -0.1206  0.1169 -0.1058
  784ACH    OOH  784   3.133   3.614   1.043  0.1695 -0.0514 -0.0084
  785ACH    OOH  785   1.508   4.670   3.328 -0.0908  0.0011 -0.0513
  786ACH    OOH  786   0.993   2.591   5.979  0.2549  0.0914  0.1869
  787ACH    OOH  787   1.887   1.912   4.199 -0.0289 -0.0023  0.1193
  788ACH    OOH  788   0.362   0.895   0.989 -0.0081 -0.0633 -0.3664
  789ACH    OOH  789   5.977   2.106   3.594 -0.0676 -0.0523  0.0342
  790ACH    OOH  790   1.339   1.045   6.365  0.0336  0.2877  0.0780
  791ACH    OOH  791   1.542   0.010   2.099  0.1890  0.0588  0.2113
  792ACH    OOH  792   0.524   1.731   3.173 -0.3056 -0.1834 -0.0729
  793ACH    OOH  793   0.110   2.430   1.102  0.1584  0.1699 -0.2143
  794ACH    OOH  794   3.588   3.470   0.838 -0.2448  0.2131  0.1073
  795ACH    OOH  795   2.267   2.225   4.905  0.2190  0.0071 -0.0424
  796ACH    OOH  796   0.256   1.399   2.788 -0.0496 -0.0927 -0.0117
  797ACH    OOH  797   5.912   1.667   3.355 -0.1332  0.0860  0.3032
  798ACH    OOH  798   5.973   1.275   1.022 -0.2987  0.0003 -0.0860
  799ACH    OOH  799   5.484   1.901   3.399  0.2630  0.3485 -0.0434
  800ACH    OOH  800   2.047   1.223   2.091  0.0190 -0.0749 -0.1406
  801ACH    OOH  801   0.518   4.898   6.208  0.0740  0.0179  0.4576
  802ACH    OOH  802   4.046   0.912   0.343  0.1648  0.0431 -0.0478
  803ACH    OOH  803   0.129   6.260   1.030 -0.0182  0.3777 -0.0861
  804ACH    OOH  804   5.183   4.338   5.898 -0.3805 -0.0494  0.2292
  805ACH    OOH  805   1.351   5.133   0.613  0.0729 -0.1125  0.2884
  806ACH    OOH  806   1.677   1.170   5.505  0.2408  0.1365 -0.0685
  807ACH    OOH  807   4.822   2.545   5.002 -0.1361  0.0130 -0.1053
  808ACH    OOH  808   4.043   5.289   3.654 -0.1764  0.1926 -0.1579
  809ACH    OOH  809   0.010   3.817   5.116  0.1180 -0.1169 -0.0960
  810ACH    OOH  810   5.478   3.605   1.532 -0.1774 -0.1102  0.1907
  811ACH    OOH  811   4.350   0.091   0.201 -0.1263  0.0280  0.1928
  812ACH    OOH  812   3.188   3.581   5.731  0.1033  0.0845 -0.1733
  813ACH    OOH  813   0.815   0.048   5.223  0.1175  0.1462 -0.1620
  814ACH    OOH  814   4.324   2.358   5.740 -0.1390  0.0253 -0.0602
  815ACH    OOH  815   2.925   2.182   0.933 -0.2204  0.1331 -0.0111
  816ACH    OOH  816   5.617   6.131   5.869  0.0090 -0.1265  0.1662
  817ACH    OOH  817   0.170   2.946   3.260 -0.0382  0.1957  0.0876
  818ACH    OOH  818   1.515   5.531   3.743  0.2275  0.0073  0.1219
  819ACH    OOH  819   4.864   0.435   4.946 -0.3652 -0.0417 -0.0541
  820ACH    OOH  820   0.489   1.609   4.551 -0.0556 -0.1633 -0.0539
  821ACH    OOH  821   2.398   0.610   4.073 -0.0875  0.0487  0.0679
  822ACH    OOH  822   4.499   1.747   3.449  0.2338 -0.0735 -0.1859
  823ACH    OOH  823   3.933   2.308   0.226 -0.1592 -0.3000  0.0100
  824ACH    OOH  824   0.045   0.948   4.110 -0.0731 -0.0493 -0.0129
  825ACH    OOH  825   5.379   4.097   6.280 -0.0666 -0.1749  0.6642
  826ACH    OOH  826   4.740   2.964   4.166  0.0732 -0.0108 -0.2931
  827ACH    OOH  827   1.514   4.738   4.337 -0.1984  0.0926 -0.4793
  828ACH    OOH  828   0.089   6.048   6.325  0.5115 -0.0412  0.0218
  829ACH    OOH  829   4.912   1.632   4.924 -0.0060 -0.0416 -0.1293
  830ACH    OOH  830   3.882   0.263   3.589 -0.0535 -0.1542  0.0503
  831ACH    OOH  831   5.590   0.962   1.899 -0.4467  0.1097 -0.2271
  832ACH    OOH  832   3.819   1.920   5.893 -0.0529 -0.3703  0.1234
  833ACH    OOH  833   3.514   4.526   3.412  0.0380 -0.3177  0.2003
  834ACH    OOH  834   4.013   1.512   5.682 -0.1871 -0.3652  0.5679
  835ACH    OOH  835   6.152   0.118   0.278 -0.0146 -0.2276  0.1888
  836ACH    OOH  836   6.091   0.180   3.577 -0.1270  0.1793 -0.0613
  837ACH    OOH  837   4.702   2.060   1.355  0.1790 -0.0960 -0.0348
  838ACH    OOH  838   2.483   1.902   2.723  0.1334  0.0653 -0.2050
  839ACH    OOH  839   5.167   1.087   0.868 -0.0925 -0.1054  0.0164
  840ACH    OOH  840   1.918   3.446   0.516 -0.2454  0.1438  0.1609
  841ACH    OOH  841   4.347   2.127   4.339 -0.0143 -0.1456 -0.0845
  842ACH    OOH  842   1.392   3.916   6.314  0.0929 -0.1921 -0.0885
  843ACH    OOH  843   0.400   2.746   2.310  0.1688  0.0465  0.0703
  844ACH    OOH  844   4.930   3.838   0.575 -0.0325  0.1802 -0.0210
  845ACH    OOH  845   3.153   0.541   1.981 -0.1072  0.2876 -0.1032
  846ACH    OOH  846   0.706   1.747   4.084 -0.0384 -0.0320  0.2598
  847ACH    OOH  847   0.448   6.236   3.202 -0.0728 -0.1499  0.1531
  848ACH    OOH  848   4.674   4.705   5.157 -0.1015  0.1960  0.0362
  849ACH    OOH  849   3.201   4.902   1.048 -0.0692  0.0121 -0.1637
  850ACH    OOH  850   1.714   2.081   5.265  0.0814  0.2482 -0.0395
  851ACH    OOH  851   6.081   0.551   5.824  0.1207 -0.2832 -0.0729
  852ACH    OOH  852   3.250   2.239   4.578  0.0807  0.3279  0.0066
  853ACH    OOH  853   4.556   5.669   5.281  0.0201 -0.1984 -0.1110
  854ACH    OOH  854   1.504   2.006   4.465 -0.0795 -0.3756  0.2368
  855ACH    OOH  855   4.098   3.177   0.649 -0.1531 -0.0023 -0.1427
  856ACH    OOH  856   4.034   6.147   1.889  0.1459  0.0875  0.1674
  857ACH    OOH  857   1.163   5.161   3.745 -0.1423  0.0284 -0.2272
  858ACH    OOH  858   2.208   4.096   5.972 -0.0256 -0.2108 -0.2509
  859ACH    OOH  859   3.747   4.737   6.243  0.2692  0.0127  0.2008
  860ACH    OOH  860   2.569   2.409   2.897  0.0423 -0.0498  0.0222
  861ACH    OOH  861   1.556   2.486   6.094  0.0851 -0.1902 -0.2474
  862ACH    OOH  862   2.956   5.142   1.681  0.1226  0.0476  0.2618
  863ACH    OOH  863   2.245   1.903   0.488  0.1316 -0.0102 -0.0988
  864ACH    OOH  864   0.642   4.034   2.448  0.1553 -0.0950 -0.0775
  865ACH    OOH  865   6.026   4.686   0.952  0.3283 -0.5078 -0.0517
  866ACH    OOH  866   4.302   0.117   1.121  0.2621  0.0586  0.2200
  867ACH    OOH  867   1.999   0.731   2.052 -0.0714  0.1002  0.0679
  868ACH    OOH  868   4.257   5.706   1.776 -0.3307  0.2271 -0.1654
  869ACH    OOH  869   4.318   5.105   4.362 -0.2900  0.3717 -0.1357
  870ACH    OOH  870   4.877   0.273   3.321 -0.2579  0.2609  0.0105
  871ACH    OOH  871   5.927   2.853   2.419 -0.1915  0.3403 -0.2055
  872ACH    OOH  872   5.669   0.419   3.802 -0.1665 -0.0323 -0.1936
  873ACH    OOH  873   1.921   5.261   5.044 -0.0166  0.1629 -0.4942
  874ACH    OOH  874   5.197   0.055   3.631 -0.0691  0.4493  0.3460
  875ACH    OOH  875   2.027   3.055   1.729  0.0139 -0.1462  0.1230
  876ACH    OOH  876   0.033   1.606   1.912 -0.0867  0.2464  0.2482
  877ACH    OOH  877   1.912   1.904   4.775  0.2827  0.0549  0.1872
  878ACH    OOH  878   1.905   1.987   0.864  0.4790  0.1017  0.0776
  879ACH    OOH  879   0.524   4.674   3.200  0.4895 -0.1860  0.2472
  880ACH    OOH  880   0.245   2.976   0.531  0.1955 -0.0344  0.2797
  881ACH    OOH  881   6.280   5.856   2.427 -0.1604  0.1741  0.1169
  882ACH    OOH  882   3.747   4.570   1.368  0.1948  0.0537 -0.3100
  883ACH    OOH  883   0.438   3.663   1.597  0.1358  0.1934  0.0688
  884ACH    OOH  884   0.894   5.409   4.155  0.0977  0.1466 -0.0126
  885ACH    OOH  885   3.711   0.248   4.634  0.1161 -0.0260  0.4076
  886ACH    OOH  886   4.634   2.423   1.707  0.0908  0.4601  0.0387
  887ACH    OOH  887   3.219   0.101   0.029  0.1406  0.2083 -0.2249
  888ACH    OOH  888   2.071   2.181   0.108  0.0094 -0.0817 -0.4567
  889ACH    OOH  889   2.078   5.450   0.502  0.1217  0.1940 -0.0239
  890ACH    OOH  890   1.246   2.962   4.995 -0.0705 -0.1933  0.1552
  891ACH    OOH  891   6.031   4.271   2.861 -0.3037  0.0629 -0.2908
  892ACH    OOH  892   2.798   5.533   2.715 -0.1889 -0.0645 -0.2219
  893ACH    OOH  893   0.116   3.996   1.317  0.1162 -0.0613 -0.0535
  894ACH    OOH  894   0.967   0.452   1.341  0.1732  0.0821 -0.0923
  895ACH    OOH  895   5.464   5.688   2.353  0.0000  0.0303 -0.2783
  896ACH    OOH  896   5.394   5.046   2.448 -0.3362  0.2583  0.0167
  897ACH    OOH  897   1.983   4.416   2.539 -0.0770  0.0893 -0.0942
  898ACH    OOH  898   5.305   3.986   3.313 -0.1732 -0.1346  0.0862
  899ACH    OOH  899   1.964   3.719   1.836 -0.0296  0.0097  0.1434
  900ACH    OOH  900   5.549   5.860   5.163  0.0663 -0.0371  0.0736
  901ACH    OOH  901   3.259   3.196   2.516 -0.0192  0.3416 -0.0156
  902ACH    OOH  902   2.397   5.285   5.277 -0.2089  0.2336  0.1994
  903ACH    OOH  903   0.173   1.056   3.107  0.4186 -0.0369 -0.0432
  904ACH    OOH  904   4.435   3.329   5.046  0.0725  0.2577  0.1742
  905ACH    OOH  905   5.447   2.149   0.190 -0.1529  0.2187  0.0202
  906ACH    OOH  906   5.619   4.041   2.942  0.0757  0.2680  0.0235
  907ACH    OOH  907   1.078   0.228   0.901 -0.0488 -0.0199 -0.1593
  908ACH    OOH  908   4.714   5.584   2.540 -0.3338  0.2105  0.3052
  909ACH    OOH  909   6.213   0.915   4.692 -0.1656  0.0267  0.2420
  910ACH    OOH  910   5.048   2.451   5.590  0.2729  0.4534  0.1533
  911ACH    OOH  911   1.003   2.452   3.490 -0.0014 -0.0470 -0.1877
  912ACH    OOH  912   3.919   6.189   4.467  0.0491  0.0406 -0.0889
  913ACH    OOH  913   3.694   1.468   4.197 -0.1290 -0.0392 -0.2681
  914ACH    OOH  914   0.119   0.784   5.662  0.2528 -0.0300  0.0251
  915ACH    OOH  915   3.550   6.166   6.209  0.1193 -0.0021  0.1141
  916ACH    OOH  916   2.289   5.062   4.365 -0.1547  0.0969 -0.2341
  917ACH    OOH  917   0.958   3.644   0.822  0.1109 -0.0649 -0.1629
  918ACH    OOH  918   1.912   5.257   3.808 -0.1566  0.2641 -0.3310
  919ACH    OOH  919   3.687   0.652   2.300 -0.0023 -0.1340  0.3114
  920ACH    OOH  920   5.829   2.466   2.780 -0.2008  0.0647 -0.4331
  921ACH    OOH  921   4.880   4.207   5.171  0.0998 -0.0878  0.1456
  922ACH    OOH  922   0.704   0.015   2.203  0.1370 -0.2496  0.0321
  923ACH    OOH  923   3.862   4.252   1.746  0.5965  0.0593  0.0631
  924ACH    OOH  924   0.661   3.993   1.318 -0.0629  0.0288  0.0699
  925ACH    OOH  925   2.599   5.426   1.340 -0.0172  0.0184 -0.1068
  926ACH    OOH  926   4.170   4.628   5.270 -0.0898 -0.0174  0.3034
  927ACH    OOH  927   5.715   3.506   5.133  0.0704  0.0081  0.1099
  928ACH    OOH  928   5.039   4.612   1.942 -0.1311 -0.0089  0.0750
  929ACH    OOH  929   2.508   2.652   4.628  0.0254 -0.1822  0.3283
  930ACH    OOH  930   6.194   0.076   6.103 -0.0088 -0.1107  0.0400
  931ACH    OOH  931   1.971   3.178   3.166  0.0724 -0.1646 -0.1889
  932ACH    OOH  932   2.754   3.421   0.194  0.1709  0.0271 -0.1490
  933ACH    OOH  933   0.820   3.029   5.236  0.0818 -0.3176 -0.0469
  934ACH    OOH  934   5.363   0.755   2.791  0.4882  0.1602  0.0517
  935ACH    OOH  935   1.656   1.281   2.772 -0.0879  0.2658  0.0407
  936ACH    OOH  936   0.885   2.604   4.895  0.0871 -0.0932  0.2035
  937ACH    OOH  937   3.448   0.504   0.219 -0.1723  0.2067 -0.0207
  938ACH    OOH  938   5.001   2.732   2.710 -0.1779  0.0772  0.1419
  939ACH    OOH  939   2.753   1.627   4.114 -0.2138 -0.0550  0.1827
  940ACH    OOH  940   4.287   4.468   2.057  0.2753  0.0643 -0.1879
  941ACH    OOH  941   3.887   0.645   1.616 -0.0798  0.2437  0.0701
  942ACH    OOH  942   1.693   4.348   0.127  0.1848  0.1322  0.1883
  943ACH    OOH  943   3.120   1.703   0.877  0.3210  0.1467 -0.2505
  944ACH    OOH  944   2.733   3.237   1.759  0.0311 -0.0295 -0.1447
  945ACH    OOH  945   3.064   5.141   3.057  0.3756 -0.1714  0.1224
  946ACH    OOH  946   2.549   3.554   4.094 -0.2642 -0.3979  0.3858
  947ACH    OOH  947   1.900   4.066   5.478 -0.3148  0.0620 -0.2235
  948ACH    OOH  948   5.068   5.882   6.102 -0.1449  0.0680  0.0991
  949ACH    OOH  949   3.176   5.570   6.193 -0.3072  0.3396 -0.0621
  950ACH    OOH  950   6.015   5.411   2.177  0.1335 -0.2245  0.0536
  951ACH    OOH  951   1.527   0.236   3.811 -0.2133 -0.2280  0.0236
  952ACH    OOH  952   2.368   1.682   5.026  0.0666  0.0923 -0.2885
  953ACH    OOH  953   4.783   2.529   0.743 -0.0896 -0.0513  0.0665
  954ACH    OOH  954   0.743   2.180   1.709  0.1263 -0.0779 -0.4013
  955ACH    OOH  955   1.988   0.918   5.809 -0.1571  0.0248 -0.0059
  956ACH    OOH  956   3.534   2.088   5.492 -0.1088 -0.0296  0.1531
  957ACH    OOH  957   0.947   5.211   6.104 -0.3939  0.2554  0.0328
  958ACH    OOH  958   1.715   2.989   6.222  0.1493 -0.1711 -0.0593
  959ACH    OOH  959   5.829   3.856   6.069 -0.0654 -0.1440 -0.1270
  960ACH    OOH  960   4.311   5.492   2.844  0.0053 -0.3002 -0.3984
  961ACH    OOH  961   0.716   2.886   6.296  0.0830  0.2593 -0.0057
  962ACH    OOH  962   1.920   1.596   5.222 -0.1147  0.1328 -0.3420
  963ACH    OOH  963   0.540   2.404   4.065  0.1428  0.1471  0.0388
  964ACH    OOH  964   1.003   3.965   5.301 -0.3201  0.1384 -0.3122
  965ACH    OOH  965   3.072   2.468   3.166  0.0612 -0.0498 -0.1522
  966ACH    OOH  966   0.249   2.766   5.561  0.1711 -0.3374  0.1461
  967ACH    OOH  967   3.162   3.844   1.803 -0.0575  0.0650 -0.1218
  968ACH    OOH  968   3.791   5.721   1.930  0.1081 -0.1820  0.2597
  969ACH    OOH  969   1.388   6.277   0.100 -0.1893 -0.1778  0.0479
  970ACH    OOH  970   0.196   1.636   6.217 -0.0425 -0.0671 -0.0037
  971ACH    OOH  971   5.913   4.013   0.473 -0.2092 -0.0467  0.0062
  972ACH    OOH  972   4.877   4.957   2.341 -0.3332 -0.0400 -0.0191
  973ACH    OOH  973   3.438   5.545   0.381 -0.0618 -0.3187  0.1354
  974ACH    OOH  974   5.706   1.264   4.667 -0.1119  0.1571  0.5932
  975ACH    OOH  975   6.059   2.871   5.873 -0.2091 -0.1955 -0.1488
  976ACH    OOH  976   0.519   2.532   5.975  0.1348  0.1152  0.1550
  977ACH    OOH  977   0.064   0.979   0.603 -0.0782 -0.2076 -0.1413
  978ACH    OOH  978   3.507   4.167   4.957 -0.1576 -0.1445  0.2791
  979ACH    OOH  979   4.405   3.964   0.550  0.0865 -0.3827 -0.1701
  980ACH    OOH  980   5.543   3.204   2.284 -0.0085  0.0306 -0.0202
  981ACH    OOH  981   1.746   6.193   3.534 -0.2588 -0.0179 -0.4231
  982ACH    OOH  982   1.618   5.147   3.405 -0.0879 -0.2285 -0.0113
  983ACH    OOH  983   1.407   1.359   1.491 -0.3234 -0.0401 -0.2547
  984ACH    OOH  984   0.223   1.105   3.602 -0.0604 -0.0416 -0.1692
  985ACH    OOH  985   1.939   5.563   3.440  0.1386 -0.1446  0.0612
  986ACH    OOH  986   2.187   5.017   6.122 -0.1958 -0.1603 -0.3038
  987ACH    OOH  987   4.416   5.501   1.319  0.1436  0.2724  0.4279
  988ACH    OOH  988   5.888   6.027   4.496  0.2760 -0.0181 -0.0959
  989ACH    OOH  989   6.046   0.049   1.294 -0.0332  0.1217  0.0916
  990ACH    OOH  990   3.804   3.093   1.045 -0.1861 -0.2588 -0.1550
  991ACH    OOH  991   5.418   2.509   2.435  0.3062 -0.3364 -0.2149
  992ACH    OOH  992   1.567   2.101   2.737  0.1246  0.2095 -0.2428
  993ACH    OOH  993   1.439   2.215   2.242  0.0386 -0.1863  0.3192
  994ACH    OOH  994   1.996   1.735   2.801 -0.1834 -0.0300 -0.2681
  995ACH    OOH  995   5.931   2.480   3.909  0.1267 -0.0470  0.1556
  996ACH    OOH  996   3.543   1.770   0.044  0.2800 -0.0798 -0.1123
  997ACH    OOH  997   4.475   0.033   1.963  0.2033  0.0259  0.4449
  998ACH    OOH  998   1.131   0.304   2.328 -0.2984  0.1980  0.1166
  999ACH    OOH  999   2.205   3.727   2.290  0.0572  0.3596  0.0815
 1000ACH    OOH 1000   5.019   1.531   5.407  0.0800 -0.0221 -0.2116
 1001ACH    OOH 1001   0.691   6.350   1.096  0.2388 -0.2915  0.1511
 1002ACH    OOH 1002   6.018   6.303   4.029  0.2789  0.0279  0.1697
 1003ACH    OOH 1003   2.438   5.093   0.166  0.0788 -0.0490  0.0941
 1004ACH    OOH 1004   4.011   3.411   1.844  0.1339  0.0626 -0.1990
 1005ACH    OOH 1005   4.381   5.620   3.296  0.1742  0.1717 -0.0540
 1006ACH    OOH 1006   1.310   4.813   5.821  0.1099  0.2208  0.2417
 1007ACH    OOH 1007   1.604   0.084   6.052 -0.1513 -0.0937 -0.0734
 1008ACH    OOH 1008   3.919   5.352   0.471  0.1056 -0.1260 -0.0145
 1009ACH    OOH 1009   0.339   3.838   0.858 -0.1847  0.0272  0.2020
 1010ACH    OOH 1010   2.713   0.676   1.268 -0.1816  0.0339  0.1074
 1011ACH    OOH 1011   1.762   0.887   0.852  0.2536 -0.0054  0.0807
 1012ACH    OOH 1012   4.151   1.571   3.126  0.3371  0.0243 -0.0615
 1013ACH    OOH 1013   2.988   5.758   1.253 -0.2837 -0.0539 -0.2242
 1014ACH    OOH 1014   5.163   6.300   3.090 -0.2034  0.2730 -0.1727
 1015ACH    OOH 1015   6.363   2.440   6.079  0.1072  0.3223 -0.1616
 1016ACH    OOH 1016   3.766   4.365   5.295  0.1729  0.2312  0.2513
 1017ACH    OOH 1017   3.234   5.651   4.692 -0.0438  0.0460 -0.2556
 1018ACH    OOH 1018   1.746   4.241   5.965  0.2798 -0.0937  0.1113
 1019ACH    OOH 1019   0.986   0.784   5.615  0.0665  0.2631 -0.0513
 1020ACH    OOH 1020   4.546   0.363   6.198 -0.0119  0.1043 -0.0446
 1021ACH    OOH 1021   1.537   3.362   4.802 -0.1002 -0.0133 -0.0127
 1022ACH    OOH 1022   5.442   4.663   4.596  0.2042  0.1374 -0.0525
 1023ACH    OOH 1023   3.221   6.159   2.373 -0.1625  0.1244 -0.2666
 1024ACH    OOH 1024   5.314   1.314   6.298  0.1566 -0.3494  0.0276
 1025ACH    OOH 1025   4.679   2.780   3.432 -0.2676 -0.0802 -0.0422
 1026ACH    OOH 1026   0.247   6.315   1.508 -0.2086 -0.0757 -0.0826
 1027ACH    OOH 1027   5.570   2.647   5.693  0.0669 -0.1706 -0.0907
 1028ACH    OOH 1028   4.369   5.592   0.427 -0.0056  0.2961 -0.1396
 1029ACH    OOH 1029   4.159   3.671   5.328  0.0246  0.1927  0.0667
 1030ACH    OOH 1030   5.735   1.781   4.471 -0.0394 -0.0484 -0.2386
 1031ACH    OOH 1031   4.415   5.838   3.775 -0.0020  0.0379  0.0498
 1032ACH    OOH 1032   0.732   0.726   1.822 -0.1710 -0.1654 -0.0221
 1033ACH    OOH 1033   0.062   3.431   3.633  0.1238  0.1019 -0.0620
 1034ACH    OOH 1034   3.932   2.752   4.741  0.4172 -0.2359 -0.2719
 1035ACH    OOH 1035   5.436   0.347   3.196  0.3216 -0.1658  0.0698
 1036ACH    OOH 1036   1.584   3.772   4.531 -0.0572 -0.1694 -0.1425
 1037ACH    OOH 1037   0.303   5.008   1.642  0.2030  0.2223  0.2419
 1038ACH    OOH 1038   6.285   3.323   0.227  0.3548 -0.1570 -0.1557
 1039ACH    OOH 1039   0.656   5.373   3.160 -0.0294  0.0090  0.1762
 1040ACH    OOH 1040   0.159   4.157   0.442  0.1426 -0.0121  0.2962
 1041ACH    OOH 1041   0.952   6.332   0.409  0.0665  0.1602 -0.1132
 1042ACH    OOH 1042   4.925   0.764   0.562 -0.1674 -0.0333 -0.0579
 1043ACH    OOH 1043   6.118   5.573   1.067  0.2330  0.0038  0.1329
 1044ACH    OOH 1044   3.208   3.981   5.339  0.0847 -0.0133 -0.2345
 1045ACH    OOH 1045   2.901   4.378   4.399  0.1472  0.0868  0.2619
 1046ACH    OOH 1046   6.274   5.950   4.874  0.2575  0.0174 -0.1049
 1047ACH    OOH 1047   4.259   0.985   4.941  0.0321 -0.3500 -0.2962
 1048ACH    OOH 1048   5.196   2.671   4.203  0.1475  0.1323  0.1466
 1049ACH    OOH 1049   0.252   0.586   3.782 -0.1458 -0.5017 -0.0670
 1050ACH    OOH 1050   0.772   3.509   2.468  0.0669  0.1736  0.4839
 1051ACH    OOH 1051   4.958   0.748   3.095 -0.0906  0.0717  0.1409
 1052ACH    OOH 1052   6.269   4.118   5.901  0.0828 -0.0485 -0.1416
 1053ACH    OOH 1053   4.404   2.392   2.149 -0.1157  0.2102 -0.1303
 1054ACH    OOH 1054   1.697   5.610   4.814  0.3655 -0.0262  0.2792
 1055ACH    OOH 1055   1.144   1.398   1.083 -0.2033  0.0001  0.0115
 1056ACH    OOH 1056   5.083   4.919   2.815  0.0539 -0.1363  0.0061
 1057ACH    OOH 1057   1.401   3.964   3.010 -0.2202  0.0951  0.1175
 1058ACH    OOH 1058   3.015   0.082   4.053 -0.0123  0.2816  0.0580
 1059ACH    OOH 1059   3.948   2.126   0.874  0.1311  0.1591  0.1304
 1060ACH    OOH 1060   0.792   5.103   1.387  0.1484  0.1374 -0.3876
 1061ACH    OOH 1061   3.612   5.195   1.820  0.0170 -0.0761 -0.0264
 1062ACH    OOH 1062   5.581   1.819   6.219  0.1653 -0.1890  0.0933
 1063ACH    OOH 1063   5.884   6.208   5.015 -0.1359 -0.2670 -0.0354
 1064ACH    OOH 1064   0.660   5.475   4.601 -0.1247  0.2443  0.0153
 1065ACH    OOH 1065   6.109   0.731   1.868 -0.0277  0.1299  0.2139
 1066ACH    OOH 1066   5.306   3.945   1.199  0.2559  0.0105 -0.1335
 1067ACH    OOH 1067   2.949   0.873   5.718  0.3364  0.0243  0.0222
 1068ACH    OOH 1068   3.238   4.629   0.643 -0.5652  0.1326  0.1867
 1069ACH    OOH 1069   4.085   1.954   2.263  0.0484  0.0469  0.0594
 1070ACH    OOH 1070   0.580   1.269   4.907 -0.0800  0.1316  0.0238
 1071ACH    OOH 1071   3.213   1.207   2.748  0.2593  0.2158  0.1233
 1072ACH    OOH 1072   4.749   1.687   2.823  0.1049 -0.0281 -0.1268
 1073ACH    OOH 1073   1.083   5.924   5.221 -0.2025  0.2073  0.1163
 1074ACH    OOH 1074   1.498   2.021   6.253 -0.0007  0.4568  0.2424
 1075ACH    OOH 1075   4.022   0.565   6.192  0.0503 -0.1355 -0.1937
 1076ACH    OOH 1076   2.003   5.474   4.278 -0.1583  0.0394 -0.0180
 1077ACH    OOH 1077   1.957   2.555   0.983 -0.0319  0.1727  0.2863
 1078ACH    OOH 1078   5.563   2.751   2.000  0.0048  0.0482  0.2552
 1079ACH    OOH 1079   5.912   3.099   0.433  0.1110  0.1345 -0.0925
 1080ACH    OOH 1080   4.955   2.482   2.262  0.0414 -0.0224  0.0970
 1081ACH    OOH 1081   3.949   0.936   2.047 -0.1191  0.0157  0.1986
 1082ACH    OOH 1082   1.338   0.744   3.793  0.1498  0.0933  0.1746
 1083ACH    OOH 1083   2.488   5.229   2.450 -0.0087  0.1485  0.2296
 1084ACH    OOH 1084   5.269   0.961   1.417  0.1829  0.2473  0.4013
 1085ACH    OOH 1085   0.431   6.049   3.672 -0.0006  0.0291  0.0122
 1086ACH    OOH 1086   2.931   2.512   4.884 -0.0102 -0.3456  0.2021
 1087ACH    OOH 1087   5.880   0.988   4.242 -0.1009 -0.0753 -0.2285
 1088ACH    OOH 1088   2.815   0.434   4.352 -0.0060  0.0198 -0.0175
 1089ACH    OOH 1089   5.575   4.664   4.041  0.1132  0.0005  0.0676
 1090ACH    OOH 1090   5.737   1.767   3.865 -0.2669 -0.1090  0.0463
 1091ACH    OOH 1091   3.764   2.914   4.302  0.3374 -0.0516  0.0455
 1092ACH    OOH 1092   2.251   1.933   5.508  0.2386 -0.2992  0.0171
 1093ACH    OOH 1093   4.608   3.605   4.572 -0.0246 -0.0502  0.1128
 1094ACH    OOH 1094   4.826   3.794   3.199  0.1452 -0.2380 -0.0568
 1095ACH    OOH 1095   3.039   1.756   4.556 -0.2039 -0.3635  0.0615
 1096ACH    OOH 1096   2.612   2.518   5.256  0.3354  0.0057  0.0505
 1097ACH    OOH 1097   4.639   4.880   0.676  0.0649  0.4922  0.2008
 1098ACH    OOH 1098   2.209   5.186   1.072  0.3476  0.2073  0.2079
 1099ACH    OOH 1099   3.347   2.612   5.845 -0.0528 -0.0559  0.1604
 1100ACH    OOH 1100   5.831   0.723   2.816 -0.2651  0.0435  0.1178
 1101ACH    OOH 1101   0.653   4.241   3.558 -0.3111 -0.1608 -0.0548
 1102ACH    OOH 1102   1.043   4.197   4.803  0.1891 -0.0635 -0.0651
 1103ACH    OOH 1103   5.711   2.403   3.291  0.1515 -0.1227  0.2524
 1104ACH    OOH 1104   2.303   1.262   4.447 -0.1355 -0.0713 -0.1346
 1105ACH    OOH 1105   5.037   2.177   0.972  0.1231 -0.1452  0.0466
 1106ACH    OOH 1106   1.490   5.140   4.126  0.0612 -0.2164  0.0601
 1107ACH    OOH 1107   4.532   1.928   3.901 -0.0656 -0.3216 -0.1040
 1108ACH    OOH 1108   2.352   4.104   4.194  0.1872 -0.0187 -0.3030
 1109ACH    OOH 1109   5.183   1.994   4.615 -0.0359  0.2543  0.2786
 1110ACH    OOH 1110   3.122   5.176   4.668  0.0412  0.1756 -0.3011
 1111ACH    OOH 1111   4.299   1.873   5.969 -0.3173 -0.1499  0.4370
 1112ACH    OOH 1112   1.316   2.163   5.782 -0.3382 -0.0686 -0.0474
 1113ACH    OOH 1113   1.370   1.425   2.041 -0.1261 -0.1813 -0.2844
 1114ACH    OOH 1114   2.534   2.494   1.177  0.1761 -0.0705 -0.5665
 1115ACH    OOH 1115   5.727   5.054   4.348  0.1388 -0.2187  0.0107
 1116ACH    OOH 1116   0.195   0.107   3.710  0.0306  0.0644  0.1914
 1117ACH    OOH 1117   5.107   1.397   3.969 -0.0034  0.0956  0.0364
 1118ACH    OOH 1118   4.333   0.605   1.271  0.4144  0.2271 -0.2608
 1119ACH    OOH 1119   2.863   3.376   5.390 -0.1571 -0.6155 -0.1215
 1120ACH    OOH 1120   4.058   0.889   4.108 -0.0090  0.0245  0.1343
 1121ACH    OOH 1121   3.671   1.684   0.772 -0.3030  0.0560  0.1160
 1122ACH    OOH 1122   5.779   3.023   5.360 -0.0308  0.0490  0.1479
 1123ACH    OOH 1123   0.808   2.729   4.341  0.0690  0.0778  0.1365
 1124ACH    OOH 1124   3.396   5.094   0.583 -0.1610 -0.2568  0.1736
 1125ACH    OOH 1125   6.017   3.797   5.484 -0.1783 -0.2267 -0.0322
 1126ACH    OOH 1126   1.749   3.719   5.925  0.3612 -0.0514 -0.2763
 1127ACH    OOH 1127   5.543   2.829   2.858 -0.1420 -0.0546  0.1870
 1128ACH    OOH 1128   0.099   5.580   6.112  0.0531  0.0865 -0.1231
 1129ACH    OOH 1129   4.937   3.845   6.101 -0.1810  0.3326  0.0212
 1130ACH    OOH 1130   2.770   1.891   0.492  0.3084  0.1747 -0.0786
 1131ACH    OOH 1131   0.525   4.977   2.184 -0.1385 -0.3168 -0.1105
 1132ACH    OOH 1132   0.543   3.464   0.532 -0.1866  0.1479  0.3613
 1133ACH    OOH 1133   2.059   4.774   1.319 -0.1327  0.0126  0.0953
 1134ACH    OOH 1134   2.741   0.741   1.823  0.1063  0.1328  0.1063
 1135ACH    OOH 1135   4.098   1.239   4.491  0.0634  0.0916 -0.1125
 1136ACH    OOH 1136   5.029   5.970   2.724 -0.0198  0.1040  0.0527
 1137ACH    OOH 1137   4.850   5.815   4.012  0.2358 -0.3507  0.0189
 1138ACH    OOH 1138   1.285   3.510   3.693 -0.3914 -0.2062 -0.0228
 1139ACH    OOH 1139   4.799   0.708   1.323  0.0025 -0.1765 -0.1284
 1140ACH    OOH 1140   6.076   4.556   5.919  0.1890  0.1502  0.0646
 1141ACH    OOH 1141   1.698   2.443   4.325 -0.2582  0.1596  0.2639
 1142ACH    OOH 1142   4.748   6.254   1.103 -0.1207  0.1105 -0.1207
 1143ACH    OOH 1143   4.474   0.087   2.522  0.4070  0.0112  0.1296
 1144ACH    OOH 1144   1.639   0.515   4.855 -0.1871  0.4652  0.2103
 1145ACH    OOH 1145   3.046   0.510   3.408 -0.2210 -0.2149  0.0095
 1146ACH    OOH 1146   5.389   0.974   4.392  0.2376  0.3147 -0.1521
 1147ACH    OOH 1147   4.654   1.075   5.716  0.4412 -0.4011  0.2484
 1148ACH    OOH 1148   5.610   5.880   2.810  0.2422 -0.0939  0.0025
 1149ACH    OOH 1149   4.923   1.341   1.372  0.2301 -0.1608 -0.2239
 1150ACH    OOH 1150   2.156   3.216   4.008  0.0275  0.0611  0.1327
 1151ACH    OOH 1151   3.353   1.509   3.157  0.2787  0.0786  0.3327
 1152ACH    OOH 1152   2.520   1.578   0.865 -0.3638 -0.0207 -0.0328
 1153ACH    OOH 1153   4.983   2.139   2.669 -0.0759  0.0520  0.2799
 1154ACH    OOH 1154   3.359   4.558   3.960  0.0490  0.0120 -0.0564
 1155ACH    OOH 1155   3.616   2.443   3.299 -0.0413  0.3124  0.0345
 1156ACH    OOH 1156   1.402   0.967   5.878 -0.4364 -0.2934 -0.2961
 1157ACH    OOH 1157   6.314   1.748   3.781 -0.1577 -0.2447 -0.1516
 1158ACH    OOH 1158   3.614   5.420   0.863 -0.0433  0.2612 -0.0056
 1159ACH    OOH 1159   0.072   2.708   4.681 -0.0563  0.0072  0.0399
 1160ACH    OOH 1160   6.362   1.602   5.387 -0.0124 -0.0360 -0.1999
 1161ACH    OOH 1161   2.016   3.660   4.253 -0.0716 -0.0433  0.4917
 1162ACH    OOH 1162   1.654   3.857   0.396 -0.2315  0.0042  0.1422
 1163ACH    OOH 1163   0.478   0.083   0.631  0.0539 -0.2315 -0.1803
 1164ACH    OOH 1164   3.379   5.820   5.147 -0.2400  0.1979 -0.0402
 1165ACH    OOH 1165   4.208   0.190   4.387 -0.1549 -0.0954 -0.0360
 1166ACH    OOH 1166   3.328   6.061   0.359 -0.3284  0.0160  0.0403
 1167ACH    OOH 1167   5.454   5.152   5.756  0.2115  0.1133 -0.1924
 1168ACH    OOH 1168   0.679   4.677   5.128  0.1374 -0.3702  0.0426
 1169ACH    OOH 1169   0.977   5.718   6.281 -0.2006 -0.2461 -0.1318
 1170ACH    OOH 1170   1.492   5.604   4.312 -0.0743 -0.1462 -0.0409
 1171ACH    OOH 1171   6.055   4.727   4.012  0.1693 -0.2133 -0.1215
 1172ACH    OOH 1172   3.742   0.853   2.779  0.2790 -0.0793  0.2760
 1173ACH    OOH 1173   5.645   5.042   3.401 -0.1002 -0.0319 -0.0807
 1174ACH    OOH 1174   4.599   6.220   6.066  0.0297 -0.2606  0.2032
 1175ACH    OOH 1175   1.154   5.776   1.627 -0.1186  0.4855  0.1290
 1176ACH    OOH 1176   5.670   6.117   1.068  0.0629 -0.1750 -0.2578
 1177ACH    OOH 1177   4.384   2.902   0.991 -0.1416  0.0887  0.2682
 1178ACH    OOH 1178   2.407   6.328   1.802  0.0914 -0.0237 -0.0428
 1179ACH    OOH 1179   2.242   0.731   0.617 -0.0003  0.2000 -0.1655
 1180ACH    OOH 1180   6.327   0.671   2.887 -0.1019  0.2917 -0.0148
 1181ACH    OOH 1181   5.416   4.200   5.366 -0.0657  0.2687  0.1088
 1182ACH    OOH 1182   1.949   4.786   4.134  0.1980  0.0428 -0.1587
 1183ACH    OOH 1183   2.271   6.128   0.903 -0.0252 -0.1506  0.1824
 1184ACH    OOH 1184   1.434   4.739   0.286  0.3146  0.1853 -0.0184
 1185ACH    OOH 1185   6.284   0.999   6.100  0.0519  0.0907 -0.3305
 1186ACH    OOH 1186   6.365   3.935   4.624 -0.1396  0.1174  0.3173
 1187ACH    OOH 1187   2.468   4.623   0.281  0.1473  0.0970  0.0189
 1188ACH    OOH 1188   4.286   4.913   2.939  0.1547 -0.0878 -0.0695
 1189ACH    OOH 1189   5.075   4.810   1.443 -0.0085  0.3239  0.2444
 1190ACH    OOH 1190   3.483   3.019   4.936 -0.4622  0.1674  0.1247
 1191ACH    OOH 1191   2.938   2.976   4.647 -0.0737  0.0204 -0.1298
 1192ACH    OOH 1192   3.774   4.864   5.127  0.1811  0.0332  0.1474
 1193ACH    OOH 1193   0.801   1.775   0.668 -0.0825  0.0003  0.0728
 1194ACH    OOH 1194   3.184   0.125   4.548  0.0606 -0.2705  0.0713
 1195ACH    OOH 1195   4.590   3.021   0.557  0.2126 -0.1001  0.0985
 1196ACH    OOH 1196   6.072   4.969   4.833  0.0837 -0.2326  0.0098
 1197ACH    OOH 1197   0.014   4.577   1.786  0.0594  0.2971 -0.2476
 1198ACH    OOH 1198   2.729   2.889   2.778 -0.1995  0.3044 -0.0143
 1199ACH    OOH 1199   0.714   5.582   1.444  0.0559 -0.0582 -0.1253
 1200ACH    OOH 1200   1.026   0.326   3.929 -0.2015  0.0201 -0.0328
 1201ACH    OOH 1201   2.774   4.140   3.237 -0.1219  0.3829 -0.2351
 1202ACH    OOH 1202   2.670   2.750   3.251 -0.4788  0.3729  0.0852
 1203ACH    OOH 1203   0.685   4.313   1.975  0.2777  0.2355  0.2473
 1204ACH    OOH 1204   2.561   5.982   1.286  0.2483 -0.0172  0.0296
 1205ACH    OOH 1205   5.161   4.318   0.898  0.3327 -0.0715  0.1406
 1206ACH    OOH 1206   1.193   3.084   4.042 -0.2134 -0.0169 -0.2141
 1207ACH    OOH 1207   0.241   1.391   4.087  0.1624 -0.2572  0.0529
 1208ACH    OOH 1208   5.991   3.836   2.683 -0.1383  0.3523  0.1275
 1209ACH    OOH 1209   0.952   1.372   0.393  0.2314 -0.1527 -0.0536
 1210ACH    OOH 1210   1.376   3.500   0.617 -0.3604 -0.0198 -0.1944
 1211ACH    OOH 1211   2.462   2.603   3.993 -0.0241 -0.1417  0.1589
 1212ACH    OOH 1212   5.050   2.889   3.757  0.1742 -0.1174  0.3014
 1213ACH    OOH 1213   2.548   4.908   1.499  0.0387 -0.2222  0.2159
 1214ACH    OOH 1214   5.967   4.795   6.328 -0.0757  0.2386  0.3975
 1215ACH    OOH 1215   4.284   4.549   0.466 -0.0087 -0.0539  0.2922
 1216ACH    OOH 1216   0.973   1.142   1.841 -0.0208  0.1634  0.2091
 1217ACH    OOH 1217   3.157   2.393   5.370 -0.0389  0.0306  0.0301
 1218ACH    OOH 1218   5.462   4.544   2.963 -0.1879  0.1870  0.1940
 1219ACH    OOH 1219   6.144   0.126   0.787 -0.2798 -0.4386  0.0066
 1220ACH    OOH 1220   3.630   1.666   2.247 -0.0411  0.2640  0.2380
 1221ACH    OOH 1221   0.460   1.807   1.968  0.1338 -0.1476 -0.2413
 1222ACH    OOH 1222   3.654   1.389   0.379 -0.0897  0.3265 -0.0048
 1223ACH    OOH 1223   5.845   1.413   1.856 -0.0834 -0.0480 -0.1214
 1224ACH    OOH 1224   3.253   4.512   5.297 -0.0912  0.3843 -0.0420
 1225ACH    OOH 1225   3.773   4.805   4.139  0.2048  0.1147  0.2285
 1226ACH    OOH 1226   5.144   0.017   5.683  0.2410 -0.1246  0.1502
 1227ACH    OOH 1227   0.986   3.178   3.520 -0.2416 -0.0958 -0.2212
 1228ACH    OOH 1228   5.164   4.534   0.018  0.1067  0.0967 -0.1549
 1229ACH    OOH 1229   3.503   0.645   1.099 -0.1467  0.1579 -0.2645
 1230ACH    OOH 1230   2.438   1.199   1.250  0.2269  0.2386 -0.1961
 1231ACH    OOH 1231   5.274   2.648   1.026  0.0846  0.0455  0.3486
 1232ACH    OOH 1232   1.152   5.217   1.744 -0.0743  0.2112 -0.1245
 1233ACH    OOH 1233   3.764   6.235   1.414  0.0151  0.2791 -0.1885
 1234ACH    OOH 1234   6.075   2.402   4.532  0.1528 -0.1968 -0.0063
 1235ACH    OOH 1235   2.688   2.805   0.228 -0.4253  0.0330  0.1443
 1236ACH    OOH 1236   0.837   1.297   4.319  0.1528 -0.0419  0.1940
 1237ACH    OOH 1237   1.194   2.771   0.068 -0.0783 -0.1591  0.0841
 1238ACH    OOH 1238   1.430   5.237   2.596  0.0997  0.1264  0.1265
 1239ACH    OOH 1239   3.638   0.980   6.364 -0.0884 -0.2731 -0.1783
 1240ACH    OOH 1240   1.191   6.305   3.544 -0.2178 -0.3099 -0.1359
 1241ACH    OOH 1241   0.051   5.080   3.922 -0.1671 -0.1859 -0.0618
 1242ACH    OOH 1242   3.581   0.246   0.665 -0.1605 -0.0942  0.3262
 1243ACH    OOH 1243   4.109   6.333   3.940  0.2458  0.1966 -0.2106
 1244ACH    OOH 1244   2.594   5.120   2.901  0.0137 -0.1327 -0.1562
 1245ACH    OOH 1245   0.675   5.433   2.453  0.5179  0.2512  0.1218
 1246ACH    OOH 1246   0.056   5.992   5.796 -0.2299 -0.1792  0.1020
 1247ACH    OOH 1247   1.610   2.448   0.663  0.0492 -0.0744 -0.1912
 1248ACH    OOH 1248   0.702   1.218   3.793  0.4197  0.1056 -0.1454
 1249ACH    OOH 1249   3.796   4.951   2.238 -0.3044  0.1317 -0.1910
 1250ACH    OOH 1250   5.507   3.700   2.053 -0.2969 -0.2540 -0.2345
 1251ACH    OOH 1251   6.299   6.330   2.259 -0.0915  0.4327  0.1860
 1252ACH    OOH 1252   2.154   4.469   2.130  0.1355 -0.0624  0.3975
 1253ACH    OOH 1253   2.324   3.310   2.554  0.0589 -0.3592  0.1519
 1254ACH    OOH 1254   1.142   5.566   0.779 -0.0347 -0.0122 -0.0623
 1255ACH    OOH 1255   5.894   1.067   1.501 -0.1690  0.3295 -0.1762
 1256ACH    OOH 1256   3.094   3.130   0.749  0.1976 -0.5126 -0.2562
 1257ACH    OOH 1257   0.280   4.927   2.653 -0.1360  0.1236  0.1465
 1258ACH    OOH 1258   0.432   5.657   5.555  0.0283 -0.1454  0.2168
 1259ACH    OOH 1259   5.717   4.590   3.570 -0.2125  0.2503 -0.1720
 1260ACH    OOH 1260   4.102   1.664   1.696 -0.2347  0.0189  0.1229
 1261ACH    OOH 1261   0.806   2.598   5.511  0.0822  0.2400 -0.1458
 1262ACH    OOH 1262   2.429   1.816   4.561  0.0103 -0.0736 -0.3040
 1263ACH    OOH 1263   0.492   5.902   2.440 -0.1182  0.1571  0.5374
 1264ACH    OOH 1264   2.392   0.651   5.060 -0.2006 -0.0908 -0.0115
 1265ACH    OOH 1265   1.805   3.537   5.377 -0.1765  0.1588  0.1595
 1266ACH    OOH 1266   4.238   4.287   5.695  0.3358  0.2109  0.0547
 1267ACH    OOH 1267   5.628   2.484   0.736 -0.2383  0.4208 -0.0259
 1268ACH    OOH 1268   4.070   0.008   6.178  0.1058  0.0936  0.3619
 1269ACH    OOH 1269   2.422   0.211   5.316 -0.2552 -0.0528  0.0153
 1270ACH    OOH 1270   6.247   1.169   2.085  0.2736  0.2921 -0.1357
 1271ACH    OOH 1271   5.407   1.362   5.811  0.1881  0.0651  0.0498
 1272ACH    OOH 1272   4.916   1.957   3.257 -0.2126  0.2529 -0.1028
 1273ACH    OOH 1273   1.268   2.791   2.365  0.1843  0.0052 -0.1950
 1274ACH    OOH 1274   1.546   2.483   1.242  0.2411 -0.0509 -0.1239
 1275ACH    OOH 1275   6.022   2.033   6.205  0.1720 -0.2053  0.0966
 1276ACH    OOH 1276   2.288   1.344   0.321  0.1811 -0.0377  0.1035
 1277ACH    OOH 1277   3.090   4.095   6.167 -0.4931  0.2783 -0.1686
 1278ACH    OOH 1278   1.648   1.147   3.688  0.0351  0.0843  0.2515
 1279ACH    OOH 1279   3.405   0.209   2.244  0.0971 -0.1249 -0.3835
 1280ACH    OOH 1280   3.509   5.004   5.885 -0.2638  0.4676 -0.0012
 1281ACH    OOH 1281   2.523   1.515   1.682  0.1996 -0.0659  0.1988
 1282ACH    OOH 1282   0.964   1.630   5.054  0.1779  0.3510  0.1519
 1283ACH    OOH 1283   3.641   3.686   5.040  0.1387  0.0200 -0.1207
 1284ACH    OOH 1284   0.072   1.184   5.096  0.1656 -0.0688 -0.0130
 1285ACH    OOH 1285   0.086   5.592   3.907  0.1559 -0.1357 -0.0608
 1286ACH    OOH 1286   5.998   4.111   1.983  0.0919  0.0462 -0.3846
 1287ACH    OOH 1287   6.290   2.911   1.293 -0.1121 -0.1375  0.0791
 1288ACH    OOH 1288   4.787   3.262   3.458 -0.1189 -0.0808  0.3895
 1289ACH    OOH 1289   1.393   1.187   0.653 -0.0087  0.0441  0.2006
 1290ACH    OOH 1290   3.271   3.651   0.006 -0.1962 -0.1605 -0.2950
 1291ACH    OOH 1291   0.655   5.616   5.081 -0.0588 -0.2119 -0.0214
 1292ACH    OOH 1292   0.418   3.846   3.400 -0.1617  0.2766 -0.3415
 1293ACH    OOH 1293   5.057   2.115   5.126  0.0434  0.0471 -0.0313
 1294ACH    OOH 1294   5.358   5.274   0.545 -0.1316  0.2551 -0.0782
 1295ACH    OOH 1295   0.214   0.364   5.904 -0.1938  0.0539 -0.0658
 1296ACH    OOH 1296   0.632   2.861   1.864 -0.0522 -0.2221 -0.2614
 1297ACH    OOH 1297   0.329   4.254   4.350  0.0803 -0.1012 -0.0442
 1298ACH    OOH 1298   3.526   4.700   2.546 -0.1792  0.2301  0.0196
 1299ACH    OOH 1299   0.226   5.556   4.911  0.0595  0.2726 -0.0306
 1300ACH    OOH 1300   0.360   5.230   0.469  0.1218  0.0857  0.0734
 1301ACH    OOH 1301   4.295   1.287   3.536  0.0542 -0.1322  0.1652
 1302ACH    OOH 1302   6.150   1.601   2.901 -0.0255  0.0156 -0.0177
 1303ACH    OOH 1303   4.944   1.771   1.697  0.0166  0.1542 -0.0531
 1304ACH    OOH 1304   4.640   4.867   4.642  0.3142  0.0535 -0.2841
 1305ACH    OOH 1305   2.630   3.014   4.112 -0.0081  0.2296 -0.0531
 1306ACH    OOH 1306   4.030   2.175   3.398 -0.1261  0.2095  0.2074
 1307ACH    OOH 1307   1.427   5.852   1.213  0.1850  0.0784 -0.1002
 1308ACH    OOH 1308   3.134   4.559   2.277  0.3870 -0.3982  0.1062
 1309ACH    OOH 1309   2.661   0.821   0.291 -0.0468 -0.1291  0.0428
 1310ACH    OOH 1310   1.878   1.580   0.576 -0.1075 -0.3870 -0.0053
 1311ACH    OOH 1311   5.782   0.146   4.648 -0.2726  0.1176  0.3219
 1312ACH    OOH 1312   0.623   3.669   2.941  0.3288 -0.0613  0.0512
 1313ACH    OOH 1313   5.482   4.187   4.337  0.0931 -0.1674  0.0139
 1314ACH    OOH 1314   4.850   2.625   6.131  0.0920 -0.1351  0.1548
 1315ACH    OOH 1315   1.793   6.284   4.079 -0.0547  0.1158  0.0307
 1316ACH    OOH 1316   5.118   4.494   4.202 -0.0350  0.0554 -0.1093
 1317ACH    OOH 1317   3.329   2.061   3.055 -0.3009  0.0126  0.0222
 1318ACH    OOH 1318   0.257   5.553   2.181  0.0744 -0.3496 -0.0880
 1319ACH    OOH 1319   6.009   6.028   0.219 -0.2060 -0.0355 -0.0381
 1320ACH    OOH 1320   1.340   3.193   2.637  0.0339  0.1855  0.0146
 1321ACH    OOH 1321   5.123   2.309   1.521 -0.2249 -0.0051  0.1070
 1322ACH    OOH 1322   0.954   5.905   1.098  0.1233 -0.2009 -0.0987
 1323ACH    OOH 1323   5.815   4.144   3.402  0.0245  0.2137 -0.1316
 1324ACH    OOH 1324   2.483   4.615   4.308  0.0180  0.1633  0.2073
 1325ACH    OOH 1325   5.646   0.904   1.064  0.1324  0.0190 -0.0048
 1326ACH    OOH 1326   4.399   4.557   3.558 -0.0140  0.1340  0.1259
 1327ACH    OOH 1327   0.974   5.862   4.350  0.1520 -0.2447  0.0961
 1328ACH    OOH 1328   2.245   0.483   0.163  0.0101  0.0547 -0.0635
 1329ACH    OOH 1329   5.801   3.416   3.685  0.2507  0.2179 -0.0463
 1330ACH    OOH 1330   1.370   6.003   3.925  0.1737  0.3308  0.0941
 1331ACH    OOH 1331   2.905   5.437   5.094  0.0246  0.2814  0.0044
 1332ACH    OOH 1332   2.043   1.432   5.696 -0.1388 -0.0268 -0.3380
 1333ACH    OOH 1333   5.349   3.479   3.101 -0.0526 -0.1371 -0.0055
 1334ACH    OOH 1334   4.276   3.970   6.183  0.0034  0.0164  0.1701
 1335ACH    OOH 1335   1.975   2.373   2.911  0.0020  0.2389 -0.0286
 1336ACH    OOH 1336   0.404   3.362   5.380  0.0682  0.1793  0.1791
 1337ACH    OOH 1337   5.917   5.032   5.835  0.1555  0.2785  0.1624
 1338ACH    OOH 1338   2.903   5.651   1.714 -0.3006 -0.2203  0.1368
 1339ACH    OOH 1339   2.759   6.303   4.466 -0.0085  0.0383  0.0961
 1340ACH    OOH 1340   0.240   4.428   2.716  0.1779 -0.2063 -0.1718
 1341ACH    OOH 1341   5.362   2.343   1.953 -0.0121 -0.2099  0.1127
 1342ACH    OOH 1342   1.725   3.200   3.619  0.0695  0.0783 -0.1463
 1343ACH    OOH 1343   2.558   4.190   0.581  0.0944  0.0935  0.0521
 1344ACH    OOH 1344   4.743   4.428   1.172 -0.2793 -0.0196  0.2231
 1345ACH    OOH 1345   4.409   0.555   4.801  0.1335  0.0220  0.1240
 1346ACH    OOH 1346   3.559   1.812   4.599  0.0504  0.1558  0.0029
 1347ACH    OOH 1347   4.571   6.011   2.818  0.1049 -0.1358 -0.2711
 1348ACH    OOH 1348   3.429   0.998   5.813 -0.1885  0.0959 -0.0855
 1349ACH    OOH 1349   6.133   4.712   5.451 -0.2685 -0.0399 -0.0956
 1350ACH    OOH 1350   2.354   1.477   6.139  0.1825 -0.3282 -0.1202
 1351ACH    OOH 1351   2.782   0.270   1.635  0.0513  0.0826  0.1736
 1352ACH    OOH 1352   3.916   1.916   4.166  0.2414 -0.0595 -0.0120
 1353ACH    OOH 1353   1.896   3.253   4.460  0.3724  0.0603  0.3308
 1354ACH    OOH 1354   0.832   4.570   1.215  0.0545  0.4184  0.0280
 1355ACH    OOH 1355   4.503   0.378   2.974 -0.0870 -0.0111 -0.0135
 1356ACH    OOH 1356   4.080   6.064   2.503 -0.0630 -0.1466  0.0041
 1357ACH    OOH 1357   6.178   5.437   4.651 -0.0221  0.0300  0.0711
 1358ACH    OOH 1358   3.210   0.571   4.784  0.1084  0.0805  0.0963
 1359ACH    OOH 1359   3.530   3.937   1.377  0.2181 -0.2533  0.0476
 1360ACH    OOH 1360   2.369   5.506   5.792  0.1776 -0.1635 -0.1309
 1361ACH    OOH 1361   0.514   0.491   5.434 -0.4686  0.2783  0.1506
 1362ACH    OOH 1362   3.416   5.859   1.537  0.2143 -0.1023  0.0801
 1363ACH    OOH 1363   2.172   4.531   0.795  0.0274 -0.3092  0.3523
 1364ACH    OOH 1364   1.001   5.465   2.778  0.2115 -0.0163  0.1905
 1365ACH    OOH 1365   0.545   5.781   6.004  0.0921 -0.1619 -0.2209
 1366ACH    OOH 1366   6.261   0.779   3.388 -0.1461 -0.1933 -0.0391
 1367ACH    OOH 1367   4.137   2.012   1.315  0.0370 -0.0514  0.1017
 1368ACH    OOH 1368   1.656   4.807   3.764 -0.0189  0.1055 -0.1170
 1369ACH    OOH 1369   4.343   5.910   6.366  0.3226 -0.0342 -0.3217
 1370ACH    OOH 1370   1.739   3.468   1.454  0.0965 -0.0938 -0.1751
 1371ACH    OOH 1371   4.331   2.284   6.300  0.0207  0.3346 -0.1096
 1372ACH    OOH 1372   5.222   2.522   4.712  0.1486  0.2752  0.0241
 1373ACH    OOH 1373   0.220   3.669   2.475  0.0917  0.0924 -0.1816
 1374ACH    OOH 1374   3.996   4.734   3.350  0.2885  0.0144  0.0926
 1375ACH    OOH 1375   4.412   2.781   4.987  0.2480  0.3140  0.1392
 1376ACH    OOH 1376   4.972   0.798   2.490  0.1793 -0.1390  0.1659
 1377ACH    OOH 1377   4.561   3.881   4.072 -0.0455 -0.0140 -0.1433
 1378ACH    OOH 1378   3.707   1.100   5.381  0.2484 -0.0094  0.0870
 1379ACH    OOH 1379   2.162   2.469   3.392 -0.2902  0.1414 -0.1484
 1380ACH    OOH 1380   4.519   1.669   2.232  0.0555  0.1281  0.1393
 1381ACH    OOH 1381   6.054   3.544   4.760  0.1209 -0.0064 -0.2576
 1382ACH    OOH 1382   3.650   1.368   1.850 -0.1824  0.0765 -0.4069
 1383ACH    OOH 1383   2.320   2.936   3.599 -0.4831 -0.2214  0.1279
 1384ACH    OOH 1384   2.076   2.422   0.540  0.0823 -0.3127  0.2197
 1385ACH    OOH 1385   1.338   4.481   3.905 -0.2498 -0.0661  0.0159
 1386ACH    OOH 1386   2.747   2.739   1.841  0.2589 -0.3408  0.0666
 1387ACH    OOH 1387   0.384   1.113   5.981 -0.1065  0.2776  0.2296
 1388ACH    OOH 1388   2.010   0.933   2.552  0.3310  0.0990 -0.3045
 1389ACH    OOH 1389   0.787   6.300   2.701 -0.0430  0.0242 -0.1851
 1390ACH    OOH 1390   4.510   5.435   4.813  0.1471 -0.3960  0.0687
 1391ACH    OOH 1391   2.447   5.817   5.199 -0.2401 -0.2130  0.0971
 1392ACH    OOH 1392   6.142   0.794   5.253 -0.1329  0.0910 -0.0118
 1393ACH    OOH 1393   4.095   0.838   3.548 -0.3672 -0.1430  0.0360
 1394ACH    OOH 1394   5.051   1.865   6.239  0.0087  0.1416  0.1558
 1395ACH    OOH 1395   3.877   5.796   0.162 -0.1217 -0.0702  0.3782
 1396ACH    OOH 1396   4.523   4.015   4.843 -0.1620 -0.1267 -0.0569
 1397ACH    OOH 1397   1.492   6.155   4.871  0.0835 -0.0406  0.1889
 1398ACH    OOH 1398   0.111   4.051   1.789 -0.1520 -0.0056  0.1428
 1399ACH    OOH 1399   0.458   2.084   6.228  0.4035  0.2492 -0.2292
 1400ACH    OOH 1400   3.174   4.847   3.523 -0.1986 -0.1833  0.0532
 1401ACH    OOH 1401   6.299   5.846   4.331  0.0063 -0.3525  0.2027
 1402ACH    OOH 1402   3.150   0.578   0.562 -0.1982 -0.2061 -0.2042
 1403ACH    OOH 1403   1.706   1.959   3.217  0.0617  0.5638 -0.1098
 1404ACH    OOH 1404   0.436   1.403   0.541  0.0337 -0.3342  0.1815
 1405ACH    OOH 1405   6.069   1.448   6.208 -0.1562  0.0263  0.2947
 1406ACH    OOH 1406   2.442   2.384   1.672  0.1228  0.2565 -0.3757
 1407ACH    OOH 1407   6.077   1.549   4.211 -0.2844 -0.0614  0.1007
 1408ACH    OOH 1408   0.190   4.268   3.218 -0.2404 -0.1959 -0.1349
 1409ACH    OOH 1409   4.456   3.065   3.715 -0.1017  0.2038  0.0581
 1410ACH    OOH 1410   1.385   6.265   2.599 -0.0345  0.1403 -0.0123
 1411ACH    OOH 1411   0.494   3.357   3.250 -0.0029  0.0540 -0.2301
 1412ACH    OOH 1412   0.217   5.768   1.647  0.1880  0.2723  0.0068
 1413ACH    OOH 1413   5.071   2.726   1.816 -0.1808  0.0128  0.2418
 1414ACH    OOH 1414   2.278   0.060   6.335 -0.1482  0.1757 -0.0836
 1415ACH    OOH 1415   5.519   3.380   0.660 -0.1300 -0.0260  0.0965
 1416ACH    OOH 1416   2.055   0.202   3.772  0.0811  0.4217 -0.0185
 1417ACH    OOH 1417   2.011   3.138   5.853  0.1858 -0.0434  0.1777
 1418ACH    OOH 1418   6.253   4.934   4.432 -0.1000 -0.2928  0.3361
 1419ACH    OOH 1419   2.127   4.477   6.256 -0.0794  0.1317  0.3282
 1420ACH    OOH 1420   4.993   5.668   0.597  0.0789 -0.1873 -0.0493
 1421ACH    OOH 1421   1.392   1.490   3.318 -0.3776 -0.2303  0.0901
 1422ACH    OOH 1422   2.029   6.018   1.950  0.0340 -0.1707  0.0886
 1423ACH    OOH 1423   2.889   4.606   1.311 -0.1436  0.0097  0.0234
 1424ACH    OOH 1424   1.668   4.782   6.219  0.0106 -0.1453 -0.2869
 1425ACH    OOH 1425   2.972   0.038   2.031 -0.2180  0.0249 -0.0066
 1426ACH    OOH 1426   4.535   4.901   1.218 -0.1272  0.1327  0.0644
 1427ACH    OOH 1427   5.798   0.524   6.255 -0.0185  0.1540  0.0926
 1428ACH    OOH 1428   3.707   2.309   2.144 -0.0251  0.1538  0.1811
 1429ACH    OOH 1429   2.000   5.526   6.185 -0.4292  0.3997 -0.3652
 1430ACH    OOH 1430   1.173   6.308   1.393  0.3111  0.0645 -0.0622
 1431ACH    OOH 1431   6.137   1.711   0.753  0.1261 -0.0280 -0.0186
 1432ACH    OOH 1432   5.243   5.999   1.396  0.1507 -0.2573  0.0803
 1433ACH    OOH 1433   4.641   0.531   2.306  0.2536  0.0191 -0.0831
 1434ACH    OOH 1434   5.350   0.342   0.242  0.1504  0.0044 -0.0629
 1435ACH    OOH 1435   4.815   6.071   0.136  0.0175 -0.0448 -0.0601
 1436ACH    OOH 1436   4.187   4.134   4.442 -0.1175 -0.0412 -0.0642
 1437ACH    OOH 1437   5.227   3.157   2.689 -0.0431 -0.2191  0.0755
 1438ACH    OOH 1438   3.247   0.059   5.905  0.1452 -0.2667  0.3470
 1439ACH    OOH 1439   4.399   5.063   3.409 -0.0076  0.2208  0.2469
 1440ACH    OOH 1440   4.408   2.885   5.863 -0.3210 -0.1219  0.0771
 1441ACH    OOH 1441   2.086   3.874   1.386  0.2283  0.1450  0.2024
 1442ACH    OOH 1442   3.577   5.384   2.312  0.1973  0.0266  0.1769
 1443ACH    OOH 1443   4.879   2.965   0.963  0.0382  0.3147 -0.1738
 1444ACH    OOH 1444   4.917   0.537   5.856  0.3471 -0.0962  0.1586
 1445ACH    OOH 1445   4.159   5.024   0.836 -0.6349 -0.0748  0.0923
 1446ACH    OOH 1446   5.278   3.277   5.313  0.1707 -0.0395  0.1040
 1447ACH    OOH 1447   2.310   5.584   2.805  0.1689 -0.1083 -0.0187
 1448ACH    OOH 1448   1.072   3.994   2.132  0.1113 -0.2345 -0.0801
 1449ACH    OOH 1449   6.198   6.190   3.211  0.1071 -0.0653  0.4417
 1450ACH    OOH 1450   1.169   5.259   4.508 -0.1589 -0.0421 -0.0576
 1451ACH    OOH 1451   2.058   5.672   5.440  0.4067  0.0147 -0.1193
 1452ACH    OOH 1452   6.011   3.050   4.825  0.0897  0.0717 -0.0884
 1453ACH    OOH 1453   5.753   4.537   5.015  0.2689  0.2024 -0.1568
 1454ACH    OOH 1454   6.359   3.426   1.420 -0.2103  0.2288 -0.0603
 1455ACH    OOH 1455   5.698   6.270   3.099 -0.3771 -0.1710  0.2205
 1456ACH    OOH 1456   5.002   3.991   5.634  0.0721  0.2442 -0.3441
 1457ACH    OOH 1457   3.871   3.784   0.577  0.1178 -0.2149 -0.0324
 1458ACH    OOH 1458   2.856   4.883   0.471  0.0206  0.0660 -0.0435
 1459ACH    OOH 1459   0.969   2.189   3.946 -0.0863  0.1800  0.0871
 1460ACH    OOH 1460   5.262   5.441   1.022  0.1194 -0.3266 -0.0602
 1461ACH    OOH 1461   3.343   0.090   3.589 -0.2325 -0.0852 -0.2482
 1462ACH    OOH 1462   3.533   1.515   5.734  0.0522  0.0385 -0.0489
 1463ACH    OOH 1463   0.229   1.875   1.062  0.1719  0.2104 -0.1090
 1464ACH    OOH 1464   6.246   1.580   2.379  0.0245  0.1890  0.0261
 1465ACH    OOH 1465   5.200   1.592   0.779 -0.1801  0.0727  0.2346
 1466ACH    OOH 1466   4.135   3.224   1.396  0.3385 -0.1468 -0.1062
 1467ACH    OOH 1467   1.053   1.295   5.428  0.0736  0.2130 -0.0053
 1468ACH    OOH 1468   1.113   3.605   4.864  0.0564  0.1874  0.3748
 1469ACH    OOH 1469   4.850   1.027   1.743 -0.1764  0.0780 -0.0165
 1470ACH    OOH 1470   5.568   3.819   3.728  0.1549 -0.0624  0.1155
 1471ACH    OOH 1471   4.677   4.795   4.162  0.0353 -0.3914  0.0478
 1472ACH    OOH 1472   0.147   1.976   3.345  0.1262 -0.0820  0.3914
 1473ACH    OOH 1473   3.304   0.434   5.578  0.0186 -0.0927 -0.3165
 1474ACH    OOH 1474   4.294   2.540   3.088  0.2771  0.0530 -0.3453
 1475ACH    OOH 1475   0.415   3.163   1.493 -0.0416  0.1748 -0.3166
 1476ACH    OOH 1476   3.151   0.259   2.711 -0.1062 -0.0174 -0.0714
 1477ACH    OOH 1477   5.822   3.326   2.879  0.2575  0.0020 -0.0304
 1478ACH    OOH 1478   6.039   2.948   3.672  0.2858 -0.3011 -0.1093
 1479ACH    OOH 1479   0.256   4.540   2.221 -0.3568 -0.0673  0.2499
 1480ACH    OOH 1480   2.943   0.026   5.336  0.0935 -0.2553 -0.0808
 1481ACH    OOH 1481   4.193   1.410   5.231 -0.1425 -0.1179 -0.1193
 1482ACH    OOH 1482   4.760   1.315   0.023  0.0889 -0.0800  0.2219
 1483ACH    OOH 1483   0.346   3.313   0.975 -0.3127 -0.1591  0.0307
 1484ACH    OOH 1484   0.440   4.895   1.081 -0.0452 -0.3013 -0.4571
 1485ACH    OOH 1485   2.764   3.594   2.118 -0.0411 -0.0121 -0.1434
 1486ACH    OOH 1486   3.326   1.342   6.201  0.2334 -0.0376 -0.0418
 1487ACH    OOH 1487   3.905   0.534   5.702  0.1765  0.0328  0.1780
 1488ACH    OOH 1488   4.998   3.503   5.690 -0.0168  0.2395  0.1285
 1489ACH    OOH 1489   2.652   1.767   3.612 -0.1544 -0.2809  0.0943
 1490ACH    OOH 1490   2.789   4.294   5.302 -0.2371  0.2424  0.0740
 1491ACH    OOH 1491   6.103   0.666   0.921  0.6057  0.3749  0.2185
 1492ACH    OOH 1492   2.875   4.202   1.759 -0.1426 -0.0124  0.0418
 1493ACH    OOH 1493   4.815   5.188   0.371 -0.0084  0.1404 -0.2452
 1494ACH    OOH 1494   3.957   2.460   5.217 -0.2418  0.0005  0.1068
 1495ACH    OOH 1495   5.693   1.587   2.616  0.0409  0.0284 -0.3030
 1496ACH    OOH 1496   4.663   3.987   1.583  0.0446 -0.1327  0.2767
 1497ACH    OOH 1497   3.636   3.821   2.860 -0.1871 -0.1245  0.1790
 1498ACH    OOH 1498   6.109   2.836   4.214  0.0612 -0.4166 -0.0790
 1499ACH    OOH 1499   1.593   3.272   1.939 -0.0432  0.1949 -0.3016
 1500ACH    OOH 1500   2.761   1.369   0.408  0.0445  0.1828  0.0275
 1501ACH    OOH 1501   4.701   3.711   5.227 -0.1497 -0.2528  0.1165
 1502ACH    OOH 1502   2.359   3.137   4.521 -0.1582 -0.0494  0.2050
 1503ACH    OOH 1503   2.357   3.637   4.624  0.1096 -0.1950 -0.0676
 1504ACH    OOH 1504   2.176   2.175   1.274  0.1472 -0.1215  0.1752
 1505ACH    OOH 1505   5.643   3.321   4.483 -0.2267 -0.0507  0.3588
 1506ACH    OOH 1506   4.474   2.126   2.578  0.0441  0.0136  0.2801
 1507ACH    OOH 1507   4.315   4.475   4.826  0.0760  0.0661  0.0016
 1508ACH    OOH 1508   1.588   3.030   0.330 -0.0371 -0.3009 -0.0572
 1509ACH    OOH 1509   4.754   0.943   4.733  0.1632  0.4050  0.0690
 1510ACH    OOH 1510   0.672   1.103   2.810  0.0891 -0.0726  0.0819
 1511ACH    OOH 1511   6.192   3.285   0.830  0.0086 -0.0893  0.0450
 1512ACH    OOH 1512   5.620   3.104   3.266 -0.2744 -0.0493 -0.2393
 1513ACH    OOH 1513   0.640   3.952   4.663  0.0689 -0.0154  0.1805
 1514ACH    OOH 1514   1.999   1.471   3.525  0.0376 -0.0151 -0.1512
 1515ACH    OOH 1515   5.721   5.461   1.677 -0.1099 -0.1454 -0.3887
 1516ACH    OOH 1516   5.080   3.931   4.176 -0.1382  0.1472  0.0809
 1517ACH    OOH 1517   4.188   5.451   6.278  0.3328 -0.3476  0.0575
 1518ACH    OOH 1518   1.604   4.924   5.354 -0.2215 -0.0189 -0.1650
 1519ACH    OOH 1519   3.837   1.317   4.931 -0.0284  0.1180  0.4054
 1520ACH    OOH 1520   2.514   1.864   0.052 -0.0836  0.2602 -0.2910
 1521ACH    OOH 1521   3.128   3.184   2.061 -0.1022  0.1834  0.1024
 1522ACH    OOH 1522   2.779   1.349   4.537 -0.2163  0.0744 -0.0785
 1523ACH    OOH 1523   0.631   3.034   5.790 -0.1810  0.4173 -0.1389
 1524ACH    OOH 1524   4.656   3.802   2.389 -0.0479 -0.2291  0.0264
 1525ACH    OOH 1525   6.144   5.931   1.389  0.0431 -0.1189 -0.1238
 1526ACH    OOH 1526   4.414   3.383   4.168  0.1677  0.0680  0.1690
 1527ACH    OOH 1527   4.438   3.422   2.171  0.0244 -0.0659 -0.0525
 1528ACH    OOH 1528   3.630   2.830   2.356  0.0081  0.2294  0.1064
 1529ACH    OOH 1529   4.540   5.894   2.126  0.0189 -0.0420  0.1715
 1530ACH    OOH 1530   2.320   0.558   1.593 -0.1873  0.3050 -0.2066
 1531ACH    OOH 1531   0.806   3.020   2.336 -0.0038 -0.0615  0.2327
 1532ACH    OOH 1532   0.587   1.402   1.018 -0.0817 -0.0917 -0.0283
 1533ACH    OOH 1533   1.273   1.978   3.528 -0.0681 -0.2104 -0.2733
 1534ACH    OOH 1534   3.026   2.548   4.142 -0.0213 -0.1038 -0.1248
 1535ACH    OOH 1535   3.568   2.815   5.361 -0.2326 -0.2086 -0.2101
 1536ACH    OOH 1536   0.325   3.580   4.532 -0.0962  0.0210 -0.0355
 1537ACH    OOH 1537   0.284   5.707   0.247 -0.2774 -0.0183  0.0273
 1538ACH    OOH 1538   5.175   5.024   0.078  0.2949 -0.1666 -0.0727
 1539ACH    OOH 1539   2.852   2.901   1.184 -0.0663  0.1335 -0.1598
 1540ACH    OOH 1540   3.387   2.377   1.692 -0.1693  0.2542  0.0602
 1541ACH    OOH 1541   2.944   2.115   2.734  0.1669 -0.0119 -0.0077
 1542ACH    OOH 1542   4.962   0.283   2.759 -0.0904  0.1338  0.1053
 1543ACH    OOH 1543   2.134   1.194   0.810 -0.0350 -0.0181 -0.0796
 1544ACH    OOH 1544   6.324   0.816   1.356  0.3752  0.3364  0.2543
 1545ACH    OOH 1545   4.719   1.248   5.181 -0.2197  0.0550  0.2223
 1546ACH    OOH 1546   5.139   3.395   4.809  0.0115  0.0822  0.0148
 1547ACH    OOH 1547   3.701   4.860   0.954 -0.2966  0.3672  0.1139
 1548ACH    OOH 1548   1.682   2.850   4.693  0.0043 -0.2063  0.0086
 1549ACH    OOH 1549   4.555   3.335   5.517 -0.3307  0.0526 -0.2375
 1550ACH    OOH 1550   4.767   1.957   5.484 -0.0534 -0.0869  0.0678
 1551ACH    OOH 1551   4.389   2.294   1.023  0.1231  0.4069  0.2235
 1552ACH    OOH 1552   2.626   5.826   4.592 -0.1199 -0.2120  0.1867
 1553ACH    OOH 1553   0.114   2.394   2.956  0.2045  0.1420  0.1955
 1554ACH    OOH 1554   4.221   1.044   1.592  0.0785  0.2439 -0.0105
 1555ACH    OOH 1555   5.712   3.537   1.129 -0.1925  0.1826  0.0982
 1556ACH    OOH 1556   5.518   2.687   0.267  0.1542 -0.0752  0.0740
 1557ACH    OOH 1557   3.267   6.034   3.884  0.0999  0.2496 -0.0016
 1558ACH    OOH 1558   3.290   0.717   3.007 -0.1874  0.1173  0.0214
 1559ACH    OOH 1559   1.666   2.370   4.797  0.0360  0.2148 -0.1999
 1560ACH    OOH 1560   5.437   3.845   0.685  0.1398 -0.0532  0.1603
 1561ACH    OOH 1561   3.319   2.799   3.497 -0.1834 -0.2559 -0.0525
 1562ACH    OOH 1562   3.806   2.062   4.984  0.2525  0.2683  0.0960
 1563ACH    OOH 1563   5.148   2.932   2.241 -0.5444  0.0231 -0.3787
 1564ACH    OOH 1564   6.280   6.041   3.665  0.0393  0.1696 -0.1745
 1565ACH    OOH 1565   4.834   5.751   1.223  0.1105 -0.0755  0.1276
 1566ACH    OOH 1566   3.519   1.548   3.680  0.1667  0.0422 -0.1821
 1567ACH    OOH 1567   1.494   4.222   2.536  0.0266  0.0782  0.2265
 1568ACH    OOH 1568   3.449   2.366   4.143 -0.1423 -0.3637 -0.1981
 1569ACH    OOH 1569   3.204   3.070   5.648 -0.1726  0.1315 -0.0475
 1570ACH    OOH 1570   3.067   0.951   4.386 -0.0955 -0.0253  0.2818
 1571ACH    OOH 1571   2.148   0.437   2.684  0.1208 -0.2578 -0.3987
 1572ACH    OOH 1572   3.330   4.356   1.608 -0.0116 -0.1429 -0.0394
 1573ACH    OOH 1573   1.961   3.097   2.268  0.2458 -0.3228 -0.1283
 1574ACH    OOH 1574   0.666   4.151   3.027  0.0446  0.1601  0.1482
 1575ACH    OOH 1575   2.021   2.348   3.973  0.0441  0.1079 -0.1448
 1576ACH    OOH 1576   3.505   4.374   5.713 -0.0760 -0.1077  0.0139
 1577ACH    OOH 1577   6.181   4.701   2.673 -0.0391 -0.0904 -0.0990
 1578ACH    OOH 1578   4.750   4.221   2.118 -0.0007  0.0235 -0.1312
 1579ACH    OOH 1579   2.132   2.809   4.891  0.0763  0.0758  0.0054
 1580ACH    OOH 1580   3.959   3.686   5.973 -0.3421 -0.0278  0.0386
 1581ACH    OOH 1581   4.911   0.328   1.928  0.0149  0.0265 -0.3277
 1582ACH    OOH 1582   5.473   2.689   1.492 -0.3553 -0.1823  0.1174
 1583ACH    OOH 1583   5.756   1.324   0.195 -0.0646 -0.3026 -0.2333
 1584ACH    OOH 1584   5.210   0.479   5.402  0.0400  0.2090  0.1847
 1585ACH    OOH 1585   4.731   2.605   1.267  0.3671  0.2482 -0.0148
 1586ACH    OOH 1586   1.965   0.717   3.577 -0.0556 -0.0288  0.0394
 1587ACH    OOH 1587   3.725   3.324   2.427 -0.1101 -0.0451 -0.2503
 1588ACH    OOH 1588   3.827   6.269   0.272  0.0429  0.2822  0.1919
 1589ACH    OOH 1589   2.242   2.761   3.009 -0.0515 -0.0268 -0.1476
 1590ACH    OOH 1590   1.684   2.042   0.416  0.0557 -0.0638 -0.5593
 1591ACH    OOH 1591   0.719   2.801   3.837 -0.1136 -0.2600 -0.3081
 1592ACH    OOH 1592   1.341   5.227   5.570  0.2914  0.4059 -0.0596
 1593ACH    OOH 1593   0.748   0.238   6.254 -0.0147 -0.0891 -0.0867
 1594ACH    OOH 1594   4.523   3.510   0.714  0.1659  0.0790  0.0694
 1595ACH    OOH 1595   5.487   1.387   1.161  0.1593 -0.0155 -0.0795
 1596ACH    OOH 1596   2.417   5.721   2.313  0.0185 -0.0548  0.2100
 1597ACH    OOH 1597   1.504   0.805   3.322 -0.0157  0.0558 -0.2533
 1598ACH    OOH 1598   2.672   0.983   5.316  0.1114 -0.0422 -0.1626
 1599ACH    OOH 1599   4.050   1.987   5.425 -0.1884  0.0890 -0.0256
 1600ACH    OOH 1600   4.866   5.663   3.066  0.1479  0.1784 -0.0614
 1601ACH    OOH 1601   5.465   3.055   4.884  0.0206 -0.1131 -0.4315
 1602ACH    OOH 1602   6.093   5.265   3.114  0.1423 -0.0310 -0.0057
 1603ACH    OOH 1603   6.263   2.796   0.103  0.1290  0.0851  0.0551
 1604ACH    OOH 1604   6.245   5.218   2.623 -0.2280 -0.2663  0.0062
 1605ACH    OOH 1605   1.941   3.783   4.961  0.3072 -0.0917 -0.1814
 1606ACH    OOH 1606   3.437   4.356   0.084  0.1694  0.1901  0.2273
 1607ACH    OOH 1607   2.744   3.698   6.102 -0.0261  0.0174  0.0797
 1608ACH    OOH 1608   2.134   3.459   0.954  0.1643  0.0432  0.0511
 1609ACH    OOH 1609   5.275   5.800   3.259 -0.3599 -0.1164 -0.3797
 1610ACH    OOH 1610   1.493   3.437   4.185 -0.0209  0.0661 -0.1172
 1611ACH    OOH 1611   0.066   2.420   4.188 -0.0267 -0.1551  0.0780
 1612ACH    OOH 1612   0.927   2.198   4.416  0.1982  0.1805 -0.0016
 1613ACH    OOH 1613   4.849   3.929   1.061 -0.0626 -0.2932  0.1941
 1614ACH    OOH 1614   2.745   5.979   4.003 -0.0858  0.0908 -0.0615
 1615ACH    OOH 1615   5.711   2.141   5.775  0.1593 -0.3306 -0.2769
 1616ACH    OOH 1616   3.789   2.462   5.721 -0.0308  0.0823  0.2731
 1617ACH    OOH 1617   5.408   3.155   5.769  0.0937 -0.1495  0.2007
 1618ACH    OOH 1618   2.027   4.800   3.381 -0.1431  0.2941 -0.1357
 1619ACH    OOH 1619   2.199   6.331   4.497 -0.1723  0.0772  0.2993
 1620ACH    OOH 1620   2.944   4.435   0.260 -0.0046 -0.0879 -0.3158
 1621ACH    OOH 1621   4.389   0.633   5.759 -0.0404  0.2668  0.2727
 1622ACH    OOH 1622   3.230   5.077   2.138 -0.2218 -0.0156 -0.2370
 1623ACH    OOH 1623   0.003   0.264   4.158  0.6930 -0.2604  0.2046
 1624ACH    OOH 1624   5.877   1.885   2.025 -0.4488  0.0016 -0.0187
 1625ACH    OOH 1625   3.816   1.443   6.183 -0.4293  0.1919  0.0646
 1626ACH    OOH 1626   2.830   6.216   5.791 -0.0248  0.0605  0.2813
 1627ACH    OOH 1627   0.135   0.316   3.171  0.0349 -0.2448 -0.0606
 1628ACH    OOH 1628   6.050   3.819   1.552 -0.2876 -0.0948  0.0663
 1629ACH    OOH 1629   4.944   5.963   4.552  0.1496 -0.1718 -0.1915
 1630ACH    OOH 1630   2.196   3.675   5.662 -0.0098 -0.0176 -0.0771
 1631ACH    OOH 1631   6.170   3.438   6.130  0.0358 -0.2874 -0.1028
 1632ACH    OOH 1632   1.101   0.414   5.339 -0.3096  0.0965 -0.0551
 1633ACH    OOH 1633   5.035   3.794   1.861  0.0969 -0.1296  0.1394
 1634ACH    OOH 1634   3.100   2.235   0.478  0.3452 -0.1917 -0.1971
 1635ACH    OOH 1635   2.638   5.513   6.310 -0.0872  0.0172 -0.0655
 1636ACH    OOH 1636   6.030   2.028   2.647 -0.0418  0.2842 -0.0011
 1637ACH    OOH 1637   1.900   3.940   2.671  0.3186  0.0075 -0.1012
 1638ACH    OOH 1638   1.413   2.010   0.960 -0.2071  0.2196 -0.0317
 1639ACH    OOH 1639   1.178   3.467   1.638  0.2917  0.0168 -0.1160
 1640ACH    OOH 1640   2.305   6.165   3.607 -0.2223  0.1473 -0.1456
 1641ACH    OOH 1641   3.096   0.646   6.139 -0.0693 -0.1532 -0.0287
 1642ACH    OOH 1642   1.434   3.963   5.623 -0.0564  0.0267  0.2086
 1643ACH    OOH 1643   2.801   3.822   5.127 -0.1058 -0.2588  0.0835
 1644ACH    OOH 1644   6.359   2.319   5.062 -0.1533  0.0305 -0.4319
 1645ACH    OOH 1645   2.277   2.003   3.177 -0.0641  0.1599  0.1776
 1646ACH    OOH 1646   1.206   3.499   2.204 -0.0398  0.1366 -0.1509
 1647ACH    OOH 1647   3.338   1.493   1.342 -0.0795 -0.1263  0.2366
 1648ACH    OOH 1648   6.115   3.859   3.729 -0.0233  0.1229 -0.0815
 1649ACH    OOH 1649   3.253   5.919   0.835 -0.1487 -0.0360 -0.0584
 1650ACH    OOH 1650   0.639   2.061   5.689  0.6094  0.2016  0.1007
 1651ACH    OOH 1651   1.892   4.221   1.090  0.1936 -0.1199 -0.1573
 1652ACH    OOH 1652   0.066   0.454   2.165  0.3336  0.2734 -0.0420
 1653ACH    OOH 1653   2.907   5.164   6.070  0.0851 -0.3962  0.1390
 1654ACH    OOH 1654   1.966   5.167   5.660 -0.0784  0.0781  0.1929
 1655ACH    OOH 1655   1.935   1.160   1.261  0.0293  0.0005 -0.1023
 1656ACH    OOH 1656   2.800   5.120   4.302  0.1325 -0.1247  0.1072
 1657ACH    OOH 1657   0.349   4.219   4.941 -0.1789  0.0941 -0.0463
 1658ACH    OOH 1658   3.565   4.094   3.657 -0.0378  0.0208 -0.0856
 1659ACH    OOH 1659   1.113   4.714   4.678  0.1748  0.1522  0.3308
 1660ACH    OOH 1660   3.578   3.166   1.758  0.0882 -0.1432 -0.0391
 1661ACH    OOH 1661   5.384   1.370   1.678 -0.0284  0.3698  0.0207
 1662ACH    OOH 1662   4.728   0.233   4.224  0.1045 -0.1345 -0.1034
 1663ACH    OOH 1663   2.232   4.965   2.026  0.1988  0.1288 -0.1230
 1664ACH    OOH 1664   3.141   2.670   2.573 -0.1678 -0.0037 -0.1441
 1665ACH    OOH 1665   1.739   3.772   3.808 -0.2456  0.0773  0.1575
 1666ACH    OOH 1666   5.277   4.955   3.757  0.0330 -0.3499  0.0703
 1667ACH    OOH 1667   2.943   0.967   2.204  0.0672  0.0780  0.2956
 1668ACH    OOH 1668   4.837   5.323   4.457  0.2354  0.1722 -0.2495
 1669ACH    OOH 1669   2.762   3.446   4.804 -0.0209  0.5315 -0.2599
 1670ACH    OOH 1670   6.179   1.631   1.412 -0.3275 -0.2462 -0.2665
 1671ACH    OOH 1671   5.250   4.665   5.146 -0.0090 -0.2155 -0.3839
 1672ACH    OOH 1672   5.906   4.573   4.501 -0.0029  0.0908 -0.2224
 1673ACH    OOH 1673   1.120   5.471   2.166 -0.1068 -0.0666 -0.1250
 1674ACH    OOH 1674   4.129   3.006   2.136  0.0832 -0.1610 -0.1220
 1675ACH    OOH 1675   1.978   6.151   5.983  0.0279 -0.1330 -0.0431
 1676ACH    OOH 1676   6.127   2.076   1.271 -0.1409 -0.0445 -0.1001
 1677ACH    OOH 1677   2.503   3.261   3.046  0.0329  0.2656 -0.3796
 1678ACH    OOH 1678   1.443   1.714   5.438 -0.2229 -0.0166  0.1080
 1679ACH    OOH 1679   0.590   4.503   0.191 -0.1452 -0.0194 -0.2177
 1680ACH    OOH 1680   3.938   0.146   2.345  0.3026 -0.1117  0.1069
 1681ACH    OOH 1681   6.017   5.906   6.087  0.3290  0.2022  0.0327
 1682ACH    OOH 1682   5.197   3.793   5.180  0.0609  0.2696  0.0932
 1683ACH    OOH 1683   5.516   1.880   1.666 -0.0504 -0.1462  0.3586
 1684ACH    OOH 1684   2.718   0.327   3.712  0.3858  0.0405 -0.2278
 1685ACH    OOH 1685   3.397   0.934   1.946 -0.0217  0.0842 -0.0590
 1686ACH    OOH 1686   2.410   0.126   5.840  0.0776 -0.1669 -0.1671
 1687ACH    OOH 1687   4.520   1.352   1.821 -0.2214  0.0159  0.1421
 1688ACH    OOH 1688   2.699   3.613   0.682 -0.0715 -0.0797 -0.1581
 1689ACH    OOH 1689   3.755   4.170   4.138  0.0476 -0.1260  0.0831
 1690ACH    OOH 1690   6.217   1.918   4.552 -0.3048 -0.0732 -0.0407
 1691ACH    OOH 1691   2.794   3.815   3.705  0.2424  0.1356  0.3593
 1692ACH    OOH 1692   5.881   4.954   2.430  0.3359 -0.1619  0.1435
 1693ACH    OOH 1693   0.037   2.175   0.208  0.1647  0.0299  0.5462
 1694ACH    OOH 1694   2.752   0.798   4.692  0.1121 -0.1992 -0.2826
 1695ACH    OOH 1695   5.032   3.878   4.668 -0.0895 -0.1939 -0.0520
 1696ACH    OOH 1696   1.939   4.345   4.971  0.0561 -0.1132 -0.0864
 1697ACH    OOH 1697   1.638   0.514   5.763  0.2884 -0.2044  0.3075
 1698ACH    OOH 1698   0.703   5.003   4.442 -0.0432 -0.1018 -0.2938
 1699ACH    OOH 1699   1.149   4.584   0.729  0.1081  0.4410 -0.0929
 1700ACH    OOH 1700   0.314   0.007   5.594 -0.0087 -0.1213  0.1945
 1701ACH    OOH 1701   6.117   4.522   2.230 -0.0253 -0.1824 -0.3111
 1702ACH    OOH 1702   4.605   0.031   4.683 -0.0894  0.1854  0.0494
 1703ACH    OOH 1703   0.343   0.793   4.989  0.0863  0.0279  0.1253
 1704ACH    OOH 1704   0.175   1.890   2.808 -0.1479  0.2309 -0.2417
 1705ACH    OOH 1705   3.297   5.313   3.552  0.1141 -0.1120 -0.0975
 1706ACH    OOH 1706   2.271   1.358   2.643 -0.1020  0.1169  0.0140
 1707ACH    OOH 1707   2.259   2.722   2.008 -0.0959 -0.3372 -0.0437
 1708ACH    OOH 1708   3.763   0.264   1.884 -0.3429 -0.0986  0.0243
 1709ACH    OOH 1709   6.131   5.499   3.560 -0.1565 -0.1521  0.1555
 1710ACH    OOH 1710   3.866   6.279   0.841 -0.0521  0.4864 -0.0911
 1711ACH    OOH 1711   2.048   5.225   3.030  0.1661  0.1645 -0.2185
 1712ACH    OOH 1712   5.034   4.181   2.835  0.1161 -0.1420 -0.3057
 1713ACH    OOH 1713   5.268   2.430   3.046  0.0221  0.2349  0.3111
 1714ACH    OOH 1714   5.614   5.701   1.271 -0.1329  0.0839 -0.3327
 1715ACH    OOH 1715   2.848   1.449   1.255  0.1136 -0.1026 -0.0948
 1716ACH    OOH 1716   2.138   4.243   0.393 -0.1496 -0.1712  0.0974
 1717ACH    OOH 1717   4.837   0.294   0.320 -0.1620 -0.0907 -0.1685
 1718ACH    OOH 1718   5.862   0.322   5.141 -0.0855  0.2601  0.0539
 1719ACH    OOH 1719   2.479   0.102   4.139  0.2209 -0.0334  0.3413
 1720ACH    OOH 1720   4.159   4.641   2.547 -0.3447  0.0990  0.0076
 1721ACH    OOH 1721   4.260   3.183   2.610 -0.0062 -0.0887 -0.1081
 1722ACH    OOH 1722   1.614   1.666   3.759 -0.0464  0.0040 -0.0716
 1723ACH    OOH 1723   6.270   3.849   3.275  0.0158  0.3083  0.0697
 1724ACH    OOH 1724   6.156   4.934   3.558  0.1322 -0.0396 -0.1095
 1725ACH    OOH 1725   5.299   1.141   2.364 -0.1500  0.2848 -0.0813
 1726ACH    OOH 1726   0.944   0.053   3.129  0.2197 -0.0337  0.0982
 1727ACH    OOH 1727   2.407   2.848   1.481 -0.1519  0.1099 -0.1075
 1728ACH    OOH 1728   1.318   3.424   0.057 -0.1176  0.0465 -0.0431
 1729ACH    OOH 1729   3.839   4.476   3.758  0.1630  0.2755 -0.3492
 1730ACH    OOH 1730   3.912   4.217   3.339 -0.2699  0.1613  0.0476
 1731ACH    OOH 1731   5.440   6.366   1.930  0.1934  0.3848  0.1396
 1732ACH    OOH 1732   1.750   4.389   2.982  0.1639  0.1324 -0.1748
 1733ACH    OOH 1733   0.658   2.000   4.852  0.1201 -0.4583  0.1729
 1734ACH    OOH 1734   3.571   3.002   0.619 -0.0542 -0.2135 -0.0989
 1735ACH    OOH 1735   1.150   6.179   1.954  0.0973 -0.1590 -0.1542
 1736ACH    OOH 1736   6.080   1.284   3.751 -0.0825 -0.3658  0.1814
 1737ACH    OOH 1737   4.665   4.560   2.623 -0.0119 -0.0567 -0.0954
 1738ACH    OOH 1738   0.233   4.093   3.794 -0.3446  0.1554 -0.2400
 1739ACH    OOH 1739   4.494   5.188   1.680  0.0974  0.2506  0.1241
 1740ACH    OOH 1740   3.343   1.674   2.705  0.3115  0.0312 -0.0642
 1741ACH    OOH 1741   0.746   6.254   1.645  0.2017 -0.0964  0.1819
 1742ACH    OOH 1742   3.647   5.488   5.941  0.0241  0.1200  0.3430
 1743ACH    OOH 1743   5.045   4.288   1.544  0.4092  0.1257  0.1271
 1744ACH    OOH 1744   6.010   1.149   3.207 -0.4937 -0.2005  0.0440
 1745ACH    OOH 1745   1.964   4.742   0.281 -0.0051 -0.0402 -0.0366
 1746ACH    OOH 1746   2.428   0.826   2.277 -0.0228 -0.3186 -0.1156
 1747ACH    OOH 1747   3.151   1.183   0.671 -0.2359  0.3730 -0.1572
 1748ACH    OOH 1748   3.013   3.244   6.083 -0.0901  0.1307 -0.3795
 1749ACH    OOH 1749   6.111   2.062   5.501 -0.1676  0.1673  0.0136
 1750ACH    OOH 1750   4.460   3.791   5.749 -0.1882 -0.2271  0.0359
 1751ACH    OOH 1751   4.671   2.987   2.989 -0.1585  0.1651 -0.0833
 1752ACH    OOH 1752   0.464   0.547   1.360  0.0457 -0.1677  0.0538
 1753ACH    OOH 1753   0.717   0.556   0.881 -0.0040 -0.4576 -0.2261
 1754ACH    OOH 1754   3.376   0.792   5.226 -0.1090  0.0572 -0.1663
 1755ACH    OOH 1755   3.712   0.354   2.778  0.2773 -0.1434  0.0604
 1756ACH    OOH 1756   3.174   1.890   3.517 -0.0660 -0.1252 -0.2135
 1757ACH    OOH 1757   3.304   2.137   2.375 -0.2580  0.2424  0.1083
 1758ACH    OOH 1758   5.563   1.391   4.180  0.1855  0.2077 -0.0812
 1759ACH    OOH 1759   0.325   3.185   2.685  0.0715 -0.0542 -0.1288
 1760ACH    OOH 1760   6.365   3.179   4.510  0.2879  0.0095 -0.1438
 1761ACH    OOH 1761   1.941   1.017   3.164  0.0713 -0.1935  0.2431
 1762ACH    OOH 1762   0.273   0.573   4.533  0.0005  0.1558 -0.2673
 1763ACH    OOH 1763   1.766   2.981   2.753 -0.2479  0.1032  0.0423
 1764ACH    OOH 1764   5.861   4.130   1.209 -0.1273  0.1581  0.3308
 1765ACH    OOH 1765   4.491   2.107   0.548  0.0649  0.0741  0.0734
 1766ACH    OOH 1766   2.297   4.170   2.871  0.1915 -0.0024  0.2740
 1767ACH    OOH 1767   4.612   6.270   3.201  0.0795 -0.1783 -0.1393
 1768ACH    OOH 1768   0.644   1.243   3.267 -0.2278 -0.0517 -0.0585
 1769ACH    OOH 1769   2.777   6.044   2.619  0.0777 -0.1359 -0.0642
 1770ACH    OOH 1770   5.049   5.514   2.194 -0.1862  0.0556  0.0469
 1771ACH    OOH 1771   3.492   6.167   1.935 -0.0663 -0.1119  0.0932
 1772ACH    OOH 1772   0.406   6.085   5.105 -0.2140  0.1090 -0.0453
 1773ACH    OOH 1773   0.210   5.338   4.327 -0.0006 -0.1284  0.1631
 1774ACH    OOH 1774   2.394   1.140   4.925  0.0633  0.0577 -0.0632
 1775ACH    OOH 1775   1.144   3.553   5.972  0.2316 -0.3320  0.0958
 1776ACH    OOH 1776   3.610   1.875   1.202 -0.2289 -0.1483  0.1797
 1777ACH    OOH 1777   0.560   1.519   5.415  0.2176 -0.3588 -0.0936
 1778ACH    OOH 1778   5.574   0.689   2.312  0.1374  0.1347  0.0066
 1779ACH    OOH 1779   1.148   5.928   2.905  0.1720  0.2516 -0.1043
 1780ACH    OOH 1780   0.822   1.629   1.698  0.1752 -0.1898 -0.1287
 1781ACH    OOH 1781   1.067   2.130   2.685 -0.1182 -0.1282 -0.1852
 1782ACH    OOH 1782   4.532   2.617   0.200 -0.0342  0.2733  0.0408
 1783ACH    OOH 1783   3.711   4.455   2.935  0.0618 -0.3746  0.1052
 1784ACH    OOH 1784   2.453   2.194   2.196  0.1808  0.0998  0.2031
 1785ACH    OOH 1785   1.814   3.471   6.346  0.1535 -0.0086  0.0633
 1786ACH    OOH 1786   5.120   3.526   0.919  0.0164  0.2516 -0.1803
 1787ACH    OOH 1787   1.431   5.862   3.325  0.0341  0.0762  0.1172
 1788ACH    OOH 1788   5.308   0.583   6.194  0.0088  0.0924  0.1998
 1789ACH    OOH 1789   3.283   1.982   5.054 -0.3496 -0.1265  0.0369
 1790ACH    OOH 1790   6.282   2.199   1.851 -0.4268 -0.3508  0.0619
 1791ACH    OOH 1791   0.505   3.769   2.073  0.0449  0.1637  0.1917
 1792ACH    OOH 1792   4.768   1.310   0.806  0.1315  0.2134 -0.0825
 1793ACH    OOH 1793   4.654   4.306   4.300  0.0041 -0.1500  0.1930
 1794ACH    OOH 1794   5.557   4.663   2.162  0.0281 -0.1924 -0.1521
 1795ACH    OOH 1795   5.145   4.456   2.427  0.2999  0.2084 -0.3260
 1796ACH    OOH 1796   0.847   0.732   3.724 -0.3535  0.0806 -0.0458
 1797ACH    OOH 1797   5.145   0.747   2.013  0.0774 -0.0458 -0.0151
 1798ACH    OOH 1798   0.724   5.020   2.837  0.0097  0.3561  0.3165
 1799ACH    OOH 1799   0.748   0.813   4.582 -0.0289  0.2392  0.2872
 1800ACH    OOH 1800   2.097   6.133   1.454  0.0143 -0.0854 -0.1142
 1801ACH    OOH 1801   2.947   5.745   0.311  0.3180 -0.0689 -0.1672
 1802ACH    OOH 1802   1.483   0.004   3.115 -0.0055 -0.0248 -0.5166
 1803ACH    OOH 1803   3.754   2.250   4.549  0.1711 -0.0294  0.0637
 1804ACH    OOH 1804   1.909   5.510   2.521  0.3978  0.0213  0.0062
 1805ACH    OOH 1805   1.026   4.220   2.689 -0.1372  0.3111 -0.2776
 1806ACH    OOH 1806   1.838   1.360   4.131  0.1338 -0.0960  0.2391
 1807ACH    OOH 1807   5.801   3.809   4.214  0.0203  0.3205 -0.0860
 1808ACH    OOH 1808   3.775   1.112   3.783 -0.1212 -0.0746  0.1808
 1809ACH    OOH 1809   1.732   4.501   0.661  0.0401  0.1066  0.0402
 1810ACH    OOH 1810   0.595   4.257   5.461 -0.2347 -0.0984 -0.2473
 1811ACH    OOH 1811   1.288   4.692   2.734  0.1908  0.1747  0.3306
 1812ACH    OOH 1812   4.147   1.829   4.695  0.0194  0.0911 -0.1464
 1813ACH    OOH 1813   1.741   0.753   6.221  0.0463 -0.2834 -0.0066
 1814ACH    OOH 1814   3.871   6.029   5.060  0.1513 -0.0296  0.0295
 1815ACH    OOH 1815   4.549   6.137   4.267  0.0128 -0.3251  0.2597
 1816ACH    OOH 1816   3.355   1.351   4.502 -0.1136 -0.0707 -0.1508
 1817ACH    OOH 1817   0.085   6.063   0.496  0.0666  0.0450 -0.0462
 1818ACH    OOH 1818   2.128   3.589   3.014  0.1213  0.2608  0.0500
 1819ACH    OOH 1819   4.644   5.188   5.685  0.0322  0.1655 -0.1699
 1820ACH    OOH 1820   5.208   2.320   6.067 -0.0745  0.0128  0.1597
 1821ACH    OOH 1821   5.897   1.825   0.358  0.0394 -0.0568 -0.1719
 1822ACH    OOH 1822   5.200   1.824   1.270  0.0635 -0.1121  0.0855
 1823ACH    OOH 1823   3.391   3.664   2.178 -0.1834  0.2991 -0.2946
 1824ACH    OOH 1824   1.180   5.467   3.272  0.1411  0.2738  0.0554
 1825ACH    OOH 1825   1.005   0.784   0.318 -0.2470 -0.3108  0.0741
 1826ACH    OOH 1826   5.466   5.592   5.976  0.1393 -0.4150  0.1290
 1827ACH    OOH 1827   6.098   2.082   3.116  0.0287  0.0410  0.1645
 1828ACH    OOH 1828   1.324   4.530   5.129  0.4634  0.1054  0.0915
 1829ACH    OOH 1829   2.566   4.662   2.606 -0.1160  0.3173 -0.0326
 1830ACH    OOH 1830   2.005   4.217   1.731  0.0632 -0.1826  0.0906
 1831ACH    OOH 1831   5.780   5.306   0.836 -0.2027 -0.1662 -0.4104
 1832ACH    OOH 1832   1.822   0.058   2.744 -0.1074 -0.2784 -0.0915
 1833ACH    OOH 1833   0.365   3.235   2.160  0.0641 -0.3311  0.0249
 1834ACH    OOH 1834   3.145   2.891   1.568 -0.1477  0.1894 -0.3698
 1835ACH    OOH 1835   3.643   1.014   1.461  0.0406 -0.1800  0.0314
 1836ACH    OOH 1836   4.971   4.418   4.700 -0.2843 -0.1116 -0.2115
 1837ACH    OOH 1837   0.839   2.364   0.051  0.1075 -0.3115 -0.2340
 1838ACH    OOH 1838   1.485   3.857   1.833  0.1213 -0.1569  0.3218
 1839ACH    OOH 1839   3.254   4.627   2.994 -0.0682  0.1388  0.1901
 1840ACH    OOH 1840   2.005   0.118   2.287  0.0374  0.3084  0.3951
 1841ACH    OOH 1841   2.728   0.568   0.742  0.0255 -0.0504  0.0992
 1842ACH    OOH 1842   0.538   5.354   0.027 -0.4062 -0.0843  0.1230
 1843ACH    OOH 1843   4.219   3.738   3.224 -0.2768  0.1419  0.2147
 1844ACH    OOH 1844   3.382   2.838   2.973  0.0957 -0.0035  0.1029
 1845ACH    OOH 1845   6.098   3.407   4.071  0.0695  0.2195 -0.0906
 1846ACH    OOH 1846   2.188   1.053   5.378 -0.2097  0.2587 -0.1307
 1847ACH    OOH 1847   2.803   0.293   4.870  0.0757  0.0158 -0.0609
 1848ACH    OOH 1848   1.031   1.739   4.589  0.3298  0.0152  0.1411
 1849ACH    OOH 1849   0.169   0.413   1.004 -0.1242 -0.2124  0.0819
 1850ACH    OOH 1850   0.276   6.203   4.137  0.0186  0.0384  0.1769
 1851ACH    OOH 1851   1.841   5.948   4.430 -0.2818  0.2825 -0.0872
 1852ACH    OOH 1852   4.678   5.556   0.051 -0.2607  0.0519 -0.3309
 1853ACH    OOH 1853   5.535   3.737   4.715  0.2744  0.0017  0.2099
 1854ACH    OOH 1854   3.809   3.922   2.385  0.0033 -0.0506  0.0262
 1855ACH    OOH 1855   1.447   0.222   1.606 -0.3193  0.0129 -0.0317
 1856ACH    OOH 1856   1.281   2.334   0.258 -0.2287  0.2669  0.0681
 1857ACH    OOH 1857   2.664   5.406   0.450  0.0126  0.0832 -0.0751
 1858ACH    OOH 1858   3.408   5.203   2.710  0.2049 -0.0604  0.1456
 1859ACH    OOH 1859   3.014   0.687   3.924 -0.3485  0.0495 -0.1817
 1860ACH    OOH 1860   6.144   5.576   0.501  0.0969 -0.1171 -0.1342
 1861ACH    OOH 1861   0.775   3.497   1.271  0.0919  0.1143  0.0921
 1862ACH    OOH 1862   5.485   0.511   4.461  0.0361 -0.1060  0.1260
 1863ACH    OOH 1863   5.437   1.545   2.126  0.1124  0.0243 -0.1819
 1864ACH    OOH 1864   1.353   5.189   4.970 -0.2085 -0.0498  0.0664
 1865ACH    OOH 1865   4.647   5.266   3.907 -0.3247 -0.2771  0.0185
 1866ACH    OOH 1866   3.055   5.817   3.026 -0.0496 -0.0026  0.0084
 1867ACH    OOH 1867   0.760   6.085   5.607 -0.2319  0.0743 -0.3964
 1868ACH    OOH 1868   3.792   4.854   0.465 -0.1376  0.0137 -0.4466
 1869ACH    OOH 1869   2.272   0.116   0.475  0.1692  0.1879 -0.1151
 1870ACH    OOH 1870   2.633   3.765   1.573  0.0718 -0.1603  0.1783
 1871ACH    OOH 1871   0.982   4.570   3.102  0.1755  0.1761 -0.1639
 1872ACH    OOH 1872   0.304   1.972   4.205  0.0684  0.0018  0.1895
 1873ACH    OOH 1873   6.294   4.217   0.880 -0.0151 -0.2093  0.0723
 1874ACH    OOH 1874   5.231   0.211   0.696  0.1420 -0.2145 -0.1592
 1875ACH    OOH 1875   2.595   3.354   3.583 -0.0289 -0.2232 -0.0208
 1876ACH    OOH 1876   0.036   0.415   1.583  0.3273  0.3066 -0.3069
 1877ACH    OOH 1877   3.635   4.967   3.686 -0.3103 -0.0262  0.2508
 1878ACH    OOH 1878   3.158   1.433   2.241 -0.5034  0.1625 -0.0473
 1879ACH    OOH 1879   0.460   5.295   5.854  0.0740 -0.2896  0.1619
 1880ACH    OOH 1880   5.737   1.030   6.156  0.2742  0.2132 -0.1397
 1881ACH    OOH 1881   0.516   5.714   4.128 -0.2885  0.1636 -0.2789
 1882ACH    OOH 1882   1.217   2.558   4.078  0.0852 -0.0626  0.2599
 1883ACH    OOH 1883   6.171   3.893   0.073 -0.2023  0.0645  0.0738
 1884ACH    OOH 1884   2.195   2.781   0.239  0.1584  0.0220  0.0166
 1885ACH    OOH 1885   2.175   1.642   1.233  0.1579 -0.0633 -0.1490
 1886ACH    OOH 1886   2.963   4.792   5.701 -0.1219 -0.2214  0.0921
 1887ACH    OOH 1887   5.992   1.429   5.052 -0.1026  0.2495 -0.3216
 1888ACH    OOH 1888   6.080   3.271   3.308 -0.1255  0.1562  0.1570
 1889ACH    OOH 1889   1.724   1.565   2.396 -0.0684  0.0431 -0.0348
 1890ACH    OOH 1890   2.485   1.101   3.011 -0.0107 -0.1973 -0.2682
 1891ACH    OOH 1891   2.122   5.639   1.367 -0.2470 -0.3197 -0.1098
 1892ACH    OOH 1892   4.529   0.637   4.355 -0.0006 -0.2845  0.2567
 1893ACH    OOH 1893   3.533   2.025   0.459  0.0710  0.0767  0.4326
 1894ACH    OOH 1894   1.442   2.503   5.238  0.1681  0.0416 -0.0006
 1895ACH    OOH 1895   2.451   4.382   1.176 -0.1041 -0.2447 -0.0024
 1896ACH    OOH 1896   2.211   5.904   3.212 -0.0441  0.2588  0.1583
 1897ACH    OOH 1897   1.080   3.754   4.343 -0.1375  0.2200  0.0770
 1898ACH    OOH 1898   1.895   4.248   4.100 -0.0185  0.2451 -0.0792
 1899ACH    OOH 1899   1.145   3.473   3.078 -0.1423 -0.0070 -0.2667
 1900ACH    OOH 1900   1.384   1.457   5.883 -0.3266 -0.1470 -0.0901
 1901ACH    OOH 1901   0.209   5.196   3.495 -0.2606 -0.0928  0.2177
 1902ACH    OOH 1902   5.159   3.177   4.375 -0.0021  0.0556  0.1714
 1903ACH    OOH 1903   5.799   3.120   1.423 -0.2647  0.3964 -0.0942
 1904ACH    OOH 1904   5.000   2.825   0.189 -0.1388 -0.0942  0.1227
 1905ACH    OOH 1905   1.256   6.299   4.365 -0.1352  0.0179  0.1502
 1906ACH    OOH 1906   5.005   5.478   3.607 -0.1462  0.3119  0.2919
 1907ACH    OOH 1907   2.499   5.344   1.899 -0.3247 -0.1897 -0.3058
 1908ACH    OOH 1908   5.770   5.382   0.258 -0.1344  0.0606 -0.1495
 1909ACH    OOH 1909   4.408   4.085   1.107 -0.0344  0.1808 -0.0568
 1910ACH    OOH 1910   3.155   4.113   3.995  0.0042  0.0833 -0.0156
 1911ACH    OOH 1911   1.239   0.439   0.085 -0.1057  0.0796  0.2482
 1912ACH    OOH 1912   2.354   3.736   0.280  0.1703  0.0634  0.2385
 1913ACH    OOH 1913   4.040   4.134   2.829  0.0216 -0.0997  0.0227
 1914ACH    OOH 1914   1.729   2.565   0.198 -0.1014 -0.1066  0.3021
 1915ACH    OOH 1915   4.917   3.432   4.027 -0.2297 -0.4200  0.0315
 1916ACH    OOH 1916   5.786   1.031   0.580 -0.2496 -0.2106  0.3028
 1917ACH    OOH 1917   5.732   5.496   5.547 -0.1227  0.1702  0.0630
 1918ACH    OOH 1918   3.633   5.364   4.950 -0.0213 -0.2506 -0.2811
 1919ACH    OOH 1919   0.025   5.035   2.165  0.2987  0.0174  0.0822
 1920ACH    OOH 1920   5.910   1.584   5.674 -0.0833  0.0541 -0.0253
 1921ACH    OOH 1921   5.804   2.304   1.712 -0.0030  0.0044  0.2450
 1922ACH    OOH 1922   4.206   5.487   5.673  0.1036  0.1965 -0.1038
 1923ACH    OOH 1923   4.298   5.158   2.495 -0.0631 -0.2054 -0.0091
 1924ACH    OOH 1924   5.122   0.983   5.470  0.1385  0.0268  0.4216
 1925ACH    OOH 1925   4.045   2.265   1.760  0.3593 -0.0904  0.1131
 1926ACH    OOH 1926   2.897   4.275   2.757  0.0800 -0.1765 -0.1481
 1927ACH    OOH 1927   0.220   4.534   5.835 -0.0716  0.1281  0.3313
 1928ACH    OOH 1928   2.103   3.482   3.569  0.4299  0.1669 -0.2632
 1929ACH    OOH 1929   5.725   0.001   0.542  0.0709 -0.4049  0.1309
 1930ACH    OOH 1930   2.973   5.772   3.558  0.0397  0.0748 -0.1478
 1931ACH    OOH 1931   5.617   5.462   3.087  0.0379 -0.2628 -0.1229
 1932ACH    OOH 1932   0.959   5.000   0.907  0.0155 -0.0404 -0.1007
 1933ACH    OOH 1933   1.411   0.930   1.206 -0.0802 -0.1129  0.0313
 1934ACH    OOH 1934   4.420   4.931   2.076  0.0356 -0.2662 -0.0796
 1935ACH    OOH 1935   5.194   1.950   5.705  0.0745 -0.0036 -0.2295
 1936ACH    OOH 1936   2.391   3.452   5.234  0.2187  0.1168  0.0077
 1937ACH    OOH 1937   4.024   5.914   2.979  0.1964  0.1234  0.1353
 1938ACH    OOH 1938   5.261   2.745   5.287 -0.1700  0.0624  0.1937
 1939ACH    OOH 1939   4.133   2.299   3.884  0.0978  0.0304  0.3054
 1940ACH    OOH 1940   4.205   3.652   2.559 -0.0314  0.1886 -0.1245
 1941ACH    OOH 1941   2.708   1.097   3.945  0.0713 -0.0748  0.2695
 1942ACH    OOH 1942   3.442   5.567   3.068  0.2085 -0.0412  0.0425
 1943ACH    OOH 1943   3.927   5.268   4.127 -0.2201  0.0762  0.0891
 1944ACH    OOH 1944   1.213   1.645   4.044  0.1202 -0.0385 -0.0329
 1945ACH    OOH 1945   0.536   2.257   0.947 -0.4147 -0.0897  0.3973
 1946ACH    OOH 1946   0.491   2.745   2.883 -0.0523  0.0193  0.1714
 1947ACH    OOH 1947   4.462   3.424   6.053 -0.1083  0.0030 -0.1716
 1948ACH    OOH 1948   4.855   1.044   3.550  0.0102  0.1017  0.2396
 1949ACH    OOH 1949   5.742   0.733   3.373 -0.3115  0.1445 -0.0888
 1950ACH    OOH 1950   5.511   0.757   5.802  0.1040  0.1774 -0.0154
 1951ACH    OOH 1951   0.868   4.780   1.842 -0.0987  0.1612 -0.3481
 1952ACH    OOH 1952   4.242   3.097   4.609 -0.0526  0.2775 -0.4820
 1953ACH    OOH 1953   4.890   6.288   2.255 -0.2893 -0.1063  0.0220
 1954ACH    OOH 1954   5.572   5.163   6.246 -0.4017  0.0207 -0.1613
 1955ACH    OOH 1955   3.602   1.175   2.378  0.1065 -0.2109 -0.2060
 1956ACH    OOH 1956   1.078   4.322   1.648  0.1197  0.1580  0.1620
 1957ACH    OOH 1957   5.142   3.963   2.388 -0.1052  0.0418  0.0028
 1958ACH    OOH 1958   3.994   4.846   1.751  0.1150 -0.1357 -0.1008
 1959ACH    OOH 1959   0.513   2.292   5.224  0.0063 -0.2809  0.0662
 1960ACH    OOH 1960   0.979   5.957   2.387  0.1332 -0.0436 -0.3121
 1961ACH    OOH 1961   3.648   3.445   1.345 -0.1019  0.2861  0.0671
 1962ACH    OOH 1962   4.736   3.126   2.509 -0.0583 -0.2269 -0.0915
 1963ACH    OOH 1963   0.140   4.632   0.725 -0.0371 -0.2490 -0.4563
 1964ACH    OOH 1964   3.114   6.019   4.377 -0.1537  0.1015  0.3819
 1965ACH    OOH 1965   6.208   3.331   2.508  0.0620  0.0293 -0.0884
 1966ACH    OOH 1966   4.525   0.655   1.745 -0.1317  0.0416 -0.1051
 1967ACH    OOH 1967   1.158   3.775   1.242  0.0003 -0.4550  0.1237
 1968ACH    OOH 1968   0.661   3.377   4.906 -0.0737 -0.1367  0.3429
 1969ACH    OOH 1969   3.488   3.280   3.489  0.3598 -0.0288  0.1575
 1970ACH    OOH 1970   6.086   5.992   0.789  0.1363  0.1996 -0.2217
 1971ACH    OOH 1971   0.531   5.160   5.293  0.1666 -0.0459 -0.1804
 1972ACH    OOH 1972   3.327   3.098   1.162  0.1894 -0.0995  0.0942
 1973ACH    OOH 1973   3.642   1.919   1.737 -0.2593 -0.2650 -0.0128
 1974ACH    OOH 1974   1.142   1.229   2.480  0.1082  0.0346 -0.3478
 1975ACH    OOH 1975   0.444   6.287   6.041  0.1065 -0.0369  0.0580
 1976ACH    OOH 1976   2.711   5.023   1.023 -0.1066  0.0946 -0.0071
 1977ACH    OOH 1977   5.186   6.346   6.201  0.1992  0.0425 -0.0434
 1978ACH    OOH 1978   1.242   5.340   1.216 -0.0329  0.5802 -0.1416
 1979ACH    OOH 1979   0.117   3.962   2.845 -0.2479 -0.3549  0.1163
 1980ACH    OOH 1980   5.436   3.165   1.790 -0.3038  0.1183  0.2980
 1981ACH    OOH 1981   1.763   1.784   5.877 -0.1357  0.0111  0.3462
 1982ACH    OOH 1982   0.131   1.864   5.795 -0.2768  0.0182 -0.0118
 1983ACH    OOH 1983   4.122   5.499   0.904 -0.1390  0.1105  0.2196
 1984ACH    OOH 1984   5.783   5.131   3.854  0.0673  0.1791 -0.2142
 1985ACH    OOH 1985   6.074   2.875   3.028  0.1391  0.2551  0.1048
 1986ACH    OOH 1986   4.522   1.423   4.732 -0.0001 -0.1978 -0.0783
 1987ACH    OOH 1987   2.693   2.519   2.453 -0.1478  0.0244 -0.1327
 1988ACH    OOH 1988   4.900   2.193   4.118 -0.1524  0.1707 -0.2509
 1989ACH    OOH 1989   3.826   4.451   4.670 -0.2200  0.0377  0.2125
 1990ACH    OOH 1990   2.661   1.950   1.316  0.1486  0.1765 -0.2610
 1991ACH    OOH 1991   5.365   1.654   0.325  0.1172 -0.2410  0.3456
 1992ACH    OOH 1992   1.211   0.209   4.944 -0.4013 -0.1144 -0.2413
 1993ACH    OOH 1993   5.924   5.541   5.090  0.0932 -0.1209  0.0414
 1994ACH    OOH 1994   0.412   1.564   3.653 -0.1398  0.0478  0.3572
 1995ACH    OOH 1995   5.564   2.753   3.634  0.2375  0.0999 -0.1629
 1996ACH    OOH 1996   2.060   5.156   1.647  0.1596  0.0683  0.1479
 1997ACH    OOH 1997   0.514   3.208   3.734  0.0672  0.1228 -0.0288
 1998ACH    OOH 1998   1.011   4.635   3.593 -0.0208  0.3170  0.3024
 1999ACH    OOH 1999   3.560   3.376   6.028  0.1194  0.0566 -0.3228
 2000ACH    OOH 2000   1.436   4.042   4.120  0.0489 -0.1437 -0.0128
 2001ACH    OOH 2001   0.776   3.618   3.720  0.3355 -0.0475  0.0397
 2002ACH    OOH 2002   3.093   5.230   0.170 -0.1252  0.2447 -0.0920
 2003ACH    OOH 2003   1.220   4.757   1.466  0.2833 -0.1616 -0.1180
 2004ACH    OOH 2004   5.139   4.756   0.506  0.5238  0.0008  0.1073
 2005ACH    OOH 2005   6.277   2.858   5.146 -0.1380  0.0918 -0.1774
 2006ACH    OOH 2006   3.304   2.902   4.007  0.1596 -0.1322  0.0246
 2007ACH    OOH 2007   4.639   2.055   4.794  0.0774 -0.2188 -0.0119
 2008ACH    OOH 2008   6.300   0.529   6.300  0.1269 -0.3701 -0.2520
 2009ACH    OOH 2009   0.816   3.521   0.045 -0.1975  0.3010  0.2556
 2010ACH    OOH 2010   4.247   4.264   3.954 -0.2761 -0.0726 -0.0135
 2011ACH    OOH 2011   5.257   0.101   1.176 -0.1008 -0.2120 -0.0673
 2012ACH    OOH 2012   5.016   5.338   5.993 -0.2590  0.0087 -0.1202
 2013ACH    OOH 2013   5.960   3.674   2.234  0.0983 -0.1970  0.2291
 2014ACH    OOH 2014   5.043   1.861   3.727 -0.2969  0.1078 -0.0035
 2015ACH    OOH 2015   4.244   3.134   3.242 -0.3032  0.2340  0.0448
 2016ACH    OOH 2016   5.942   0.319   3.100  0.0972  0.0682  0.0311
 2017ACH    OOH 2017   4.943   3.839   3.675  0.0923  0.0436  0.1056
 2018ACH    OOH 2018   5.640   5.198   4.834 -0.0309 -0.2217 -0.0855
 2019ACH    OOH 2019   1.058   3.179   4.538 -0.0284 -0.0240 -0.2090
 2020ACH    OOH 2020   1.671   4.487   1.427 -0.3010  0.1552 -0.0723
 2021ACH    OOH 2021   3.310   0.981   3.610  0.1626  0.3415 -0.0044
 2022ACH    OOH 2022   5.373   5.218   5.257 -0.0314 -0.0087 -0.0588
 2023ACH    OOH 2023   6.044   0.084   5.636 -0.2137  0.0843 -0.0362
 2024ACH    OOH 2024   6.206   3.708   1.072  0.1405  0.1977  0.1363
 2025ACH    OOH 2025   6.074   5.359   4.137 -0.1449 -0.0807 -0.3025
 2026ACH    OOH 2026   1.353   4.063   0.723 -0.1749 -0.0287 -0.0503
 2027ACH    OOH 2027   4.957   5.689   5.013  0.2573 -0.1285 -0.0465
 2028ACH    OOH 2028   4.243   5.097   5.389 -0.1755  0.1419  0.2098
 2029ACH    OOH 2029   3.825   4.252   6.048 -0.2036  0.1018 -0.0016
 2030ACH    OOH 2030   5.277   5.558   4.695  0.1266  0.1218  0.0121
 2031ACH    OOH 2031   5.807   3.566   0.144 -0.3058 -0.3841  0.3099
 2032ACH    OOH 2032   5.585   3.021   4.044  0.0242 -0.2196  0.2619
 2033ACH    OOH 2033   4.352   5.100   0.284 -0.0668 -0.1852  0.0701
 2034ACH    OOH 2034   3.721   2.689   3.770 -0.0135 -0.3151  0.1158
 2035ACH    OOH 2035   1.870   2.277   5.767 -0.0791 -0.1337  0.0074
 2036ACH    OOH 2036   4.250   5.018   4.900  0.1386 -0.0733 -0.0433
 2037ACH    OOH 2037   3.369   3.181   4.479  0.1349 -0.1883  0.0440
 2038ACH    OOH 2038   5.566   4.530   1.169 -0.2040 -0.1968  0.0819
 2039ACH    OOH 2039   3.124   2.541   0.080 -0.1591  0.0388  0.3837
 2040ACH    OOH 2040   3.315   5.502   5.567 -0.4259  0.2608  0.2084
 2041ACH    OOH 2041   5.565   0.246   5.862  0.0872  0.1617 -0.0247
 2042ACH    OOH 2042   5.408   0.663   0.656 -0.1708  0.1526  0.2578
 2043ACH    OOH 2043   1.733   0.111   4.560 -0.1678  0.2870 -0.1060
 2044ACH    OOH 2044   5.503   2.020   0.696 -0.1132 -0.3968 -0.3617
 2045ACH    OOH 2045   4.246   6.097   0.478  0.1816  0.2732 -0.1235
 2046ACH    OOH 2046   1.734   4.896   2.842 -0.3584  0.0467 -0.4367
 2047ACH    OOH 2047   5.792   4.218   3.934 -0.0454  0.2717  0.2830
 2048ACH    OOH 2048   4.581   5.632   5.930  0.0284 -0.0639 -0.2825
 2049ACH    OOH 2049   0.383   3.492   6.070  0.1416 -0.2499 -0.0031
 2050ACH    OOH 2050   1.288   1.657   2.857  0.3847 -0.0389  0.3157
 2051ACH    OOH 2051   2.583   3.345   5.792 -0.0832 -0.1112 -0.1862
 2052ACH    OOH 2052   1.971   3.976   6.361  0.1812 -0.0325  0.1078
 2053ACH    OOH 2053   2.961   3.660   3.194 -0.0139 -0.0320  0.2115
 2054ACH    OOH 2054   1.659   1.085   1.822  0.1787  0.1256  0.2841
 2055ACH    OOH 2055   0.686   2.711   0.411 -0.0569  0.1871 -0.0825
 2056ACH    OOH 2056   5.150   1.660   2.535 -0.1304 -0.0350 -0.3211
 2057ACH    OOH 2057   4.941   1.857   0.436  0.0398 -0.1958  0.1274
 2058ACH    OOH 2058   5.906   0.564   1.382  0.1544  0.4294 -0.4018
 2059ACH    OOH 2059   1.585   1.041   2.292 -0.0729 -0.0997  0.2295
 2060ACH    OOH 2060   2.312   4.974   4.898  0.1475 -0.0767  0.0502
 2061ACH    OOH 2061   2.164   2.670   6.026 -0.0378 -0.0596 -0.0786
 2062ACH    OOH 2062   0.416   2.770   1.005  0.2681 -0.0687  0.1067
 2063ACH    OOH 2063   4.786   2.364   3.038 -0.0126 -0.1521  0.1030
 2064ACH    OOH 2064   5.490   2.214   3.859  0.3842  0.2320  0.2659
 2065ACH    OOH 2065   3.639   3.342   3.954 -0.0236  0.0969  0.0049
 2066ACH    OOH 2066   2.464   0.177   1.159 -0.1493  0.0230  0.0929
 2067ACH    OOH 2067   5.115   6.221   5.113  0.0424  0.3541  0.1314
 2068ACH    OOH 2068   1.884   2.971   1.227 -0.0752 -0.0383  0.2105
 2069ACH    OOH 2069   2.367   0.682   5.634  0.1437  0.2534 -0.2005
 2070ACH    OOH 2070   5.262   3.411   3.596 -0.0519  0.2424 -0.2920
 2071ACH    OOH 2071   6.345   2.622   2.140  0.1523 -0.0523 -0.1499
 2072ACH    OOH 2072   1.978   4.640   5.727 -0.1503 -0.2400 -0.1173
 2073ACH    OOH 2073   1.578   5.577   0.516  0.0148  0.3386  0.1661
 2074ACH    OOH 2074   3.639   2.802   1.427  0.2746  0.0856 -0.0493
 2075ACH    OOH 2075   2.935   3.386   4.333  0.3101 -0.2102 -0.0854
 2076ACH    OOH 2076   0.428   1.270   1.935  0.1201 -0.1554 -0.2160
 2077ACH    OOH 2077   2.503   1.112   5.821  0.0137  0.0121 -0.2180
 2078ACH    OOH 2078   1.978   2.602   1.522  0.0062  0.0243 -0.1088
 2079ACH    OOH 2079   1.612   0.426   2.465 -0.1112 -0.0875  0.1169
 2080ACH    OOH 2080   6.347   4.412   6.322  0.1520 -0.0722  0.0140
 2081ACH    OOH 2081   4.006   1.644   3.783  0.1651  0.1493 -0.1619
 2082ACH    OOH 2082   4.867   2.251   0.093 -0.1801 -0.3079  0.0022
 2083ACH    OOH 2083   5.188   1.237   5.006 -0.2536 -0.3071  0.0637
 2084ACH    OOH 2084   3.192   4.792   4.374  0.1308  0.1685 -0.0601
 2085ACH    OOH 2085   4.730   6.247   0.615 -0.0420  0.0115  0.0471
 2086ACH    OOH 2086   5.048   4.880   0.956  0.2609  0.1122  0.0701
 2087ACH    OOH 2087   3.715   2.329   1.315 -0.0721 -0.0844  0.1574
 2088ACH    OOH 2088   6.315   6.344   4.552 -0.0991 -0.2289  0.0452
 2089ACH    OOH 2089   5.366   0.295   4.956 -0.0001 -0.2967  0.2237
 2090ACH    OOH 2090   4.471   1.108   1.183 -0.0376  0.0505 -0.0378
 2091ACH    OOH 2091   2.451   5.860   1.770  0.3048 -0.1344 -0.2668
 2092ACH    OOH 2092   1.161   1.166   3.594  0.1146  0.0287  0.0777
 2093ACH    OOH 2093   2.790   0.216   6.165 -0.0497 -0.5356 -0.2119
 2094ACH    OOH 2094   3.917   3.396   2.949  0.1006  0.1957  0.1672
 2095ACH    OOH 2095   2.775   1.990   1.762  0.2084 -0.1337 -0.5471
 2096ACH    OOH 2096   2.810   4.512   0.830  0.0483 -0.0373 -0.0155
 2097ACH    OOH 2097   3.717   5.867   0.652  0.0013 -0.0415 -0.0863
 2098ACH    OOH 2098   0.415   3.207   0.120  0.1296  0.4844  0.1285
 2099ACH    OOH 2099   2.827   0.372   5.723  0.1992 -0.4227 -0.1279
 2100ACH    OOH 2100   5.656   2.730   4.538 -0.0732  0.0211  0.3182
 2101ACH    OOH 2101   6.255   0.441   4.824 -0.1106  0.1433 -0.2207
 2102ACH    OOH 2102   3.618   5.838   4.319  0.0052  0.0854 -0.2653
 2103ACH    OOH 2103   1.859   5.872   0.980  0.0666 -0.1775  0.0337
 2104ACH    OOH 2104   3.251   1.226   5.428 -0.1633 -0.2042  0.0641
 2105ACH    OOH 2105   1.679   4.778   2.370 -0.2549 -0.0402  0.3001
 2106ACH    OOH 2106   4.989   3.322   6.178 -0.0082  0.1393  0.5025
 2107ACH    OOH 2107   2.706   2.131   4.378  0.1962 -0.3364 -0.2791
 2108ACH    OOH 2108   0.518   3.837   5.242  0.2228 -0.1514 -0.3354
 2109ACH    OOH 2109   1.129   3.044   6.001 -0.2275  0.0427  0.2730
 2110ACH    OOH 2110   0.624   5.061   3.903  0.0413  0.2714 -0.1699
 2111ACH    OOH 2111   1.422   0.844   2.717 -0.2574  0.0043  0.1088
 2112ACH    OOH 2112   0.324   0.137   2.583  0.0344  0.1486  0.1073
 2113ACH    OOH 2113   4.313   4.419   3.112 -0.1868  0.0575 -0.0590
 2114ACH    OOH 2114   3.576   0.848   0.512  0.1072 -0.1203 -0.2915
 2115ACH    OOH 2115   5.138   4.980   4.329 -0.1363  0.3475 -0.2820
 2116ACH    OOH 2116   3.037   1.291   1.714  0.0358  0.0920 -0.1880
 2117ACH    OOH 2117   5.538   5.925   0.024 -0.1587 -0.3194  0.3567
 2118ACH    OOH 2118   4.277   5.917   4.695 -0.1773 -0.1600 -0.2602
 2119ACH    OOH 2119   5.891   2.541   1.236  0.0818 -0.3492 -0.2158
 2120ACH    OOH 2120   3.649   2.080   3.768 -0.2661 -0.2043 -0.1597
 2121ACH    OOH 2121   0.927   0.986   1.334  0.1848 -0.1603  0.0814
 2122ACH    OOH 2122   4.143   2.577   1.297  0.0660 -0.1744 -0.1841
 2123ACH    OOH 2123   5.562   2.171   4.805  0.0584 -0.1698  0.1505
 2124ACH    OOH 2124   5.288   1.866   4.157  0.2941 -0.2225 -0.0781
 2125ACH    OOH 2125   1.821   0.219   0.184  0.0801  0.2712  0.2299
 2126ACH    OOH 2126   3.729   3.724   3.381 -0.1352  0.2205  0.1555
 2127ACH    OOH 2127   5.024   1.178   2.834  0.0425  0.0896  0.0777
 2128ACH    OOH 2128   2.806   5.723   5.916 -0.0820 -0.1822  0.1916
 2129ACH    OOH 2129   4.647   3.385   1.161  0.1202  0.0799 -0.0846
 2130ACH    OOH 2130   1.818   5.952   2.983  0.1675  0.0929 -0.1829
 2131ACH    OOH 2131   1.666   3.538   2.377  0.2282 -0.1324 -0.0175
 2132ACH    OOH 2132   3.515   4.663   1.962  0.2623 -0.0578  0.0898
 2133ACH    OOH 2133   6.114   2.758   0.769 -0.5174 -0.0567 -0.1288
 2134ACH    OOH 2134   0.642   2.593   1.394 -0.1739 -0.1679 -0.1609
 2135ACH    OOH 2135   6.181   5.823   1.915 -0.0543  0.3630 -0.1882
 2136ACH    OOH 2136   0.569   5.865   2.920 -0.1311 -0.1023 -0.3015
 2137ACH    OOH 2137   5.736   5.024   1.250  0.0020  0.1256  0.1554
 2138ACH    OOH 2138   3.744   3.864   4.568  0.1178 -0.2979  0.0724
 2139ACH    OOH 2139   4.551   1.854   0.031  0.2965 -0.1102 -0.0244
 2140ACH    OOH 2140   2.342   5.026   3.830  0.2446 -0.3209 -0.0946
 2141ACH    OOH 2141   3.765   2.927   5.825 -0.2626  0.1476  0.0607
 2142ACH    OOH 2142   4.003   3.383   3.588 -0.0224  0.1639  0.0362
 2143ACH    OOH 2143   3.924   1.979   2.825  0.3080 -0.0975  0.0205
 2144ACH    OOH 2144   2.999   4.649   1.819 -0.0028  0.1502 -0.0287
 2145ACH    OOH 2145   3.321   5.390   1.271  0.0545  0.1222 -0.0280
 2146ACH    OOH 2146   1.073   1.209   4.755 -0.1129 -0.0644 -0.1966
 2147ACH    OOH 2147   0.265   1.069   4.531 -0.2152  0.0042  0.2364
 2148ACH    OOH 2148   1.157   3.020   1.946  0.1321 -0.1608  0.0419
 2149ACH    OOH 2149   0.196   2.931   6.122 -0.1645 -0.0922  0.3544
 2150ACH    OOH 2150   4.822   5.660   1.728 -0.1207 -0.1539 -0.2010
 2151ACH    OOH 2151   1.218   5.871   0.296 -0.0104 -0.1849  0.1032
 2152ACH    OOH 2152   3.549   0.606   3.769  0.1672  0.1291  0.1109
 2153ACH    OOH 2153   3.109   3.369   3.913 -0.1891 -0.2168  0.1297
 2154ACH    OOH 2154   3.777   2.945   3.312 -0.2314  0.0708 -0.3041
 2155ACH    OOH 2155   5.946   1.028   5.621 -0.1686  0.1588  0.0555
 2156ACH    OOH 2156   5.011   5.467   5.541  0.2748 -0.1845  0.0991
 2157ACH    OOH 2157   0.977   1.964   6.128  0.0017  0.2446 -0.0256
 2158ACH    OOH 2158   3.915   4.275   0.227 -0.2425 -0.2841 -0.1111
 2159ACH    OOH 2159   4.418   5.599   4.291  0.3739 -0.0990 -0.3289
 2160ACH    OOH 2160   1.250   4.317   6.077  0.0353  0.0341 -0.1134
 2161ACH    OOH 2161   0.186   1.833   0.494 -0.0643  0.1903  0.2822
 2162ACH    OOH 2162   3.023   2.209   5.881 -0.1460  0.0971  0.1216
 2163ACH    OOH 2163   4.485   0.900   3.861 -0.1925 -0.3661 -0.2707
 2164ACH    OOH 2164   2.915   2.087   3.923  0.0530 -0.1433  0.3609
 2165ACH    OOH 2165   3.829   4.394   2.222 -0.3625  0.5420  0.0296
 2166ACH    OOH 2166   0.092   4.872   3.140  0.0015 -0.1355 -0.2510
 2167ACH    OOH 2167   0.057   2.785   2.633 -0.1320 -0.0505  0.1968
 2168ACH    OOH 2168   4.721   2.109   5.951 -0.0357 -0.1429  0.1972
 2169ACH    OOH 2169   1.452   4.090   3.559  0.1494 -0.2113 -0.0653
 2170ACH    OOH 2170   0.192   0.873   2.423  0.1347  0.1660  0.0907
 2171ACH    OOH 2171   5.800   5.724   3.951  0.2377 -0.0378  0.0268
 2172ACH    OOH 2172   2.076   4.780   5.308  0.3307 -0.2407  0.0186
 2173ACH    OOH 2173   5.168   0.649   3.582  0.0519  0.0042 -0.0140
 2174ACH    OOH 2174   1.542   4.384   2.029  0.1265 -0.0715  0.1722
 2175ACH    OOH 2175   0.870   3.473   5.552 -0.1031 -0.0314  0.0111
 2176ACH    OOH 2176   2.541   2.382   5.700 -0.0374 -0.0536 -0.1367
 2177ACH    OOH 2177   1.007   4.089   3.855 -0.2503 -0.0934 -0.0286
 2178ACH    OOH 2178   3.733   5.790   5.521  0.0117  0.3483  0.1039
 2179ACH    OOH 2179   4.556   1.266   3.049  0.3249 -0.0512  0.0400
 2180ACH    OOH 2180   5.873   4.080   4.606  0.1078 -0.0333 -0.0131
 2181ACH    OOH 2181   3.769   1.417   2.794 -0.2774 -0.0871  0.0045
 2182ACH    OOH 2182   1.052   4.905   5.315 -0.2037 -0.0979 -0.0769
 2183ACH    OOH 2183   1.922   5.801   3.869 -0.0077  0.2134  0.2456
 2184ACH    OOH 2184   1.109   2.796   3.179 -0.1796  0.2461 -0.4105
 2185ACH    OOH 2185   5.422   6.056   4.725 -0.0873  0.0185  0.1842
 2186ACH    OOH 2186   2.457   4.935   5.637 -0.3258  0.2756 -0.1229
 2187ACH    OOH 2187   2.356   4.999   0.630 -0.0033 -0.0732 -0.1177
 2188ACH    OOH 2188   1.203   4.288   0.305  0.0254  0.1979 -0.3387
 2189ACH    OOH 2189   2.987   2.023   0.007  0.0574 -0.1799 -0.1241
 2190ACH    OOH 2190   0.778   0.211   5.743  0.1892  0.0546 -0.1560
 2191ACH    OOH 2191   6.202   0.297   2.594 -0.0911 -0.0235  0.2330
 2192ACH    OOH 2192   2.464   2.660   0.719 -0.0242 -0.1541 -0.0025
 2193ACH    OOH 2193   1.630   5.055   1.467  0.0045  0.1547  0.0571
 2194ACH    OOH 2194   2.243   1.904   1.674 -0.0893  0.0695 -0.0850
 2195ACH    OOH 2195   3.354   4.068   3.198 -0.1232 -0.2165  0.0626
 2196ACH    OOH 2196   6.108   0.639   3.897  0.1645  0.1185  0.1653
 2197ACH    OOH 2197   4.945   6.253   1.704 -0.0258  0.1694 -0.1546
   6.36726   6.36726   6.36726
