Split from step5_input.gro (molecule=SAPE)
131
    1SAPE     N    1   1.139   0.057   6.999
    1SAPE   HN1    2   1.197   0.015   7.074
    1SAPE   HN2    3   1.063  -0.008   6.967
    1SAPE   HN3    4   1.190   0.064   6.909
    1SAPE   C12    5   1.076   0.187   7.029
    1SAPE  H12A    6   1.158   0.253   7.005
    1SAPE  H12B    7   1.049   0.192   7.136
    1SAPE   C11    8   0.955   0.224   6.943
    1SAPE  H11A    9   0.927   0.331   6.964
    1SAPE  H11B   10   0.870   0.160   6.974
    1SAPE     P   11   0.879   0.149   6.708
    1SAPE   O13   12   0.919   0.164   6.567
    1SAPE   O14   13   0.838   0.015   6.753
    1SAPE   O12   14   0.989   0.208   6.805
    1SAPE   O11   15   0.763   0.246   6.744
    1SAPE    C1   16   0.772   0.369   6.676
    1SAPE    HA   17   0.715   0.440   6.743
    1SAPE    HB   18   0.871   0.415   6.662
    1SAPE    C2   19   0.706   0.365   6.536
    1SAPE    HS   20   0.634   0.429   6.579
    1SAPE   O21   21   0.640   0.247   6.504
    1SAPE   C21   22   0.534   0.222   6.578
    1SAPE   O22   23   0.467   0.295   6.647
    1SAPE   C22   24   0.503   0.085   6.543
    1SAPE   H2R   25   0.406   0.055   6.586
    1SAPE   H2S   26   0.482   0.103   6.438
    1SAPE    C3   27   0.799   0.401   6.404
    1SAPE    HX   28   0.885   0.333   6.406
    1SAPE    HY   29   0.852   0.494   6.411
    1SAPE   O31   30   0.743   0.410   6.268
    1SAPE   C31   31   0.697   0.514   6.194
    1SAPE   O32   32   0.673   0.628   6.216
    1SAPE   C32   33   0.632   0.479   6.078
    1SAPE   H2X   34   0.651   0.555   6.001
    1SAPE   H2Y   35   0.527   0.493   6.108
    1SAPE   C23   36   0.616  -0.006   6.488
    1SAPE   H3R   37   0.590  -0.112   6.509
    1SAPE   H3S   38   0.705   0.014   6.546
    1SAPE   C24   39   0.639   0.016   6.334
    1SAPE   H4R   40   0.644   0.119   6.297
    1SAPE   H4S   41   0.558  -0.029   6.277
    1SAPE   C25   42   0.764  -0.053   6.306
    1SAPE   H5R   43   0.814  -0.080   6.399
    1SAPE   C26   44   0.828  -0.079   6.195
    1SAPE   H6R   45   0.870  -0.179   6.208
    1SAPE   C27   46   0.808  -0.054   6.049
    1SAPE   H7R   47   0.701  -0.030   6.039
    1SAPE   H7S   48   0.835  -0.145   5.989
    1SAPE   C28   49   0.833   0.069   5.982
    1SAPE   H8R   50   0.806   0.144   6.054
    1SAPE   C29   51   0.841   0.096   5.852
    1SAPE   H9R   52   0.845   0.199   5.823
    1SAPE  C210   53   0.829   0.007   5.736
    1SAPE  H10R   54   0.827  -0.095   5.783
    1SAPE  H10S   55   0.918   0.007   5.671
    1SAPE  C211   56   0.706   0.029   5.653
    1SAPE  H11R   57   0.624  -0.026   5.702
    1SAPE  C212   58   0.680   0.055   5.521
    1SAPE  H12R   59   0.575   0.041   5.488
    1SAPE  C213   60   0.770   0.074   5.405
    1SAPE  H13R   61   0.856   0.134   5.443
    1SAPE  H13S   62   0.714   0.138   5.334
    1SAPE  C214   63   0.815  -0.046   5.325
    1SAPE  H14R   64   0.737  -0.121   5.303
    1SAPE  C215   65   0.939  -0.068   5.277
    1SAPE  H15R   66   0.959  -0.163   5.225
    1SAPE  C216   67   1.060   0.022   5.291
    1SAPE  H16R   68   1.148  -0.041   5.315
    1SAPE  H16S   69   1.047   0.093   5.375
    1SAPE  C217   70   1.093   0.101   5.162
    1SAPE  H17R   71   1.002   0.153   5.124
    1SAPE  H17S   72   1.125   0.027   5.085
    1SAPE  C218   73   1.207   0.204   5.175
    1SAPE  H18R   74   1.284   0.164   5.245
    1SAPE  H18S   75   1.167   0.297   5.222
    1SAPE  C219   76   1.277   0.238   5.042
    1SAPE  H19R   77   1.332   0.148   5.006
    1SAPE  H19S   78   1.353   0.317   5.063
    1SAPE  C220   79   1.188   0.280   4.924
    1SAPE  H20R   80   1.242   0.345   4.851
    1SAPE  H20S   81   1.099   0.331   4.958
    1SAPE  H20T   82   1.135   0.198   4.875
    1SAPE   C33   83   0.650   0.338   6.051
    1SAPE   H3X   84   0.583   0.279   6.120
    1SAPE   H3Y   85   0.755   0.310   6.070
    1SAPE   C34   86   0.618   0.330   5.906
    1SAPE   H4X   87   0.618   0.219   5.909
    1SAPE   H4Y   88   0.703   0.343   5.840
    1SAPE   C35   89   0.485   0.419   5.857
    1SAPE   H5X   90   0.387   0.430   5.905
    1SAPE   H5Y   91   0.455   0.415   5.960
    1SAPE   C36   92   0.382   0.409   5.720
    1SAPE   H6X   93   0.272   0.399   5.728
    1SAPE   H6Y   94   0.417   0.332   5.659
    1SAPE   C37   95   0.409   0.501   5.605
    1SAPE   H7X   96   0.491   0.495   5.660
    1SAPE   H7Y   97   0.412   0.605   5.601
    1SAPE   C38   98   0.412   0.493   5.465
    1SAPE   H8X   99   0.304   0.520   5.452
    1SAPE   H8Y  100   0.450   0.402   5.424
    1SAPE   C39  101   0.482   0.604   5.399
    1SAPE   H9X  102   0.474   0.699   5.457
    1SAPE   H9Y  103   0.418   0.614   5.312
    1SAPE  C310  104   0.623   0.569   5.362
    1SAPE  H10X  105   0.689   0.624   5.429
    1SAPE  H10Y  106   0.665   0.649   5.305
    1SAPE  C311  107   0.668   0.424   5.319
    1SAPE  H11X  108   0.610   0.341   5.363
    1SAPE  H11Y  109   0.748   0.374   5.367
    1SAPE  C312  110   0.727   0.398   5.176
    1SAPE  H12X  111   0.622   0.387   5.183
    1SAPE  H12Y  112   0.760   0.297   5.150
    1SAPE  C313  113   0.771   0.514   5.072
    1SAPE  H13X  114   0.828   0.559   5.143
    1SAPE  H13Y  115   0.733   0.613   5.096
    1SAPE  C314  116   0.766   0.541   4.901
    1SAPE  H14X  117   0.832   0.464   4.858
    1SAPE  H14Y  118   0.813   0.635   4.895
    1SAPE  C315  119   0.642   0.600   4.804
    1SAPE  H15X  120   0.590   0.688   4.848
    1SAPE  H15Y  121   0.547   0.544   4.792
    1SAPE  C316  122   0.635   0.625   4.661
    1SAPE  H16X  123   0.694   0.718   4.670
    1SAPE  H16Y  124   0.526   0.643   4.635
    1SAPE  C317  125   0.689   0.504   4.589
    1SAPE  H17X  126   0.758   0.446   4.656
    1SAPE  H17Y  127   0.748   0.552   4.510
    1SAPE  C318  128   0.584   0.410   4.525
    1SAPE  H18X  129   0.635   0.336   4.461
    1SAPE  H18Y  130   0.501   0.466   4.480
    1SAPE  H18Z  131   0.523   0.348   4.590
  10.00000  10.00000  10.00000
