Octadecane box
 4500
    1OD       C    1   4.430   6.717   6.129  0.0855  0.2154 -0.0734
    1OD       C    2   4.133   6.412   5.897  0.3611 -0.1287 -0.1662
    1OD       C    3   4.164   6.152   5.572 -0.2980  0.2209  0.1988
    1OD       C    4   4.402   6.309   5.211 -0.3756 -0.0395 -0.3695
    1OD       C    5   4.467   6.361   4.793 -0.1819 -0.1951 -0.3486
    2OD       C    6   1.038   0.481   6.496  0.2429  0.1100  0.1881
    2OD       C    7   1.389   0.569   6.744 -0.2501 -0.1349  0.1146
    2OD       C    8   1.504   0.865   6.998 -0.1537  0.0954 -0.0722
    2OD       C    9   1.597   1.270   7.324  0.3391 -0.0635  0.3692
    2OD       C   10   1.668   1.601   7.583  0.0626 -0.2032 -0.1961
    3OD       C   11   3.379   1.483   5.693  0.0658 -0.2944  0.0786
    3OD       C   12   3.621   1.224   6.071  0.3342  0.0141  0.2706
    3OD       C   13   4.031   1.067   6.105 -0.0312 -0.0484 -0.0550
    3OD       C   14   4.394   0.924   6.076 -0.2890  0.3463  0.1213
    3OD       C   15   4.751   1.185   5.853  0.0086  0.0239  0.0548
    4OD       C   16   6.528   5.818   4.822 -0.0919  0.0452 -0.3487
    4OD       C   17   6.947   5.582   4.802  0.1805  0.0505 -0.0592
    4OD       C   18   7.225   5.285   4.809  0.0202  0.0048 -0.4742
    4OD       C   19   7.087   4.971   5.065 -0.0040  0.0333 -0.1816
    4OD       C   20   6.670   4.799   5.214  0.2521 -0.0830 -0.1354
    5OD       C   21   7.086   3.524   6.655 -0.3414 -0.0466  0.0703
    5OD       C   22   6.965   3.568   6.247  0.0930  0.1512 -0.2792
    5OD       C   23   6.782   3.469   5.809 -0.1771  0.0777  0.1138
    5OD       C   24   6.863   3.408   5.373  0.0402 -0.0266  0.2434
    5OD       C   25   7.242   3.406   5.111  0.1165 -0.1104 -0.0213
    6OD       C   26   9.266   3.415   5.715 -0.0332  0.0294  0.0645
    6OD       C   27   9.509   3.572   5.456 -0.1307  0.2407  0.2350
    6OD       C   28   9.540   3.747   5.076 -0.0619  0.1111 -0.3085
    6OD       C   29   9.501   4.011   4.702  0.1153 -0.1315 -0.0392
    6OD       C   30   9.878   4.231   4.536 -0.0937 -0.1504 -0.3383
    7OD       C   31   7.109   6.824   5.552 -0.0510  0.0246 -0.2379
    7OD       C   32   7.151   7.302   5.783 -0.1245  0.3292  0.0558
    7OD       C   33   6.802   7.598   5.895  0.2982  0.4100  0.0507
    7OD       C   34   6.503   7.853   6.175  0.0427  0.1912  0.1703
    7OD       C   35   6.188   7.926   6.249  0.0260 -0.0212  0.1510
    8OD       C   36   6.534   6.852   4.366  0.1502 -0.1372 -0.0747
    8OD       C   37   6.535   6.944   3.888  0.0817  0.0743 -0.1552
    8OD       C   38   6.297   7.326   3.750 -0.1326 -0.1664 -0.2931
    8OD       C   39   6.018   7.282   3.440 -0.2709 -0.2194  0.2432
    8OD       C   40   5.981   6.984   3.129 -0.2952 -0.0401 -0.0553
    9OD       C   41   8.382   3.569   3.101 -0.3168  0.0897 -0.0715
    9OD       C   42   8.020   3.680   3.119  0.0628 -0.3321  0.3165
    9OD       C   43   7.611   3.493   3.285 -0.1575 -0.1544  0.2705
    9OD       C   44   7.233   3.152   3.277 -0.0693  0.0460  0.0364
    9OD       C   45   6.977   2.871   3.159  0.0870  0.1344  0.1951
   10OD       C   46   5.370   4.083   4.753 -0.3444 -0.1026  0.1266
   10OD       C   47   5.233   4.067   5.158 -0.0583 -0.3570  0.1126
   10OD       C   48   5.399   4.167   5.529  0.2092  0.0045 -0.0408
   10OD       C   49   5.755   4.483   5.576 -0.0316 -0.1356 -0.1611
   10OD       C   50   5.994   4.604   5.300 -0.1818  0.0980 -0.1901
   11OD       C   51   2.408   3.047   4.615  0.0786  0.1563 -0.0005
   11OD       C   52   2.414   3.281   5.032  0.0594 -0.0692  0.2562
   11OD       C   53   2.345   3.534   5.308  0.0294 -0.2086 -0.2676
   11OD       C   54   2.421   3.654   5.693  0.0743  0.1830 -0.1871
   11OD       C   55   2.161   3.873   5.992  0.0846  0.3307  0.1789
   12OD       C   56   4.717   2.252   1.427 -0.1322 -0.0997  0.0413
   12OD       C   57   4.319   2.447   1.480 -0.0448 -0.0734 -0.1410
   12OD       C   58   3.979   2.612   1.708  0.1344  0.2725 -0.0540
   12OD       C   59   3.631   2.553   1.736 -0.1829  0.3936 -0.2895
   12OD       C   60   3.314   2.553   1.978  0.1584  0.2481 -0.0125
   13OD       C   61   3.975   2.132   0.038  0.0963  0.0460  0.2551
   13OD       C   62   4.113   2.530   0.078 -0.0517 -0.0544 -0.1769
   13OD       C   63   4.117   2.915   0.072 -0.2950 -0.0160 -0.1076
   13OD       C   64   4.409   3.139   0.174  0.3343  0.1282  0.3883
   13OD       C   65   4.710   3.456   0.093 -0.3181 -0.2506  0.1083
   14OD       C   66   7.382   3.264   6.269  0.4437  0.0153 -0.1806
   14OD       C   67   7.364   2.998   6.647 -0.3734 -0.0184  0.0419
   14OD       C   68   7.006   2.710   6.765  0.0332 -0.1908 -0.2622
   14OD       C   69   6.753   2.437   6.975  0.2606 -0.2574  0.2944
   14OD       C   70   6.836   2.049   7.322  0.2147  0.2507  0.3229
   15OD       C   71   2.835   1.386   1.296 -0.0201  0.0099  0.1461
   15OD       C   72   2.746   1.467   0.857 -0.0608  0.0616  0.1914
   15OD       C   73   2.615   1.122   0.565 -0.1956  0.0792 -0.3027
   15OD       C   74   2.490   0.885   0.312 -0.3860 -0.0557 -0.0730
   15OD       C   75   2.241   0.577   0.364  0.1244 -0.0247  0.0701
   16OD       C   76   7.576   2.439   3.798  0.1293 -0.1690 -0.2009
   16OD       C   77   7.200   2.259   3.808 -0.1547  0.2788 -0.2629
   16OD       C   78   6.979   1.999   3.799  0.1367 -0.0038 -0.4738
   16OD       C   79   6.918   1.564   3.882 -0.0553  0.1186  0.0419
   16OD       C   80   6.667   1.145   3.797 -0.3320  0.2590  0.0959
   17OD       C   81   0.662   6.867   2.516 -0.0617  0.1890  0.0054
   17OD       C   82   0.870   7.186   2.523 -0.2022  0.0642  0.2316
   17OD       C   83   1.028   7.565   2.553  0.1904  0.0290  0.0746
   17OD       C   84   1.144   7.904   2.903 -0.1252 -0.4316  0.2143
   17OD       C   85   1.318   7.862   3.355  0.0258 -0.0380 -0.1762
   18OD       C   86   0.757   5.379   1.674  0.1398  0.3426  0.1785
   18OD       C   87   0.531   5.154   1.511 -0.2130 -0.4626  0.1895
   18OD       C   88   0.322   4.865   1.434  0.2877  0.2011  0.0623
   18OD       C   89  -0.076   4.778   1.277  0.0508  0.1741 -0.2416
   18OD       C   90  -0.457   4.694   1.330  0.0968  0.0738 -0.2515
   19OD       C   91   8.003   2.981   5.938  0.1589 -0.2516 -0.1349
   19OD       C   92   7.848   3.356   6.116 -0.2038  0.0322 -0.0437
   19OD       C   93   7.735   3.595   5.829 -0.0811  0.2241 -0.0156
   19OD       C   94   7.426   3.947   5.935 -0.0404  0.2936 -0.0507
   19OD       C   95   7.468   4.361   5.682  0.1527  0.1781  0.2534
   20OD       C   96   4.517   0.813   5.542  0.2879  0.1265 -0.3489
   20OD       C   97   4.123   1.015   5.606 -0.0890  0.1179 -0.0712
   20OD       C   98   3.991   1.463   5.618 -0.0450  0.0185 -0.0189
   20OD       C   99   3.942   1.880   5.686 -0.0932 -0.0333  0.0860
   20OD       C  100   3.857   2.295   5.753 -0.2371  0.2710  0.0990
   21OD       C  101   6.708   1.884   5.713 -0.5143  0.2087 -0.2479
   21OD       C  102   6.333   1.977   5.421 -0.1747 -0.1252  0.1586
   21OD       C  103   6.048   2.186   5.119  0.1576 -0.0049 -0.2675
   21OD       C  104   5.685   2.315   5.184 -0.1716 -0.0973  0.0110
   21OD       C  105   5.549   2.551   5.514 -0.0360 -0.1570 -0.0217
   22OD       C  106   8.301   0.730   3.209 -0.2049  0.0429  0.0718
   22OD       C  107   8.086   0.270   3.147  0.0892 -0.0587 -0.2656
   22OD       C  108   8.049  -0.199   3.058  0.3330 -0.1918  0.2933
   22OD       C  109   7.939  -0.513   2.839 -0.2410 -0.1127  0.0226
   22OD       C  110   8.224  -0.882   2.892  0.0603 -0.0222 -0.0373
   23OD       C  111   7.309   1.636   3.486  0.1813 -0.1020 -0.1132
   23OD       C  112   7.259   1.159   3.725 -0.1427 -0.1452 -0.1396
   23OD       C  113   7.421   0.866   3.941 -0.0279  0.0245  0.1036
   23OD       C  114   7.363   0.630   4.367  0.1715 -0.2749 -0.1982
   23OD       C  115   7.651   0.619   4.680 -0.0182 -0.0551  0.0380
   24OD       C  116   4.916   0.759   5.109  0.0718 -0.0597  0.0291
   24OD       C  117   4.588   0.540   4.943  0.0652 -0.2499 -0.1144
   24OD       C  118   4.364   0.217   4.709 -0.1805 -0.0774  0.0161
   24OD       C  119   4.199   0.196   4.282 -0.1063 -0.0849  0.0248
   24OD       C  120   3.928   0.306   3.953 -0.0983 -0.1124 -0.0263
   25OD       C  121   4.517   6.295   1.137  0.0955 -0.1471 -0.2811
   25OD       C  122   4.341   6.695   1.149  0.2280  0.0340  0.1611
   25OD       C  123   4.331   7.167   1.159 -0.1924 -0.1054 -0.1657
   25OD       C  124   4.541   7.604   1.193 -0.0003 -0.0659 -0.2348
   25OD       C  125   4.720   7.755   1.665 -0.0533  0.0207  0.1478
   26OD       C  126   0.239   0.930   2.829  0.0483 -0.1271  0.1369
   26OD       C  127   0.151   1.207   3.203 -0.1558  0.0696  0.3150
   26OD       C  128   0.074   1.663   3.276 -0.0182  0.1980 -0.0737
   26OD       C  129   0.132   1.891   3.641  0.0788 -0.1827 -0.1390
   26OD       C  130  -0.104   2.126   3.599 -0.2255 -0.0737 -0.1603
   27OD       C  131   8.292   1.838   4.416  0.2077  0.2017 -0.1625
   27OD       C  132   8.172   1.600   4.041  0.1969 -0.0334 -0.1515
   27OD       C  133   8.098   1.180   3.871 -0.2027 -0.2856 -0.0063
   27OD       C  134   7.914   0.898   3.688 -0.2911 -0.1071 -0.3158
   27OD       C  135   7.854   0.633   3.387 -0.3040 -0.1870  0.0759
   28OD       C  136   1.469   3.010   1.689 -0.1624 -0.0177  0.2075
   28OD       C  137   1.206   2.927   1.376  0.3963 -0.3935  0.1323
   28OD       C  138   1.104   2.537   1.191 -0.3436 -0.1432 -0.0431
   28OD       C  139   0.996   2.065   1.226  0.0776 -0.0238  0.0098
   28OD       C  140   1.255   1.730   1.028 -0.0233 -0.2005 -0.0085
   29OD       C  141   1.179   1.196   6.029 -0.0456 -0.2707  0.0424
   29OD       C  142   0.733   1.353   5.881  0.0473 -0.2782  0.2792
   29OD       C  143   0.482   1.270   5.580 -0.0072 -0.0055  0.1825
   29OD       C  144   0.297   1.598   5.297 -0.0328 -0.1122  0.0369
   29OD       C  145  -0.025   1.916   5.161 -0.1948  0.1572  0.0917
   30OD       C  146   3.666   0.671   6.689  0.2429  0.2066  0.0033
   30OD       C  147   3.312   0.554   6.945  0.2698  0.3214 -0.1787
   30OD       C  148   3.037   0.148   6.894  0.0593  0.0331 -0.0019
   30OD       C  149   2.692  -0.081   6.693 -0.1319  0.0109 -0.0224
   30OD       C  150   2.333  -0.239   6.806  0.0839 -0.1427 -0.1127
   31OD       C  151   1.418   4.923   0.699  0.0785 -0.0204  0.2751
   31OD       C  152   1.822   5.061   0.900 -0.0821 -0.4428  0.0240
   31OD       C  153   2.058   4.835   1.296 -0.0165  0.0898  0.0267
   31OD       C  154   2.378   4.976   1.580 -0.0378 -0.0117 -0.2197
   31OD       C  155   2.526   5.432   1.599  0.1389 -0.0170 -0.2954
   32OD       C  156   5.182   3.309   1.395  0.0184  0.1984  0.5924
   32OD       C  157   5.230   3.096   1.757 -0.1355  0.0580 -0.0602
   32OD       C  158   5.079   2.684   2.020 -0.0835 -0.2816 -0.0718
   32OD       C  159   5.127   2.279   2.284  0.0678  0.2402  0.2946
   32OD       C  160   5.151   1.891   2.298  0.0192 -0.1907 -0.2241
   33OD       C  161   6.909   0.748   6.435  0.2957  0.1724  0.4021
   33OD       C  162   7.009   0.978   6.083 -0.2990  0.2702 -0.1582
   33OD       C  163   7.361   1.119   5.955  0.1162 -0.0383  0.1281
   33OD       C  164   7.427   1.519   5.767  0.0114  0.0152 -0.0794
   33OD       C  165   7.377   1.914   5.518  0.0472 -0.2325 -0.0444
   34OD       C  166   9.248   6.369   3.656  0.1206  0.1429  0.1711
   34OD       C  167   8.883   6.279   3.994 -0.1153 -0.1122 -0.0584
   34OD       C  168   8.478   6.345   4.032 -0.3666  0.1788  0.1172
   34OD       C  169   8.045   6.328   4.170  0.1122 -0.0351 -0.4544
   34OD       C  170   7.584   6.453   4.241 -0.0403  0.2490  0.0563
   35OD       C  171   6.639   2.286   1.378  0.2245  0.0151 -0.2218
   35OD       C  172   6.461   2.303   0.971 -0.1960 -0.0974  0.0133
   35OD       C  173   6.760   2.104   0.664  0.2985  0.3087 -0.0013
   35OD       C  174   7.144   2.152   0.571 -0.0672 -0.4274  0.1589
   35OD       C  175   7.376   2.083   0.182 -0.1375  0.0805 -0.1332
   36OD       C  176   8.160   0.104   4.188  0.0705  0.0572 -0.0681
   36OD       C  177   7.736   0.161   4.412 -0.0426 -0.0073  0.1974
   36OD       C  178   7.420   0.073   4.528  0.2304 -0.3083  0.1621
   36OD       C  179   7.080   0.205   4.735  0.2423 -0.0415 -0.2208
   36OD       C  180   6.615   0.212   4.769  0.2005  0.1084 -0.1656
   37OD       C  181   4.291   4.416   2.682 -0.1996  0.1044 -0.1127
   37OD       C  182   4.285   4.734   2.310  0.2427  0.0098 -0.2291
   37OD       C  183   4.563   5.045   2.066 -0.0257  0.0915  0.1399
   37OD       C  184   4.785   5.412   2.157  0.1627 -0.0250  0.0889
   37OD       C  185   5.289   5.504   2.161 -0.3751 -0.0464 -0.0487
   38OD       C  186   5.045   6.535   5.850  0.0438  0.1865  0.1632
   38OD       C  187   4.920   6.929   6.005 -0.1578 -0.3583 -0.0249
   38OD       C  188   4.622   7.209   6.212 -0.2427 -0.2740  0.4217
   38OD       C  189   4.201   7.389   6.235  0.2697  0.1174  0.0345
   38OD       C  190   4.030   7.771   6.144 -0.0375 -0.0837 -0.0724
   39OD       C  191   2.691   2.602   4.463 -0.1484  0.1634  0.1001
   39OD       C  192   2.331   2.585   4.365 -0.1919 -0.0187  0.0884
   39OD       C  193   2.127   2.531   4.696 -0.0241  0.0711  0.3913
   39OD       C  194   2.112   2.378   5.126  0.1456  0.1222 -0.0945
   39OD       C  195   1.958   1.972   5.347  0.1275  0.1915  0.1626
   40OD       C  196   0.468   3.023   1.963 -0.0639  0.0200 -0.1771
   40OD       C  197   0.642   2.887   1.647  0.1260  0.4251 -0.0649
   40OD       C  198   0.708   2.888   1.205 -0.0700 -0.0907 -0.3860
   40OD       C  199   0.806   3.254   0.940  0.2878 -0.2014  0.2529
   40OD       C  200   0.959   3.694   0.833  0.1372  0.0735 -0.0708
   41OD       C  201   4.766   2.179   4.850 -0.2808  0.1722 -0.0418
   41OD       C  202   4.987   2.369   5.053  0.1245  0.0890 -0.2163
   41OD       C  203   5.050   2.666   5.310 -0.0183 -0.1561  0.3229
   41OD       C  204   5.228   3.078   5.447 -0.1659 -0.0729  0.0663
   41OD       C  205   5.028   3.325   5.734 -0.0657  0.2746 -0.1095
   42OD       C  206   3.746   2.977   1.493 -0.0331  0.0052  0.1230
   42OD       C  207   3.738   2.972   0.978  0.1680  0.2413  0.4243
   42OD       C  208   3.561   3.362   0.677  0.0175 -0.0348 -0.0540
   42OD       C  209   3.306   3.738   0.671 -0.0686 -0.2086  0.0394
   42OD       C  210   2.973   4.069   0.369  0.0308 -0.1044 -0.0420
   43OD       C  211   3.314   0.850   6.280  0.1109 -0.0174 -0.2602
   43OD       C  212   3.551   0.708   5.952  0.1069  0.1963 -0.1571
   43OD       C  213   3.909   0.569   5.663  0.0819 -0.0904  0.2062
   43OD       C  214   3.980   0.137   5.564  0.0264 -0.1668 -0.0105
   43OD       C  215   4.034  -0.291   5.864  0.0230 -0.0440 -0.1981
   44OD       C  216   9.353   1.510   1.846 -0.0700  0.0278 -0.0782
   44OD       C  217   9.608   1.785   1.655  0.2574  0.2041 -0.2812
   44OD       C  218   9.923   2.162   1.599 -0.0017 -0.1967 -0.0078
   44OD       C  219  10.357   2.423   1.622 -0.0455  0.0580  0.1101
   44OD       C  220  10.656   2.608   1.734 -0.1228  0.2807  0.4896
   45OD       C  221   8.796   7.010   1.724  0.1356  0.0007  0.0582
   45OD       C  222   8.681   7.331   1.903  0.1020  0.0076  0.3108
   45OD       C  223   8.650   7.739   1.991 -0.0715 -0.2220 -0.2004
   45OD       C  224   8.370   8.059   2.109  0.0400  0.2392 -0.1507
   45OD       C  225   8.473   8.335   2.371  0.1289 -0.1259 -0.2318
   46OD       C  226   7.989   5.411   0.112  0.0459  0.1954 -0.1520
   46OD       C  227   7.799   5.078  -0.234  0.0419 -0.0016  0.0034
   46OD       C  228   7.296   5.141  -0.321 -0.3884  0.0519 -0.1284
   46OD       C  229   6.893   5.243  -0.456  0.0994  0.2131  0.0719
   46OD       C  230   6.486   5.311  -0.791 -0.0728  0.2112 -0.2003
   47OD       C  231   0.020   4.300   1.477 -0.0527 -0.2976 -0.1596
   47OD       C  232  -0.317   4.140   1.266  0.1158 -0.1121  0.2641
   47OD       C  233  -0.566   3.852   1.109 -0.0902  0.2301 -0.1197
   47OD       C  234  -0.768   3.448   1.182 -0.1966 -0.2475  0.2958
   47OD       C  235  -0.727   3.163   1.399  0.1836 -0.0131  0.1104
   48OD       C  236   5.047   2.004   3.191 -0.0094 -0.0556  0.1401
   48OD       C  237   4.667   2.115   3.067  0.0203 -0.2835  0.0957
   48OD       C  238   4.374   1.969   3.334 -0.1866  0.2878 -0.1250
   48OD       C  239   4.056   1.966   3.606 -0.3530 -0.2004 -0.1240
   48OD       C  240   3.932   2.033   4.071 -0.0689 -0.0628  0.2043
   49OD       C  241   0.661   4.780   1.760  0.0538  0.1605 -0.1823
   49OD       C  242   0.631   4.524   2.086 -0.3872 -0.2041  0.0342
   49OD       C  243   0.967   4.324   1.982 -0.0018 -0.1463  0.3849
   49OD       C  244   1.210   4.403   2.366 -0.1106  0.1613 -0.0753
   49OD       C  245   1.327   4.466   2.804  0.0837 -0.1760 -0.2681
   50OD       C  246   8.776   5.541   1.531  0.0530  0.0691 -0.0352
   50OD       C  247   8.379   5.745   1.473  0.2021  0.0562 -0.1702
   50OD       C  248   7.953   5.627   1.353 -0.0249  0.3891 -0.0553
   50OD       C  249   7.421   5.643   1.425 -0.0609 -0.2365 -0.0229
   50OD       C  250   7.009   5.699   1.429  0.1162 -0.0943  0.1924
   51OD       C  251   7.182   2.486   2.899  0.1862  0.1231  0.0837
   51OD       C  252   7.486   2.616   2.531 -0.0339 -0.2129  0.2200
   51OD       C  253   7.676   2.960   2.504  0.4027 -0.1755 -0.2938
   51OD       C  254   8.080   3.206   2.503  0.0419 -0.0795  0.5004
   51OD       C  255   8.328   3.195   2.165  0.2831  0.3805 -0.1552
   52OD       C  256   4.380   1.713   2.739  0.0583 -0.2958  0.2237
   52OD       C  257   4.487   1.410   2.435 -0.1121 -0.0261  0.0350
   52OD       C  258   4.607   0.961   2.337  0.2493 -0.0699  0.0243
   52OD       C  259   4.635   0.551   2.365 -0.0639 -0.1369  0.2648
   52OD       C  260   4.675   0.246   2.021  0.2523 -0.2002  0.1874
   53OD       C  261   0.798   6.523   6.170 -0.0482  0.1155 -0.2587
   53OD       C  262   0.847   6.263   6.460 -0.0355  0.2338 -0.2458
   53OD       C  263   0.872   5.931   6.717  0.1004 -0.2993 -0.0318
   53OD       C  264   0.637   5.517   6.623 -0.1383 -0.0098  0.0442
   53OD       C  265   0.773   5.335   6.223 -0.0185  0.1751 -0.2662
   54OD       C  266   8.834   0.617   6.871 -0.0391  0.1545  0.4752
   54OD       C  267   9.251   0.634   7.077 -0.2718 -0.0417  0.1513
   54OD       C  268   9.424   0.509   7.528  0.2060 -0.5116  0.2344
   54OD       C  269   9.621   0.458   8.006 -0.1589  0.0051 -0.1992
   54OD       C  270   9.833   0.821   8.255  0.1976  0.2821  0.0598
   55OD       C  271   0.030   1.522   4.798  0.0929  0.3102  0.2480
   55OD       C  272   0.051   1.922   4.567 -0.1227  0.2185  0.2298
   55OD       C  273   0.146   2.273   4.570  0.4724  0.1678  0.3209
   55OD       C  274   0.131   2.663   4.566 -0.0365 -0.1427  0.1116
   55OD       C  275   0.204   2.723   4.179 -0.0683 -0.0255 -0.0898
   56OD       C  276   4.004   3.711   0.606 -0.0604 -0.1936 -0.0063
   56OD       C  277   4.146   3.575   0.166 -0.1761  0.0319  0.1896
   56OD       C  278   4.372   3.520  -0.235  0.2607  0.2217 -0.4662
   56OD       C  279   4.794   3.509  -0.424  0.3878  0.4207 -0.0404
   56OD       C  280   5.050   3.896  -0.521 -0.1029 -0.1194 -0.1005
   57OD       C  281   5.516   2.895   3.410 -0.2299  0.4237 -0.0648
   57OD       C  282   5.385   3.033   3.119  0.2798 -0.1318 -0.0990
   57OD       C  283   5.044   3.017   2.903  0.3907  0.1287  0.0389
   57OD       C  284   4.785   3.211   2.615  0.1524  0.0121 -0.0303
   57OD       C  285   4.806   3.542   2.330 -0.0919  0.0862  0.0668
   58OD       C  286   6.674   1.842   2.786  0.0293 -0.0827  0.1477
   58OD       C  287   6.498   2.131   2.453 -0.2004 -0.1852 -0.2213
   58OD       C  288   6.512   2.503   2.411  0.0008 -0.0296  0.1152
   58OD       C  289   6.452   2.905   2.119  0.0245 -0.2318  0.2278
   58OD       C  290   6.330   3.291   1.817 -0.0709  0.1342 -0.3166
   59OD       C  291   8.899   2.728   4.087  0.2072 -0.1421 -0.1525
   59OD       C  292   9.151   2.846   4.407 -0.1677  0.2774 -0.2623
   59OD       C  293   9.458   3.122   4.719 -0.0708  0.4111  0.1656
   59OD       C  294   9.726   3.396   4.690 -0.1534 -0.1415 -0.1670
   59OD       C  295   9.871   3.764   4.587  0.3176 -0.1271  0.0088
   60OD       C  296   4.229   3.141   5.262  0.1008 -0.1104  0.3502
   60OD       C  297   4.486   3.173   4.900  0.1930 -0.4074 -0.1310
   60OD       C  298   4.843   3.287   4.529 -0.1655  0.1206 -0.1708
   60OD       C  299   5.157   3.348   4.302 -0.1356  0.2171 -0.1466
   60OD       C  300   5.607   3.397   4.337 -0.0519 -0.0492 -0.0600
   61OD       C  301   5.314   5.922   6.376 -0.2866  0.0203  0.0373
   61OD       C  302   5.333   5.846   6.826  0.1229 -0.1124  0.0735
   61OD       C  303   5.594   5.581   7.095 -0.1888 -0.2846  0.4003
   61OD       C  304   6.086   5.649   7.101  0.0477  0.1266 -0.1089
   61OD       C  305   6.476   5.754   7.318 -0.1707  0.1011 -0.1604
   62OD       C  306   7.168   3.017   5.410  0.1425  0.0902  0.1629
   62OD       C  307   7.627   3.080   5.232  0.0319  0.2585 -0.0708
   62OD       C  308   8.212   2.849   5.181  0.1480  0.1387  0.0058
   62OD       C  309   8.394   2.642   4.820 -0.0385 -0.0410  0.1069
   62OD       C  310   8.719   2.645   4.639 -0.3019  0.2553  0.0305
   63OD       C  311   5.971   5.720   4.191  0.0514 -0.1400 -0.2188
   63OD       C  312   5.849   5.617   3.787 -0.1025 -0.0905  0.0428
   63OD       C  313   5.613   5.497   3.368 -0.1668  0.4111  0.0043
   63OD       C  314   5.675   5.373   2.909 -0.0966  0.0448  0.0005
   63OD       C  315   5.381   5.433   2.615 -0.1436 -0.1669 -0.2461
   64OD       C  316   2.594   3.720   6.272 -0.1090 -0.0556  0.0967
   64OD       C  317   2.489   3.877   6.559  0.1730 -0.3375 -0.2446
   64OD       C  318   2.418   4.172   6.894  0.2223  0.0742 -0.0897
   64OD       C  319   2.077   4.209   7.149 -0.1606  0.0321 -0.5367
   64OD       C  320   1.702   4.480   7.255  0.0849  0.0186 -0.1980
   65OD       C  321   2.109   0.463   2.358 -0.1592 -0.0407 -0.1000
   65OD       C  322   2.273   0.833   2.676 -0.2659 -0.0454 -0.0120
   65OD       C  323   2.201   1.018   3.048  0.1856 -0.1847  0.0593
   65OD       C  324   1.974   1.207   3.489  0.0286  0.0294 -0.3165
   65OD       C  325   1.699   1.493   3.855 -0.1541  0.2603 -0.0994
   66OD       C  326   1.439   2.237   5.836 -0.0214  0.1377  0.4355
   66OD       C  327   1.507   1.828   5.545 -0.1601  0.3904  0.1254
   66OD       C  328   1.376   1.519   5.348 -0.2755  0.2843 -0.1481
   66OD       C  329   1.474   1.056   5.082  0.1703 -0.2555 -0.0136
   66OD       C  330   1.617   0.660   5.126 -0.0618 -0.1387  0.0841
   67OD       C  331   5.303   3.278   0.915  0.0512  0.2256  0.2194
   67OD       C  332   5.603   3.397   0.641 -0.1017 -0.2998  0.0446
   67OD       C  333   6.051   3.143   0.525 -0.0001  0.1117 -0.1776
   67OD       C  334   6.311   2.787   0.410  0.3982 -0.0644  0.2789
   67OD       C  335   6.135   2.372   0.577  0.2486  0.0560 -0.1221
   68OD       C  336   1.906   3.883   2.727  0.1317  0.1539  0.0677
   68OD       C  337   2.072   3.778   3.115  0.0513  0.2070  0.1620
   68OD       C  338   2.168   3.415   3.361 -0.4329  0.0700  0.1908
   68OD       C  339   2.321   3.084   3.714  0.0866 -0.0146  0.1877
   68OD       C  340   2.241   2.661   3.889  0.1991 -0.2712  0.2566
   69OD       C  341   6.337   3.487   2.631 -0.4965  0.0844 -0.1002
   69OD       C  342   6.067   3.473   2.790  0.0740  0.0150  0.0753
   69OD       C  343   5.617   3.540   2.965 -0.1665 -0.0336 -0.0464
   69OD       C  344   5.318   3.859   3.167 -0.1249  0.0216  0.1440
   69OD       C  345   5.032   4.190   3.433 -0.2252 -0.0468  0.0856
   70OD       C  346   1.641   2.678   6.451  0.0967  0.0089 -0.2349
   70OD       C  347   1.563   2.684   6.059 -0.0489 -0.1113  0.0145
   70OD       C  348   1.902   2.575   5.750 -0.1945 -0.2263 -0.0890
   70OD       C  349   1.728   2.354   5.477  0.0099 -0.3082 -0.1292
   70OD       C  350   1.539   2.181   5.179  0.2257 -0.1052  0.0428
   71OD       C  351   7.853   4.416   3.167 -0.3116 -0.1155 -0.0627
   71OD       C  352   7.962   4.109   2.864 -0.0680  0.1397  0.4132
   71OD       C  353   8.375   3.994   2.758  0.0615  0.1430 -0.2950
   71OD       C  354   8.761   3.806   2.829 -0.1099  0.0453  0.1851
   71OD       C  355   9.151   3.627   2.845  0.0755  0.3301  0.0397
   72OD       C  356   1.194   1.389   3.772 -0.0446 -0.1565 -0.1636
   72OD       C  357   1.348   1.804   3.914  0.2583  0.3560 -0.1429
   72OD       C  358   1.733   1.973   4.104  0.2364  0.0635 -0.2923
   72OD       C  359   2.022   2.054   4.474  0.0567 -0.1236 -0.0410
   72OD       C  360   1.912   1.954   4.860 -0.2234 -0.2111  0.4474
   73OD       C  361   5.978   0.368   1.918  0.2183 -0.1433  0.2166
   73OD       C  362   6.358   0.322   1.649 -0.2939  0.1580  0.0861
   73OD       C  363   6.819   0.495   1.563  0.0533 -0.2287  0.3033
   73OD       C  364   7.214   0.441   1.785 -0.2284 -0.1444  0.0032
   73OD       C  365   7.506   0.338   2.055 -0.2325  0.1467 -0.1445
   74OD       C  366   5.083   4.419   0.440  0.1943  0.2551 -0.1815
   74OD       C  367   5.194   4.599   0.867 -0.0986  0.1893 -0.0546
   74OD       C  368   5.299   4.956   1.141 -0.3959  0.1162  0.0039
   74OD       C  369   5.372   5.015   1.571  0.0344  0.0150 -0.1742
   74OD       C  370   5.110   5.023   2.002  0.4947  0.0101 -0.0629
   75OD       C  371   8.483   6.656   6.227 -0.2637  0.0860 -0.2048
   75OD       C  372   8.746   6.402   5.883  0.2323 -0.1295 -0.3265
   75OD       C  373   9.030   6.228   5.591 -0.0366 -0.0344  0.0476
   75OD       C  374   9.563   6.295   5.598  0.4144  0.0501 -0.0976
   75OD       C  375   9.885   6.108   5.463  0.0723  0.1201 -0.1728
   76OD       C  376   4.851   3.956   2.576 -0.1687 -0.2624  0.2210
   76OD       C  377   4.805   4.026   2.994  0.0069 -0.3075  0.2020
   76OD       C  378   4.683   4.416   3.122 -0.2352 -0.1420 -0.0321
   76OD       C  379   4.862   4.833   3.078  0.0600  0.1949  0.4183
   76OD       C  380   4.893   5.087   3.287 -0.0096  0.1042  0.0773
   77OD       C  381   6.943   6.907   2.898  0.0778 -0.2260 -0.0073
   77OD       C  382   6.566   7.027   2.841  0.1407  0.1190  0.3778
   77OD       C  383   6.215   7.325   2.767 -0.2004 -0.0483 -0.0581
   77OD       C  384   5.917   7.492   2.418 -0.1362 -0.0904 -0.1300
   77OD       C  385   5.658   7.726   2.303  0.2911 -0.3077  0.1543
   78OD       C  386   1.961   1.564   5.662  0.0646 -0.0654 -0.1659
   78OD       C  387   1.831   1.277   5.912 -0.2913 -0.0900 -0.0425
   78OD       C  388   1.680   0.793   5.847 -0.2051  0.0530 -0.0141
   78OD       C  389   1.392   0.561   5.594 -0.0914  0.1554  0.0468
   78OD       C  390   1.093   0.458   5.913  0.2322  0.2435  0.0623
   79OD       C  391   2.695   6.406   5.524  0.0807  0.0536  0.0810
   79OD       C  392   2.669   5.943   5.355  0.0263  0.1832  0.0101
   79OD       C  393   2.929   5.515   5.261 -0.0921 -0.1450 -0.1417
   79OD       C  394   3.076   5.054   5.181 -0.0595 -0.0426  0.0522
   79OD       C  395   3.259   4.760   4.843 -0.1404  0.3583  0.2637
   80OD       C  396   0.698   2.403   0.480 -0.0245  0.0062 -0.1442
   80OD       C  397   0.892   2.064   0.693 -0.0804  0.0295 -0.0758
   80OD       C  398   0.721   1.705   0.960 -0.0430  0.0057  0.0420
   80OD       C  399   0.916   1.232   1.056 -0.0857 -0.3929  0.0550
   80OD       C  400   0.768   0.718   1.005 -0.0940  0.0512 -0.0414
   81OD       C  401   5.953   4.045   4.087  0.3281  0.2785  0.0652
   81OD       C  402   6.044   4.437   3.928 -0.0281 -0.1492 -0.3258
   81OD       C  403   6.265   4.706   4.122  0.0473  0.0345  0.0806
   81OD       C  404   6.593   4.780   4.427  0.1252 -0.0507  0.1797
   81OD       C  405   6.691   5.093   4.757  0.0009  0.0253 -0.2505
   82OD       C  406   3.990   0.880   0.702 -0.1274  0.1690  0.1067
   82OD       C  407   3.791   0.817   0.356 -0.0038  0.2369 -0.2076
   82OD       C  408   3.468   0.835   0.106 -0.0518 -0.0906  0.0730
   82OD       C  409   3.156   1.107  -0.069 -0.2995 -0.3270  0.0672
   82OD       C  410   2.771   1.377   0.202 -0.1681  0.1432  0.1130
   83OD       C  411   7.887   1.652   0.959 -0.0266  0.0080  0.0856
   83OD       C  412   8.349   1.480   0.970 -0.1726 -0.1741  0.1085
   83OD       C  413   8.713   1.334   0.931  0.0982 -0.0917  0.2383
   83OD       C  414   8.985   1.101   1.145 -0.0585  0.1437  0.1255
   83OD       C  415   9.068   1.259   1.552 -0.0552  0.0198 -0.3335
   84OD       C  416   2.674   2.811   6.572 -0.0018  0.1049  0.3315
   84OD       C  417   3.058   2.881   6.271  0.2207 -0.0073  0.1152
   84OD       C  418   3.592   2.853   6.208  0.3561  0.0047 -0.1544
   84OD       C  419   3.974   3.007   6.354  0.0139  0.0278  0.0376
   84OD       C  420   3.954   3.195   6.877  0.2463 -0.1054 -0.2123
   85OD       C  421   0.543   0.927   1.425 -0.3100 -0.0435  0.1702
   85OD       C  422   0.265   0.590   1.501  0.0923  0.2119 -0.2520
   85OD       C  423  -0.140   0.398   1.434  0.0741 -0.0677 -0.1511
   85OD       C  424  -0.305   0.136   1.007  0.2213  0.4562 -0.1685
   85OD       C  425  -0.435   0.265   0.571  0.0954  0.0562 -0.0037
   86OD       C  426   0.103   6.644   4.050  0.0195  0.0134  0.1024
   86OD       C  427   0.194   6.443   4.345 -0.0197  0.0450  0.0454
   86OD       C  428   0.007   6.278   4.733 -0.3126  0.3032 -0.1866
   86OD       C  429  -0.216   6.070   5.132  0.1294 -0.1335  0.1245
   86OD       C  430  -0.055   5.838   5.532  0.1852 -0.1944 -0.0860
   87OD       C  431   7.159   3.411   4.556 -0.1016 -0.1523 -0.0218
   87OD       C  432   6.992   3.295   4.143  0.0342 -0.3682 -0.0778
   87OD       C  433   6.858   3.613   3.881 -0.0373  0.0387  0.0364
   87OD       C  434   6.540   3.784   4.065  0.0730 -0.1131 -0.0410
   87OD       C  435   6.272   3.814   3.796 -0.0326  0.1455 -0.2920
   88OD       C  436   4.260   4.332   6.799 -0.0029  0.0173 -0.2544
   88OD       C  437   3.927   4.644   6.715 -0.0169 -0.0029  0.2405
   88OD       C  438   3.633   4.843   6.595  0.2457 -0.0673  0.1337
   88OD       C  439   3.200   5.075   6.527 -0.1565 -0.3700  0.1766
   88OD       C  440   3.065   5.373   6.447 -0.0350 -0.2974 -0.1977
   89OD       C  441   1.869   6.802   2.065 -0.1181  0.0653  0.0081
   89OD       C  442   1.869   6.617   1.656  0.2402 -0.1179  0.2238
   89OD       C  443   1.528   6.342   1.383  0.1942  0.0459 -0.0482
   89OD       C  444   1.225   6.262   1.212 -0.0799  0.0980 -0.1072
   89OD       C  445   1.118   6.130   0.815  0.5774 -0.1103 -0.0630
   90OD       C  446   1.227   6.675   0.648  0.0759 -0.4275 -0.1138
   90OD       C  447   0.813   6.541   0.935  0.0288 -0.2138 -0.0449
   90OD       C  448   0.362   6.549   1.010 -0.0991 -0.2078 -0.1358
   90OD       C  449   0.026   6.616   0.756 -0.2122 -0.0803 -0.1676
   90OD       C  450  -0.268   6.954   0.643  0.1306  0.2365 -0.1087
   91OD       C  451   7.739   1.417   3.558 -0.0123 -0.0846  0.0618
   91OD       C  452   7.948   1.099   3.240  0.1710  0.3109 -0.1285
   91OD       C  453   7.940   0.838   2.898 -0.4572 -0.1577  0.1579
   91OD       C  454   8.184   0.742   2.591  0.1657  0.0337  0.0312
   91OD       C  455   8.408   0.443   2.409 -0.0353 -0.0372 -0.1037
   92OD       C  456   8.400   2.018   3.888 -0.1585  0.0677  0.1116
   92OD       C  457   8.725   1.753   4.134  0.1259 -0.1257  0.0445
   92OD       C  458   8.689   1.549   4.489  0.0015  0.1790 -0.2430
   92OD       C  459   8.700   1.332   4.906  0.0585 -0.2826 -0.2606
   92OD       C  460   8.543   1.376   5.218 -0.1776  0.3914  0.1886
   93OD       C  461   2.719   6.585   1.988 -0.0867 -0.1082  0.3493
   93OD       C  462   2.488   6.899   1.884 -0.1423  0.3907 -0.2398
   93OD       C  463   2.196   6.947   1.732  0.2014 -0.1733 -0.1940
   93OD       C  464   2.096   6.941   1.315 -0.2895 -0.1215 -0.2295
   93OD       C  465   1.963   6.472   1.116 -0.0543 -0.3892  0.1028
   94OD       C  466   7.513   6.765   4.861 -0.0551 -0.3574 -0.1215
   94OD       C  467   7.582   6.853   5.331 -0.2333  0.0035  0.1531
   94OD       C  468   7.968   6.927   5.683 -0.0474 -0.0822  0.0463
   94OD       C  469   8.408   6.980   5.858  0.2557 -0.0436  0.0364
   94OD       C  470   8.815   7.058   5.881 -0.0590  0.0598 -0.2048
   95OD       C  471   0.523   1.537   3.466  0.0631  0.0540 -0.0060
   95OD       C  472   0.108   1.425   3.740 -0.1713 -0.4946  0.0877
   95OD       C  473  -0.065   1.043   3.893  0.1678 -0.0550  0.5043
   95OD       C  474  -0.289   0.601   3.924  0.0569 -0.0886  0.4987
   95OD       C  475  -0.560   0.526   4.318 -0.0675  0.0331  0.2268
   96OD       C  476   6.387   7.120   0.899  0.2982 -0.1519 -0.0350
   96OD       C  477   6.397   6.987   1.323  0.0239  0.2179 -0.0137
   96OD       C  478   6.122   7.059   1.756  0.1863 -0.1080  0.0574
   96OD       C  479   6.018   6.816   2.001  0.2439 -0.0462 -0.2656
   96OD       C  480   6.193   6.570   2.293 -0.2740  0.1439 -0.2287
   97OD       C  481   9.516   5.457   5.825  0.3606  0.1029 -0.1424
   97OD       C  482   9.525   5.001   5.936 -0.1293  0.0458 -0.0227
   97OD       C  483   9.658   4.622   6.358  0.2457 -0.2161  0.1569
   97OD       C  484   9.971   4.370   6.681  0.3099 -0.4885  0.1033
   97OD       C  485   9.839   4.129   7.122  0.1116  0.0432 -0.1555
   98OD       C  486   0.558   5.011   5.000  0.0374  0.0715 -0.1579
   98OD       C  487   0.906   4.804   5.100  0.0097 -0.1291  0.1392
   98OD       C  488   1.248   4.852   4.805  0.2685 -0.1234 -0.2422
   98OD       C  489   1.365   4.459   4.597 -0.2611 -0.0131  0.1364
   98OD       C  490   1.352   4.040   4.681  0.1661 -0.1513  0.1343
   99OD       C  491   9.273   2.386   1.468 -0.2658  0.2235  0.1316
   99OD       C  492   9.232   2.114   1.753 -0.0425  0.3896  0.1069
   99OD       C  493   9.146   2.128   2.182  0.0114  0.0397 -0.0054
   99OD       C  494   9.194   2.085   2.586  0.0967  0.1354  0.2076
   99OD       C  495   8.872   2.126   2.728 -0.2835  0.0574 -0.4117
  100OD       C  496   5.513   7.131   5.248  0.2909 -0.0646  0.0040
  100OD       C  497   5.795   7.064   5.562 -0.0383 -0.0051 -0.1721
  100OD       C  498   5.988   7.000   5.926 -0.1953  0.2266  0.2211
  100OD       C  499   5.833   6.960   6.329  0.2864  0.1297  0.0653
  100OD       C  500   5.986   6.926   6.746 -0.1611 -0.2522  0.1530
  101OD       C  501   1.961   5.205   3.193  0.1399  0.0521  0.1454
  101OD       C  502   2.300   5.469   2.973  0.1226 -0.2668 -0.2217
  101OD       C  503   2.298   5.857   2.764 -0.1569 -0.1020 -0.1095
  101OD       C  504   2.417   6.293   2.646 -0.0119  0.2993 -0.3967
  101OD       C  505   2.483   6.702   2.447 -0.4007  0.1136  0.1387
  102OD       C  506   0.839   1.050   2.612 -0.1038  0.1584  0.1120
  102OD       C  507   0.664   0.782   2.457  0.0625  0.0074 -0.1101
  102OD       C  508   0.452   0.287   2.434 -0.0828 -0.2059  0.1046
  102OD       C  509   0.241  -0.025   2.447 -0.1939  0.0825  0.0481
  102OD       C  510  -0.063  -0.313   2.335 -0.2026  0.0335 -0.2370
  103OD       C  511   5.987   4.452   0.815  0.1309 -0.0849 -0.2644
  103OD       C  512   5.651   4.288   0.901  0.1017  0.1211 -0.2196
  103OD       C  513   5.316   3.927   0.746  0.2207  0.1609 -0.0951
  103OD       C  514   5.032   3.906   0.379  0.4688 -0.0650  0.1020
  103OD       C  515   4.917   3.978  -0.011 -0.0388 -0.1627  0.1803
  104OD       C  516   3.747   2.684   3.418  0.1346  0.0510  0.1774
  104OD       C  517   3.787   2.241   3.229  0.2208 -0.1221 -0.1606
  104OD       C  518   3.922   1.749   3.159 -0.1772  0.0368 -0.1587
  104OD       C  519   3.965   1.377   2.873 -0.1198 -0.0564 -0.1504
  104OD       C  520   4.319   1.081   2.800 -0.3679 -0.2443 -0.2686
  105OD       C  521   0.229   5.799   6.497 -0.1289  0.1034  0.2873
  105OD       C  522   0.002   5.569   6.765  0.0366  0.2932 -0.1318
  105OD       C  523  -0.361   5.680   6.952 -0.1805 -0.3021  0.0062
  105OD       C  524  -0.683   5.715   7.356 -0.0881 -0.4074  0.1201
  105OD       C  525  -1.056   5.591   7.485  0.3820 -0.2087  0.1547
  106OD       C  526   0.909   2.321   0.020 -0.2642  0.2018 -0.1812
  106OD       C  527   0.529   2.548  -0.004  0.2707  0.2050  0.2038
  106OD       C  528   0.247   2.541   0.349 -0.2145  0.1430  0.1647
  106OD       C  529   0.015   2.800   0.562  0.0477  0.0652 -0.2946
  106OD       C  530  -0.066   3.039   0.981 -0.1097 -0.2656  0.0634
  107OD       C  531   3.303   4.131   4.757  0.0150  0.2065 -0.4214
  107OD       C  532   3.625   4.039   4.963  0.3294  0.0756 -0.1387
  107OD       C  533   3.748   3.626   5.162  0.0202  0.4950  0.1680
  107OD       C  534   4.172   3.601   5.027 -0.1659  0.0840  0.3228
  107OD       C  535   4.678   3.623   4.911  0.1521  0.0396  0.0066
  108OD       C  536   3.911   0.455   3.491  0.0019 -0.2878  0.0063
  108OD       C  537   3.533   0.447   3.546 -0.0738 -0.2373  0.0401
  108OD       C  538   3.358   0.589   3.825 -0.4110 -0.3386  0.0722
  108OD       C  539   3.532   0.782   4.144 -0.2031  0.1178  0.1364
  108OD       C  540   3.422   0.870   4.522 -0.0812  0.0930  0.0927
  109OD       C  541   7.253   2.837   3.668  0.2818  0.1592  0.2400
  109OD       C  542   6.889   3.104   3.665  0.1906  0.2359  0.0218
  109OD       C  543   6.484   2.974   3.498  0.1038 -0.0422 -0.0267
  109OD       C  544   6.114   3.054   3.395  0.1820  0.0737  0.1738
  109OD       C  545   5.892   3.040   3.074  0.3069  0.1313 -0.1040
  110OD       C  546   2.208   5.988   3.767  0.2097  0.2087  0.0887
  110OD       C  547   1.953   6.450   3.744  0.1234  0.2851  0.1939
  110OD       C  548   1.579   6.493   3.436 -0.2401 -0.1333  0.1863
  110OD       C  549   1.292   6.588   3.000 -0.2714 -0.0878  0.1446
  110OD       C  550   1.300   6.743   2.611 -0.1544 -0.1219 -0.0643
  111OD       C  551   4.885   4.885   6.504 -0.0356  0.0861  0.1862
  111OD       C  552   4.814   4.657   6.165 -0.2274 -0.0228  0.1017
  111OD       C  553   4.440   4.708   5.906  0.3328  0.2209 -0.1101
  111OD       C  554   4.228   4.919   5.570  0.0984 -0.2909  0.0923
  111OD       C  555   4.125   4.922   5.104 -0.3572  0.1719  0.1201
  112OD       C  556   6.199   1.977   5.913  0.4301  0.0543  0.2528
  112OD       C  557   5.777   1.769   6.023  0.1573 -0.3926  0.0512
  112OD       C  558   5.377   1.760   6.015 -0.1568 -0.2309  0.0286
  112OD       C  559   4.875   1.795   5.985 -0.2762 -0.0731  0.2755
  112OD       C  560   4.463   2.052   6.025 -0.1618 -0.0123  0.0682
  113OD       C  561   8.354   2.426   1.455 -0.0228  0.2609 -0.0427
  113OD       C  562   8.450   2.784   1.351 -0.0459 -0.0263 -0.0346
  113OD       C  563   8.384   2.992   0.979  0.0859 -0.0636  0.1440
  113OD       C  564   8.561   3.282   0.619 -0.1700  0.4544 -0.3501
  113OD       C  565   8.781   3.578   0.385 -0.0278  0.2123  0.0007
  114OD       C  566   1.310   2.217   0.335 -0.1187 -0.1700  0.3796
  114OD       C  567   1.219   1.757   0.526  0.0928 -0.0455  0.0422
  114OD       C  568   1.298   1.306   0.723  0.1607 -0.0619 -0.0222
  114OD       C  569   1.327   0.841   0.882  0.2144  0.1660 -0.1907
  114OD       C  570   1.220   0.418   1.034 -0.2473  0.1248 -0.0139
  115OD       C  571   6.925   5.828   4.050  0.0306  0.1752 -0.1235
  115OD       C  572   6.460   5.780   4.254 -0.1997  0.3492  0.1054
  115OD       C  573   6.266   5.437   4.587 -0.0452 -0.0743 -0.2093
  115OD       C  574   6.333   5.364   5.021  0.2070 -0.1693  0.4006
  115OD       C  575   6.668   5.399   5.204 -0.2060 -0.2477  0.2036
  116OD       C  576   1.266   3.406   1.262  0.1188  0.0845 -0.0388
  116OD       C  577   0.922   3.308   1.516 -0.1187 -0.0027  0.1665
  116OD       C  578   0.729   3.444   1.875  0.1791  0.0739 -0.2351
  116OD       C  579   0.361   3.556   1.944  0.1357  0.2425 -0.2061
  116OD       C  580  -0.024   3.385   1.865 -0.0695  0.3474  0.0323
  117OD       C  581   0.003   2.424   5.062 -0.1654  0.0342 -0.0068
  117OD       C  582   0.085   2.805   5.122 -0.2001 -0.0125 -0.0773
  117OD       C  583   0.001   3.079   5.444  0.1002  0.0173  0.0778
  117OD       C  584   0.072   3.094   5.904  0.1757 -0.0994  0.2149
  117OD       C  585  -0.042   3.513   6.175 -0.0038 -0.3625  0.0703
  118OD       C  586   6.717   4.814   6.727  0.2002 -0.2187  0.0871
  118OD       C  587   6.361   4.700   6.895  0.1328  0.0683 -0.0799
  118OD       C  588   6.080   4.839   7.239  0.3252  0.1010 -0.3279
  118OD       C  589   5.933   4.888   7.682 -0.1413 -0.3880 -0.0671
  118OD       C  590   5.555   4.970   7.925  0.2180  0.0780 -0.0168
  119OD       C  591   6.671   5.787   1.793  0.0661 -0.1404  0.0073
  119OD       C  592   6.862   5.804   2.297  0.0014  0.0853 -0.0946
  119OD       C  593   6.862   5.911   2.707  0.0394 -0.4128  0.3752
  119OD       C  594   6.971   6.278   3.063  0.0264 -0.0056 -0.0565
  119OD       C  595   7.067   6.342   3.534  0.1979  0.1633  0.1145
  120OD       C  596   5.774   4.717   1.160  0.1697  0.2173  0.1331
  120OD       C  597   5.802   4.842   1.562  0.0657 -0.1242 -0.2336
  120OD       C  598   6.031   4.858   1.921 -0.1279  0.1070  0.0512
  120OD       C  599   5.881   4.782   2.387 -0.2427 -0.0421  0.3277
  120OD       C  600   6.028   4.995   2.814  0.1452 -0.2481  0.0548
  121OD       C  601   1.030   4.125   0.640  0.2206 -0.1711 -0.2218
  121OD       C  602   1.252   4.322   1.058  0.1072 -0.0322  0.0698
  121OD       C  603   1.429   4.764   1.168  0.0296 -0.3808 -0.1762
  121OD       C  604   1.658   4.850   1.503  0.2435 -0.0533 -0.0390
  121OD       C  605   1.679   5.151   1.782 -0.0344  0.0143  0.3310
  122OD       C  606   2.266   2.830   5.078 -0.1666 -0.1334  0.0532
  122OD       C  607   2.443   2.673   5.456  0.3384 -0.0979  0.1496
  122OD       C  608   2.310   2.292   5.666  0.1782 -0.0990  0.1118
  122OD       C  609   2.423   2.027   6.002 -0.0324 -0.1081  0.2421
  122OD       C  610   2.615   1.779   6.267  0.1448  0.0862  0.1930
  123OD       C  611   8.131   4.729   4.993  0.0605 -0.0582 -0.2985
  123OD       C  612   8.154   4.321   5.179 -0.0584  0.2296 -0.1660
  123OD       C  613   7.923   4.082   5.496 -0.0005 -0.1932 -0.0967
  123OD       C  614   8.012   4.019   5.872  0.2720  0.0102 -0.0553
  123OD       C  615   8.412   3.872   6.034 -0.2521 -0.1251 -0.0082
  124OD       C  616   3.454   5.518   5.197 -0.3906  0.1940  0.1129
  124OD       C  617   3.811   5.595   4.843 -0.0106  0.0202  0.1123
  124OD       C  618   4.175   5.385   4.794 -0.3992  0.2808 -0.1812
  124OD       C  619   4.351   4.968   4.660 -0.0615  0.2058 -0.0288
  124OD       C  620   4.287   4.460   4.664  0.0038 -0.3260 -0.0200
  125OD       C  621   5.408   2.109   5.619 -0.2091  0.1668 -0.1197
  125OD       C  622   5.114   2.299   5.820  0.1129  0.2021 -0.2644
  125OD       C  623   4.767   2.553   6.073 -0.1557 -0.0422 -0.2632
  125OD       C  624   4.535   2.780   6.364  0.1771 -0.2980 -0.1338
  125OD       C  625   4.223   2.754   6.735 -0.0294 -0.0024  0.2626
  126OD       C  626   0.216   4.781   2.354  0.0956  0.1806  0.2823
  126OD       C  627  -0.023   5.121   2.614  0.1097  0.0388  0.4715
  126OD       C  628  -0.201   5.504   2.845 -0.0078 -0.1605 -0.0928
  126OD       C  629  -0.468   5.806   3.111 -0.1556  0.2097  0.0254
  126OD       C  630  -0.611   6.022   3.501  0.0770 -0.0214 -0.2492
  127OD       C  631   7.626   1.097   2.517  0.0390 -0.1502  0.3829
  127OD       C  632   7.731   0.644   2.491  0.3682 -0.0453 -0.3621
  127OD       C  633   7.321   0.399   2.543 -0.1736 -0.2749  0.2364
  127OD       C  634   7.393  -0.044   2.420  0.1054 -0.2433  0.4275
  127OD       C  635   7.573  -0.508   2.360  0.2214 -0.0778  0.1128
  128OD       C  636   7.179   4.674   5.424 -0.3200 -0.0011  0.1079
  128OD       C  637   7.308   4.243   5.201 -0.0373  0.4097  0.0970
  128OD       C  638   7.112   3.904   5.029  0.1744  0.0888  0.2011
  128OD       C  639   6.766   3.590   4.776  0.0982 -0.1693  0.2489
  128OD       C  640   6.450   3.363   4.868  0.1787  0.4496 -0.2175
  129OD       C  641   3.085   2.260   4.367 -0.2836  0.1283  0.0541
  129OD       C  642   3.180   2.672   4.375 -0.1288  0.2050  0.1060
  129OD       C  643   3.281   3.158   4.220 -0.0233  0.0145 -0.2064
  129OD       C  644   3.122   3.490   3.956  0.1233  0.0739 -0.1402
  129OD       C  645   3.422   3.752   3.680  0.0563 -0.0297 -0.0104
  130OD       C  646   7.810   3.180   2.056  0.1544 -0.2298 -0.2122
  130OD       C  647   7.393   2.957   2.047  0.1994 -0.1193 -0.1386
  130OD       C  648   7.072   2.767   1.904  0.3424  0.3515  0.2900
  130OD       C  649   6.741   2.451   1.917  0.1221  0.1516 -0.0333
  130OD       C  650   6.316   2.448   1.892 -0.1703 -0.1102  0.0284
  131OD       C  651   2.501   5.736   1.138  0.0184 -0.0994 -0.0423
  131OD       C  652   2.363   5.896   1.553 -0.0612 -0.1135 -0.0514
  131OD       C  653   2.515   6.177   1.826 -0.2267  0.1058 -0.0285
  131OD       C  654   2.250   6.473   2.004 -0.2460 -0.0574 -0.3630
  131OD       C  655   2.023   6.301   2.295  0.2862  0.2874  0.2078
  132OD       C  656   0.369   2.098   3.248  0.0051 -0.2866  0.0743
  132OD       C  657   0.584   2.283   2.865 -0.0478 -0.2163 -0.1346
  132OD       C  658   0.645   2.011   2.530 -0.0129  0.1495 -0.2405
  132OD       C  659   0.392   1.557   2.408  0.1677 -0.0796  0.0900
  132OD       C  660   0.372   1.163   2.367  0.4037  0.2244  0.0996
  133OD       C  661   6.654   7.156   1.768  0.1048  0.1624 -0.0913
  133OD       C  662   6.391   7.332   2.071  0.0942 -0.1492  0.3237
  133OD       C  663   6.187   7.076   2.378 -0.1857  0.0979  0.1610
  133OD       C  664   6.050   6.746   2.712  0.1215 -0.3945  0.3861
  133OD       C  665   5.953   6.412   2.733 -0.0456  0.2201 -0.1064
  134OD       C  666   0.791   0.818   6.193  0.1841 -0.2532 -0.0156
  134OD       C  667   0.679   0.986   6.608 -0.1304  0.0450 -0.0189
  134OD       C  668   0.601   1.383   6.928 -0.0768 -0.0346 -0.3823
  134OD       C  669   0.876   1.712   6.828 -0.0025 -0.3800  0.0608
  134OD       C  670   0.879   2.178   6.751  0.1558 -0.1007  0.0532
  135OD       C  671   0.193   2.223   4.026 -0.0717  0.3819  0.3200
  135OD       C  672   0.197   2.528   3.702 -0.0229  0.1426 -0.1756
  135OD       C  673  -0.017   2.493   3.268  0.0038 -0.1068  0.1339
  135OD       C  674  -0.017   2.262   2.945  0.0364  0.3264 -0.1307
  135OD       C  675   0.125   1.930   2.726 -0.0169 -0.3267  0.0374
  136OD       C  676   0.506   2.808   2.582 -0.2360 -0.0893 -0.2223
  136OD       C  677   0.586   3.249   2.818  0.1262 -0.0832 -0.3629
  136OD       C  678   0.500   3.707   2.826 -0.3642  0.0534  0.6880
  136OD       C  679   0.393   4.097   2.845 -0.1418  0.1476  0.1400
  136OD       C  680   0.308   4.260   2.492 -0.0327  0.0506  0.5201
  137OD       C  681   2.217   3.581   4.028 -0.0869  0.3104 -0.2668
  137OD       C  682   2.137   3.433   4.386 -0.0167 -0.1455  0.2199
  137OD       C  683   1.999   3.680   4.728  0.0471  0.0449  0.0935
  137OD       C  684   1.899   4.170   4.659  0.0035  0.0699 -0.3384
  137OD       C  685   1.734   4.531   4.891  0.2009  0.2949  0.2459
  138OD       C  686   7.700   4.990   0.239 -0.2917 -0.1184 -0.1372
  138OD       C  687   7.286   4.806   0.092  0.1436  0.0483  0.1117
  138OD       C  688   7.084   4.491  -0.191 -0.0188  0.0955 -0.2474
  138OD       C  689   7.040   4.480  -0.634 -0.1103 -0.0169 -0.0246
  138OD       C  690   6.856   4.657  -0.936 -0.0194 -0.1498 -0.0528
  139OD       C  691   3.631   3.990   1.479 -0.3079 -0.1631 -0.1652
  139OD       C  692   3.984   3.914   1.283  0.2537 -0.0034  0.0631
  139OD       C  693   4.421   4.133   1.312 -0.1776 -0.2209 -0.0843
  139OD       C  694   4.579   4.148   1.698  0.0837 -0.2594  0.1192
  139OD       C  695   4.898   4.063   2.040  0.3026  0.0668  0.0990
  140OD       C  696   7.475   6.792   6.927  0.2517 -0.0640 -0.2105
  140OD       C  697   7.781   7.161   6.902  0.0445 -0.0558 -0.0583
  140OD       C  698   8.099   7.291   7.133 -0.0506 -0.0050  0.0375
  140OD       C  699   8.177   7.454   7.531 -0.3491  0.1382  0.1933
  140OD       C  700   8.497   7.468   7.766  0.0417 -0.0671  0.0476
  141OD       C  701   4.594   4.236   5.087 -0.3362  0.3026 -0.0844
  141OD       C  702   4.333   4.508   5.380  0.0520 -0.3102  0.1891
  141OD       C  703   3.913   4.629   5.437 -0.1051 -0.1369  0.0134
  141OD       C  704   3.539   4.547   5.386 -0.0191 -0.1290  0.2140
  141OD       C  705   3.133   4.416   5.188 -0.1913 -0.1791 -0.0889
  142OD       C  706   0.985   2.115   3.940  0.0377 -0.1114  0.0738
  142OD       C  707   0.927   1.810   3.617 -0.0404 -0.1947  0.0731
  142OD       C  708   1.033   1.627   3.347  0.2809 -0.0700 -0.0385
  142OD       C  709   1.085   1.528   2.979 -0.3966 -0.1139 -0.2105
  142OD       C  710   0.867   1.558   2.574  0.0022 -0.1110 -0.2827
  143OD       C  711   3.980   0.008   0.296  0.1866 -0.2362 -0.0365
  143OD       C  712   3.756  -0.367   0.442 -0.3108 -0.1729  0.0344
  143OD       C  713   3.714  -0.760   0.516 -0.0404  0.2473 -0.1575
  143OD       C  714   3.909  -1.168   0.456  0.2974 -0.0777  0.1170
  143OD       C  715   4.284  -1.349   0.199 -0.1636 -0.2585  0.4661
  144OD       C  716   6.592   3.327   2.266 -0.2590  0.2009  0.0097
  144OD       C  717   6.874   3.351   1.938  0.0698  0.0236 -0.0568
  144OD       C  718   7.397   3.457   2.014  0.1618 -0.0280 -0.1964
  144OD       C  719   7.571   3.476   2.433  0.0177  0.0285 -0.1705
  144OD       C  720   7.695   3.363   2.834 -0.1546  0.3447 -0.0376
  145OD       C  721   8.867   6.742   0.842 -0.1697 -0.0957 -0.0328
  145OD       C  722   8.550   6.539   0.492  0.0684 -0.0829 -0.1309
  145OD       C  723   8.102   6.383   0.562  0.0301  0.1342  0.1567
  145OD       C  724   7.771   6.447   0.687  0.3489 -0.0348 -0.2890
  145OD       C  725   7.542   6.800   0.655  0.2463 -0.2056 -0.2551
  146OD       C  726   0.230   5.602   1.938  0.1640 -0.2705  0.2376
  146OD       C  727   0.159   5.982   1.759  0.2510 -0.0914 -0.3217
  146OD       C  728   0.268   6.453   1.738  0.2751  0.0651  0.3280
  146OD       C  729   0.211   6.848   1.516  0.0622  0.0448  0.2208
  146OD       C  730   0.161   7.265   1.426 -0.1012  0.0030  0.2034
  147OD       C  731   6.276   3.966   6.670  0.3484  0.1555  0.0531
  147OD       C  732   6.577   3.631   6.557  0.0237  0.3048 -0.4092
  147OD       C  733   6.668   3.302   6.802  0.1662 -0.1208  0.0430
  147OD       C  734   6.535   3.270   7.191  0.2227  0.1430 -0.1502
  147OD       C  735   6.069   3.062   7.267  0.3332 -0.1045  0.0162
  148OD       C  736   3.506   4.884   1.778  0.2516  0.3542 -0.1115
  148OD       C  737   3.105   5.004   1.892 -0.3335 -0.2836  0.1078
  148OD       C  738   2.683   5.105   2.028  0.2103 -0.0472 -0.1614
  148OD       C  739   2.188   5.161   2.025 -0.1144  0.0562 -0.4603
  148OD       C  740   1.785   5.113   2.286 -0.1844 -0.0092 -0.3037
  149OD       C  741   9.429   4.044   2.747 -0.0248  0.2716 -0.1773
  149OD       C  742   9.178   4.116   2.967  0.0798 -0.0544 -0.3328
  149OD       C  743   8.720   4.199   3.106  0.2209 -0.1566 -0.1752
  149OD       C  744   8.423   4.003   3.353 -0.2192  0.0063 -0.1263
  149OD       C  745   8.209   4.049   3.764 -0.1025 -0.0608  0.0160
  150OD       C  746   3.835   6.243   3.753 -0.3342  0.0611  0.1663
  150OD       C  747   3.934   6.412   3.271  0.1333  0.0859 -0.1769
  150OD       C  748   3.967   6.286   2.914  0.0097 -0.0962 -0.1848
  150OD       C  749   4.334   6.088   2.605  0.4005 -0.2479 -0.3061
  150OD       C  750   4.785   6.066   2.461 -0.2213 -0.0600 -0.0279
  151OD       C  751   7.474   3.803   6.836  0.0351 -0.3764 -0.2202
  151OD       C  752   7.497   4.286   6.716  0.1871 -0.2650 -0.1095
  151OD       C  753   7.521   4.702   6.712  0.1049  0.0569 -0.0158
  151OD       C  754   7.322   4.942   6.425  0.1083  0.1734 -0.0702
  151OD       C  755   7.003   5.164   6.245  0.3792 -0.2777  0.3428
  152OD       C  756   6.110   3.401   6.902 -0.2162 -0.1922  0.2258
  152OD       C  757   5.867   3.788   6.979  0.1209 -0.2105  0.0768
  152OD       C  758   5.529   4.086   6.898 -0.1317  0.1151  0.1872
  152OD       C  759   5.263   4.424   7.192 -0.1585  0.0125 -0.1786
  152OD       C  760   5.433   4.743   7.489  0.0659  0.1168  0.1361
  153OD       C  761   6.299   3.211   1.260 -0.1383 -0.0398 -0.0425
  153OD       C  762   5.947   3.297   1.066 -0.1511 -0.0339 -0.0928
  153OD       C  763   5.653   3.570   1.137  0.1723 -0.5123  0.0764
  153OD       C  764   5.482   3.703   1.525 -0.0456 -0.2119 -0.1537
  153OD       C  765   5.314   4.097   1.761 -0.1901 -0.0922 -0.1863
  154OD       C  766   2.378   5.009   2.421 -0.2258 -0.1695 -0.0320
  154OD       C  767   2.213   4.950   2.842  0.0645  0.3271 -0.5911
  154OD       C  768   2.032   4.725   3.245  0.5069  0.1475  0.0607
  154OD       C  769   1.627   4.564   3.329  0.4643  0.0266 -0.4990
  154OD       C  770   1.263   4.789   3.488  0.0055  0.0498 -0.0378
  155OD       C  771   4.828   2.088   4.145  0.1181  0.0025 -0.2036
  155OD       C  772   4.871   2.439   3.988 -0.1893  0.0454 -0.2740
  155OD       C  773   5.182   2.664   3.759  0.1793 -0.0928  0.1099
  155OD       C  774   5.637   2.649   3.895 -0.0641 -0.0670  0.0812
  155OD       C  775   5.760   2.325   4.127 -0.0957  0.1507 -0.0342
  156OD       C  776   3.488   1.918   4.360  0.1711 -0.0018  0.1611
  156OD       C  777   3.355   1.561   4.311  0.1150  0.0765  0.0051
  156OD       C  778   3.134   1.354   4.658  0.1146  0.0380 -0.0522
  156OD       C  779   3.059   0.996   4.867  0.0234 -0.1639  0.1858
  156OD       C  780   3.340   0.929   5.101 -0.0804  0.2412 -0.1185
  157OD       C  781   3.090   7.055   5.948 -0.0260 -0.0088 -0.1850
  157OD       C  782   2.973   6.810   6.268  0.0395 -0.2002 -0.1192
  157OD       C  783   2.933   6.665   6.651  0.0955 -0.0690  0.0914
  157OD       C  784   3.209   6.518   6.961 -0.1781  0.2461 -0.1638
  157OD       C  785   3.444   6.594   7.320  0.0983 -0.1130 -0.0460
  158OD       C  786   9.263   6.033   4.057  0.1341  0.1818  0.1401
  158OD       C  787   9.133   6.019   4.491 -0.1493  0.0886 -0.0590
  158OD       C  788   8.847   6.038   4.811 -0.1252  0.0301 -0.0291
  158OD       C  789   8.583   6.233   5.103  0.1529  0.0140 -0.1428
  158OD       C  790   8.152   6.269   5.173 -0.1985  0.2416  0.2878
  159OD       C  791   8.605   1.220   0.438  0.2622 -0.0198 -0.1453
  159OD       C  792   8.964   1.390   0.300  0.0459 -0.1641  0.0428
  159OD       C  793   9.196   1.476  -0.033 -0.4046  0.0196 -0.0608
  159OD       C  794   9.558   1.424  -0.205  0.1708  0.0336 -0.1159
  159OD       C  795   9.728   1.512  -0.562 -0.1652 -0.1133 -0.2588
  160OD       C  796   6.740   6.623   6.394  0.0032 -0.0582  0.1228
  160OD       C  797   6.436   6.584   6.725  0.1988 -0.0416 -0.0689
  160OD       C  798   6.022   6.504   6.938 -0.0645 -0.1905  0.0904
  160OD       C  799   5.913   6.571   7.369 -0.0869  0.0778 -0.0223
  160OD       C  800   5.767   6.346   7.639 -0.0137 -0.0324  0.0501
  161OD       C  801   6.913   1.004   3.396 -0.0679  0.1251 -0.0092
  161OD       C  802   6.804   1.417   3.387 -0.1045  0.1658  0.1065
  161OD       C  803   6.755   1.847   3.383  0.1191 -0.0543  0.0817
  161OD       C  804   6.758   2.212   3.161  0.0326 -0.2430  0.3253
  161OD       C  805   6.683   2.484   2.865 -0.0429 -0.0032 -0.4553
  162OD       C  806   6.875   4.695   0.381 -0.0440 -0.2079  0.0636
  162OD       C  807   6.645   4.828   0.027 -0.1603  0.3995  0.2107
  162OD       C  808   6.515   5.214  -0.079  0.1926 -0.0411  0.0733
  162OD       C  809   6.250   5.197  -0.339 -0.0733  0.1061 -0.2041
  162OD       C  810   6.092   4.914  -0.725 -0.2446 -0.2733  0.1094
  163OD       C  811   1.109   0.124   2.981  0.1685 -0.1477 -0.3891
  163OD       C  812   1.479   0.326   2.782 -0.2069  0.2791  0.0462
  163OD       C  813   1.917   0.314   2.829  0.1858  0.0534 -0.4860
  163OD       C  814   2.138   0.304   3.143  0.2237  0.4315  0.0704
  163OD       C  815   2.485   0.551   3.181 -0.2990 -0.2005 -0.1785
  164OD       C  816   7.694   5.425   2.554 -0.0470 -0.0045 -0.0756
  164OD       C  817   7.858   5.328   2.197  0.2089 -0.1421 -0.2045
  164OD       C  818   8.210   5.288   2.177  0.0499  0.0481 -0.2423
  164OD       C  819   8.556   5.097   1.963  0.0593 -0.2415  0.1531
  164OD       C  820   8.757   4.751   1.824 -0.0557 -0.0147 -0.1188
  165OD       C  821   9.153   4.405   3.931  0.2145 -0.1567  0.0605
  165OD       C  822   8.896   4.705   3.740  0.0943  0.0925  0.0701
  165OD       C  823   8.706   4.850   3.352  0.1435 -0.4314  0.2821
  165OD       C  824   8.594   5.161   3.107  0.0041  0.1195  0.2664
  165OD       C  825   8.772   5.500   3.380  0.2803  0.0454 -0.0554
  166OD       C  826   5.561   3.654   5.622 -0.1227 -0.1620  0.0666
  166OD       C  827   5.936   3.914   5.525  0.0246 -0.0030 -0.1660
  166OD       C  828   6.239   4.182   5.376 -0.1809  0.1225  0.2575
  166OD       C  829   6.801   4.281   5.233  0.1367  0.2759 -0.0887
  166OD       C  830   6.930   4.515   4.881 -0.2190 -0.2424 -0.0196
  167OD       C  831   5.921   0.549   3.885  0.1678 -0.2731  0.0225
  167OD       C  832   6.085   0.915   4.236 -0.0492 -0.0207  0.0545
  167OD       C  833   6.319   0.789   4.641  0.1355 -0.0750 -0.0710
  167OD       C  834   6.244   0.417   4.895  0.3706  0.2276  0.2381
  167OD       C  835   6.369   0.093   5.212 -0.0103 -0.0822  0.1309
  168OD       C  836   6.086   3.579   3.304  0.0514  0.2817  0.1265
  168OD       C  837   5.744   3.908   3.488 -0.1301  0.0561 -0.0735
  168OD       C  838   5.478   4.163   3.799  0.0268 -0.0540 -0.0230
  168OD       C  839   5.444   4.513   3.808  0.1119 -0.3290  0.2052
  168OD       C  840   5.779   4.866   4.072 -0.0729  0.0177  0.1625
  169OD       C  841   8.968   0.252   5.495 -0.1538  0.1289  0.0646
  169OD       C  842   9.070   0.555   5.151 -0.0077  0.3411 -0.2550
  169OD       C  843   9.120   0.753   4.777  0.0933  0.2036 -0.0982
  169OD       C  844   9.070   1.147   4.599 -0.0515  0.1095  0.0198
  169OD       C  845   9.019   1.246   4.092 -0.1913 -0.1043  0.0645
  170OD       C  846   8.048   5.078   4.462 -0.0395  0.0154 -0.0574
  170OD       C  847   8.074   5.263   4.829 -0.2268 -0.1996  0.2234
  170OD       C  848   7.964   5.576   5.056 -0.0265 -0.3247 -0.1511
  170OD       C  849   7.823   5.925   5.096  0.0627  0.2345 -0.0254
  170OD       C  850   7.694   6.354   5.169  0.0842 -0.0967 -0.4024
  171OD       C  851   4.549   2.679   5.137  0.2832 -0.1025 -0.0028
  171OD       C  852   4.128   2.797   4.929  0.0139 -0.1715 -0.0168
  171OD       C  853   3.999   3.186   4.769 -0.1609  0.0735 -0.1744
  171OD       C  854   4.368   3.480   4.511 -0.0224  0.0867 -0.2433
  171OD       C  855   4.621   3.477   4.101 -0.3053  0.1615  0.1044
  172OD       C  856   0.263   0.674   6.116 -0.0932 -0.2190  0.1869
  172OD       C  857   0.281   1.041   5.939 -0.0795 -0.1394  0.1704
  172OD       C  858   0.264   1.492   5.944  0.0494 -0.1018 -0.0281
  172OD       C  859   0.141   1.729   6.201 -0.2387 -0.0995  0.1618
  172OD       C  860   0.451   1.923   6.508 -0.0582  0.2578 -0.2202
  173OD       C  861   6.825   4.608   5.733  0.0680 -0.0022 -0.0819
  173OD       C  862   6.713   4.937   5.771 -0.0659  0.0062 -0.0712
  173OD       C  863   6.998   5.220   5.577 -0.3597  0.1435  0.0288
  173OD       C  864   6.937   5.749   5.432 -0.0258 -0.3076  0.1075
  173OD       C  865   6.574   5.990   5.339  0.1798 -0.0969  0.0462
  174OD       C  866   5.734   3.519   0.148  0.1617 -0.0092 -0.1147
  174OD       C  867   5.676   3.281  -0.155 -0.1638  0.0302 -0.0064
  174OD       C  868   5.633   2.810  -0.016 -0.0098  0.0090 -0.1758
  174OD       C  869   5.299   2.534   0.203  0.2076 -0.3515  0.0645
  174OD       C  870   4.968   2.442   0.487  0.2054  0.0131  0.2860
  175OD       C  871   7.079   0.689   5.671  0.1646 -0.0545  0.1501
  175OD       C  872   7.251   0.535   6.090 -0.0557  0.0955 -0.1072
  175OD       C  873   7.372   0.156   6.207  0.1000  0.0584 -0.1474
  175OD       C  874   7.682   0.046   6.299 -0.1075 -0.2451 -0.1090
  175OD       C  875   8.123  -0.065   6.510 -0.2757  0.0194 -0.0876
  176OD       C  876   1.789   6.830   5.549 -0.0908  0.0819  0.2025
  176OD       C  877   1.584   6.730   5.940 -0.1299  0.4971  0.0842
  176OD       C  878   1.393   6.622   6.369 -0.1402 -0.0260  0.1138
  176OD       C  879   1.391   6.257   6.654 -0.1699 -0.1463 -0.0166
  176OD       C  880   1.619   5.815   6.701  0.2131  0.0239 -0.1680
  177OD       C  881   3.108   1.812   5.388  0.2218 -0.1188  0.4140
  177OD       C  882   2.856   1.406   5.441 -0.0183  0.2208  0.0908
  177OD       C  883   2.653   1.065   5.605 -0.3144 -0.2002 -0.0352
  177OD       C  884   2.253   1.127   5.730  0.2171 -0.1578 -0.0850
  177OD       C  885   2.110   0.859   6.048 -0.0034 -0.1154  0.1097
  178OD       C  886   1.053   6.600   4.884 -0.2050  0.0242  0.3134
  178OD       C  887   0.851   6.672   5.259 -0.0888 -0.0504 -0.1702
  178OD       C  888   0.577   6.555   5.526  0.0944  0.1633 -0.0100
  178OD       C  889   0.379   6.475   5.886 -0.0508 -0.1248 -0.1416
  178OD       C  890   0.333   6.341   6.323 -0.0953 -0.1224 -0.0830
  179OD       C  891   8.788   6.607   0.023  0.0973 -0.2029 -0.2643
  179OD       C  892   9.117   6.486   0.376 -0.2732  0.1622 -0.0558
  179OD       C  893   9.430   6.220   0.419  0.0234 -0.3154 -0.0130
  179OD       C  894   9.862   5.832   0.306 -0.2381  0.2009 -0.0491
  179OD       C  895   9.895   5.771  -0.175  0.2498  0.0143 -0.0029
  180OD       C  896   3.977   5.446   6.446  0.0200 -0.3442  0.2573
  180OD       C  897   3.849   5.988   6.538 -0.0643 -0.2052  0.1392
  180OD       C  898   3.883   6.316   6.375 -0.0009  0.2261 -0.2918
  180OD       C  899   3.932   6.735   6.384 -0.1474 -0.3370 -0.2123
  180OD       C  900   3.818   7.174   6.467  0.2330  0.2407 -0.0405
  181OD       C  901   0.637   6.956   5.984 -0.0586 -0.1059 -0.1921
  181OD       C  902   0.933   7.086   5.588 -0.0401  0.0472  0.0922
  181OD       C  903   1.089   7.465   5.290 -0.0270 -0.0497 -0.1513
  181OD       C  904   1.199   7.502   4.959 -0.1549  0.1116  0.0901
  181OD       C  905   1.324   7.843   4.690 -0.0572  0.1443  0.2569
  182OD       C  906   0.397   3.275   5.141 -0.0097 -0.1284 -0.0100
  182OD       C  907   0.846   3.365   5.233  0.2655 -0.2789  0.0854
  182OD       C  908   1.117   3.494   5.579 -0.1388 -0.2529 -0.1070
  182OD       C  909   1.447   3.316   5.740  0.2229 -0.1073  0.2043
  182OD       C  910   1.602   3.004   5.669  0.1275 -0.1446 -0.0184
  183OD       C  911   8.966   6.529   6.641  0.0254  0.0042  0.0698
  183OD       C  912   9.039   6.964   6.838  0.1497  0.0152  0.0359
  183OD       C  913   9.048   7.382   7.028 -0.1587 -0.1564 -0.0639
  183OD       C  914   8.883   7.560   7.368 -0.1659 -0.0739 -0.1114
  183OD       C  915   8.557   7.725   7.316  0.0062 -0.1740  0.0625
  184OD       C  916   4.400   1.282   6.519  0.1905  0.0692 -0.1488
  184OD       C  917   4.057   0.959   6.592 -0.0131  0.0451 -0.3472
  184OD       C  918   4.095   0.470   6.798 -0.2111 -0.2834 -0.1030
  184OD       C  919   4.011  -0.008   6.954  0.0278  0.0591 -0.2762
  184OD       C  920   4.105  -0.331   7.183 -0.0376  0.0389  0.1779
  185OD       C  921   6.955   1.396   5.756 -0.1851  0.0485 -0.0651
  185OD       C  922   6.723   1.610   6.119 -0.0210  0.0253 -0.1574
  185OD       C  923   6.691   2.015   6.229  0.0026  0.0674  0.0474
  185OD       C  924   6.498   2.244   6.222 -0.1442 -0.0167 -0.0430
  185OD       C  925   6.212   2.492   6.117 -0.0265 -0.0906  0.0499
  186OD       C  926   8.065   3.166   6.910  0.0200  0.0175  0.2477
  186OD       C  927   7.837   2.875   6.935 -0.1403  0.2549  0.2709
  186OD       C  928   7.564   2.567   6.729 -0.4596 -0.0252 -0.1438
  186OD       C  929   7.603   2.134   6.549  0.0648  0.0509 -0.0631
  186OD       C  930   7.966   1.874   6.484  0.0770 -0.0762  0.0409
  187OD       C  931   8.895   6.812   4.047 -0.0551  0.0638  0.2229
  187OD       C  932   9.125   6.972   3.743  0.1284  0.1310  0.3409
  187OD       C  933   9.435   6.917   3.469 -0.0511  0.2252  0.0711
  187OD       C  934   9.689   6.768   3.220 -0.2117  0.2581  0.1199
  187OD       C  935  10.100   6.477   3.143  0.3686 -0.2277 -0.0263
  188OD       C  936   2.606   4.805   4.402  0.1870 -0.1769  0.0252
  188OD       C  937   2.162   4.833   4.507 -0.1723 -0.0005 -0.0899
  188OD       C  938   1.801   5.067   4.714 -0.2246  0.0128  0.1123
  188OD       C  939   1.503   5.358   4.625 -0.1746 -0.3164  0.2068
  188OD       C  940   1.104   5.641   4.674  0.0344 -0.1620  0.3166
  189OD       C  941   7.104   3.285   2.428 -0.5153 -0.1802 -0.1715
  189OD       C  942   7.236   3.033   2.774 -0.2072 -0.3547  0.1798
  189OD       C  943   7.556   2.865   2.966  0.1527  0.0021  0.3162
  189OD       C  944   7.987   2.727   2.767  0.0851 -0.1804  0.3308
  189OD       C  945   8.313   2.706   2.411 -0.0352 -0.1632  0.2536
  190OD       C  946   3.031   4.328   6.172 -0.0278  0.2012  0.2868
  190OD       C  947   3.205   4.555   6.557  0.1197 -0.5190  0.4292
  190OD       C  948   3.224   4.812   6.968  0.1058  0.5075 -0.0643
  190OD       C  949   3.268   5.024   7.391  0.0572 -0.0365  0.1993
  190OD       C  950   3.343   5.258   7.698  0.3040 -0.1228  0.2585
  191OD       C  951   2.547   5.566   3.792 -0.0506 -0.1512  0.7063
  191OD       C  952   2.413   5.237   3.476 -0.1286 -0.0034 -0.0825
  191OD       C  953   2.559   4.805   3.356  0.2312  0.0427 -0.1035
  191OD       C  954   2.384   4.400   3.121 -0.1381 -0.0183  0.3542
  191OD       C  955   2.262   4.163   2.718 -0.0253  0.0420 -0.2706
  192OD       C  956   7.389   5.760   2.346 -0.2922  0.3526  0.1698
  192OD       C  957   7.232   6.190   2.371  0.2037 -0.2788  0.0639
  192OD       C  958   7.159   6.441   2.549 -0.0882 -0.2620 -0.0684
  192OD       C  959   7.032   6.833   2.430 -0.2193  0.0685 -0.0709
  192OD       C  960   6.733   7.069   2.295  0.2533 -0.1045 -0.3774
  193OD       C  961   2.946   2.379   1.045 -0.1385  0.1095 -0.2524
  193OD       C  962   2.868   2.398   0.662  0.1874 -0.1350  0.1024
  193OD       C  963   2.828   2.584   0.252 -0.1016 -0.2544  0.0987
  193OD       C  964   2.612   2.555  -0.131 -0.1697 -0.1491  0.3495
  193OD       C  965   2.269   2.487  -0.394  0.2551  0.1730 -0.0025
  194OD       C  966   3.007   4.416   4.456 -0.4583  0.0408  0.1095
  194OD       C  967   2.793   3.997   4.398  0.0988 -0.2138 -0.1900
  194OD       C  968   3.137   3.694   4.524  0.0384 -0.2624 -0.1314
  194OD       C  969   3.568   3.637   4.278 -0.0840 -0.1332  0.3088
  194OD       C  970   4.002   3.551   4.131 -0.1108  0.2716 -0.3136
  195OD       C  971   9.162   6.718   5.750 -0.1818 -0.0179 -0.0287
  195OD       C  972   9.327   7.167   5.684  0.0731  0.1315  0.0553
  195OD       C  973   9.657   7.403   5.952  0.0285 -0.1119 -0.0389
  195OD       C  974   9.822   7.386   6.389  0.2155 -0.2588  0.1493
  195OD       C  975  10.210   7.215   6.445  0.0362 -0.0772 -0.1803
  196OD       C  976   5.589   6.801   1.732 -0.0561 -0.0864  0.1137
  196OD       C  977   5.615   6.518   2.136  0.0404 -0.0802  0.1967
  196OD       C  978   5.946   6.128   2.291 -0.0791 -0.0275  0.0225
  196OD       C  979   5.884   5.884   2.709 -0.3788  0.2142  0.0406
  196OD       C  980   5.499   5.916   2.953 -0.2573 -0.0771 -0.5812
  197OD       C  981   1.254   7.205   6.567 -0.1040 -0.0097  0.1235
  197OD       C  982   0.963   6.801   6.587 -0.2556  0.3110  0.2786
  197OD       C  983   0.659   6.653   6.808  0.1712  0.4331 -0.2185
  197OD       C  984   0.199   6.624   6.923 -0.0424 -0.4201 -0.0707
  197OD       C  985  -0.092   6.683   6.576  0.1705  0.0792  0.1108
  198OD       C  986   3.363   0.328   4.222 -0.3666  0.1224  0.2204
  198OD       C  987   3.112  -0.061   4.280  0.0291 -0.3271  0.1771
  198OD       C  988   2.719  -0.209   4.361  0.0510  0.2132  0.2325
  198OD       C  989   2.453  -0.196   4.718  0.0292 -0.0992  0.2346
  198OD       C  990   2.194  -0.509   4.794  0.2177  0.1556  0.2575
  199OD       C  991   1.364   6.778   1.134 -0.2425  0.0425  0.4005
  199OD       C  992   1.102   7.164   1.068  0.1409  0.1152  0.2327
  199OD       C  993   0.901   7.063   0.664  0.1242  0.0841 -0.3515
  199OD       C  994   0.540   6.773   0.583 -0.0458  0.2697  0.1777
  199OD       C  995   0.144   6.688   0.292  0.2857  0.2678  0.2739
  200OD       C  996   1.909   0.103   0.560 -0.1913 -0.3322  0.3733
  200OD       C  997   1.792   0.419   0.576  0.0469 -0.1488  0.2350
  200OD       C  998   1.657   0.745   0.344  0.0419  0.0993 -0.0019
  200OD       C  999   1.279   0.970   0.342  0.0847  0.2517 -0.0309
  200OD       C 1000   1.092   1.285   0.185  0.2665 -0.2791  0.1668
  201OD       C 1001   9.322   3.442   1.312 -0.0805  0.1933  0.2334
  201OD       C 1002   9.007   3.637   1.631  0.0281 -0.1802 -0.0327
  201OD       C 1003   8.803   3.374   1.936 -0.0592 -0.0141 -0.0748
  201OD       C 1004   9.007   3.094   2.299  0.1686  0.1107 -0.2639
  201OD       C 1005   9.142   3.064   2.682 -0.1662 -0.2998  0.0441
  202OD       C 1006   2.887   0.486   0.012 -0.0355  0.0403  0.1314
  202OD       C 1007   3.325   0.337   0.174  0.4627  0.0910  0.1643
  202OD       C 1008   3.644   0.360   0.451  0.0456  0.2238  0.2055
  202OD       C 1009   3.788   0.449   0.908  0.3319  0.4782  0.0441
  202OD       C 1010   4.076   0.444   1.225  0.1745 -0.3339 -0.1058
  203OD       C 1011   2.444   4.788   5.390  0.0988 -0.0340 -0.3674
  203OD       C 1012   2.496   4.915   5.034  0.2943 -0.2362 -0.0203
  203OD       C 1013   2.766   4.983   4.812 -0.2646 -0.1984 -0.1393
  203OD       C 1014   3.050   5.328   4.680 -0.0653  0.1663 -0.0785
  203OD       C 1015   3.320   5.713   4.757 -0.1458 -0.0225  0.2300
  204OD       C 1016   2.920   0.845   4.400 -0.1861  0.0821  0.2219
  204OD       C 1017   3.160   1.009   3.977 -0.0209 -0.0211  0.0898
  204OD       C 1018   3.183   0.996   3.585 -0.1466 -0.2939 -0.0608
  204OD       C 1019   2.881   0.948   3.235  0.0281 -0.0913 -0.1189
  204OD       C 1020   2.691   1.098   2.879  0.1970 -0.0139 -0.1154
  205OD       C 1021   1.001   1.780   5.795  0.0723 -0.0838 -0.3478
  205OD       C 1022   1.382   1.750   6.062 -0.2886 -0.1030  0.1402
  205OD       C 1023   1.501   1.429   6.331  0.0316  0.1697 -0.0774
  205OD       C 1024   1.670   0.995   6.501  0.0039  0.1496  0.2953
  205OD       C 1025   1.961   0.690   6.527 -0.0613 -0.0086 -0.3903
  206OD       C 1026   5.431   5.372   3.889 -0.0485  0.0414  0.2047
  206OD       C 1027   5.028   5.574   4.104  0.1897 -0.0034  0.1869
  206OD       C 1028   4.875   5.861   4.515 -0.1324 -0.1256  0.4858
  206OD       C 1029   4.756   6.355   4.398 -0.1131  0.2966 -0.2305
  206OD       C 1030   4.494   6.691   4.321  0.0793 -0.0835  0.1082
  207OD       C 1031   7.934   1.845   5.723 -0.1792 -0.0773 -0.2188
  207OD       C 1032   7.919   1.467   5.547  0.0413  0.0107 -0.1591
  207OD       C 1033   8.072   1.082   5.391 -0.0099  0.0867 -0.0167
  207OD       C 1034   8.337   0.722   5.295  0.0638  0.0546  0.4760
  207OD       C 1035   8.531   0.425   5.211  0.3627  0.0662 -0.0327
  208OD       C 1036   5.129   3.009   7.167 -0.0453 -0.0975  0.1656
  208OD       C 1037   5.140   3.162   6.788  0.2404 -0.2475 -0.3852
  208OD       C 1038   4.890   3.154   6.427  0.0513  0.1440  0.2300
  208OD       C 1039   4.901   3.042   6.086  0.1841 -0.1580 -0.0901
  208OD       C 1040   5.237   2.792   5.842  0.3735  0.0502 -0.0324
  209OD       C 1041   5.056   6.021   3.319  0.0511 -0.4018 -0.0457
  209OD       C 1042   4.817   6.399   3.396  0.4854  0.0481 -0.4721
  209OD       C 1043   4.404   6.402   3.548 -0.0723 -0.2086 -0.0059
  209OD       C 1044   4.304   6.377   3.969  0.2387  0.5662 -0.1939
  209OD       C 1045   4.189   6.160   4.372 -0.3355  0.0016  0.0872
  210OD       C 1046   3.050   4.672   3.356 -0.0685  0.2702  0.1479
  210OD       C 1047   2.787   4.301   3.474  0.2993 -0.3319  0.0172
  210OD       C 1048   2.524   3.998   3.469 -0.0609  0.2596  0.1343
  210OD       C 1049   2.155   3.828   3.619  0.1375  0.1723 -0.2150
  210OD       C 1050   1.717   4.070   3.447 -0.2988  0.2547  0.1398
  211OD       C 1051   2.292   6.572   0.625 -0.0254  0.3790  0.2229
  211OD       C 1052   2.424   6.996   0.543  0.1891  0.0553 -0.0043
  211OD       C 1053   2.496   7.366   0.391  0.1413 -0.2829  0.0567
  211OD       C 1054   2.744   7.697   0.502  0.1524 -0.0700 -0.0944
  211OD       C 1055   3.003   8.076   0.330 -0.2346  0.1151  0.1216
  212OD       C 1056   0.004   5.250   1.705  0.1773  0.0686 -0.2166
  212OD       C 1057   0.369   5.146   1.971 -0.1408  0.1345 -0.0895
  212OD       C 1058   0.470   5.216   2.444  0.0439 -0.1582 -0.0829
  212OD       C 1059   0.836   5.211   2.735  0.1349  0.0371 -0.1806
  212OD       C 1060   1.017   4.848   3.015  0.3010 -0.0450 -0.0942
  213OD       C 1061   3.372   1.682   1.025  0.1032  0.3911  0.1621
  213OD       C 1062   3.256   2.025   0.881 -0.0362  0.1907  0.1162
  213OD       C 1063   3.534   2.431   0.815  0.2707 -0.1086  0.0615
  213OD       C 1064   3.842   2.829   0.525 -0.0610  0.0750  0.2676
  213OD       C 1065   4.034   3.221   0.498  0.4551 -0.2829 -0.2164
  214OD       C 1066   6.815   4.979   0.856  0.0142 -0.0159  0.3175
  214OD       C 1067   6.420   4.821   0.565 -0.0353 -0.0077 -0.2353
  214OD       C 1068   6.372   4.456   0.200 -0.0265 -0.1783 -0.1530
  214OD       C 1069   6.600   4.234  -0.100  0.2418 -0.1651  0.0429
  214OD       C 1070   6.549   3.795  -0.145 -0.3134  0.2999 -0.1099
  215OD       C 1071   1.202   1.045   5.578 -0.0974  0.1802 -0.1015
  215OD       C 1072   0.927   1.306   5.237  0.3230 -0.0104 -0.1274
  215OD       C 1073   0.786   1.665   5.356 -0.2681  0.1722  0.2922
  215OD       C 1074   0.559   2.028   5.585  0.3489  0.0595  0.0284
  215OD       C 1075   0.497   1.981   5.946 -0.4539 -0.0703 -0.2234
  216OD       C 1076   5.032   1.414   2.462  0.1022  0.5021  0.0473
  216OD       C 1077   5.435   1.496   2.330  0.0466 -0.0551  0.2411
  216OD       C 1078   5.864   1.514   2.297  0.2524  0.4767  0.1193
  216OD       C 1079   6.233   1.692   2.328 -0.1098 -0.0329 -0.0361
  216OD       C 1080   6.578   1.685   2.138  0.1083 -0.0048  0.0143
  217OD       C 1081   9.065   6.219   2.275 -0.0433 -0.3627 -0.1108
  217OD       C 1082   8.736   5.980   2.260  0.0067  0.0286 -0.1130
  217OD       C 1083   8.543   5.667   2.232  0.2640 -0.0971  0.1434
  217OD       C 1084   8.629   5.274   2.376 -0.3790 -0.2791 -0.0469
  217OD       C 1085   8.590   4.880   2.504 -0.3628  0.3984 -0.1230
  218OD       C 1086   3.816   0.010   4.574 -0.1808 -0.0905  0.2187
  218OD       C 1087   3.516  -0.330   4.601  0.1004 -0.1397  0.0731
  218OD       C 1088   3.504  -0.709   4.532  0.0473 -0.1898  0.1574
  218OD       C 1089   3.446  -1.009   4.092 -0.3043  0.1975 -0.0540
  218OD       C 1090   3.320  -1.073   3.735  0.1472  0.0262 -0.0715
  219OD       C 1091   0.677   2.675   4.393  0.2416  0.0807 -0.2251
  219OD       C 1092   0.661   2.257   4.285  0.2008 -0.0869 -0.3599
  219OD       C 1093   0.570   1.788   4.446 -0.0448 -0.0011  0.1616
  219OD       C 1094   0.322   1.471   4.373 -0.0913 -0.0940  0.1023
  219OD       C 1095  -0.042   1.263   4.302 -0.2852 -0.1226  0.2678
  220OD       C 1096   9.468   6.450   2.490 -0.0349  0.3159 -0.2285
  220OD       C 1097   9.768   6.644   2.741 -0.2940 -0.2553 -0.0233
  220OD       C 1098   9.933   6.991   2.895  0.1859 -0.1842  0.1152
  220OD       C 1099  10.170   7.292   2.958 -0.1884 -0.1165 -0.1538
  220OD       C 1100   9.978   7.702   2.857 -0.2035 -0.1980  0.2441
  221OD       C 1101   2.054   3.864   1.301 -0.0330 -0.1794  0.2592
  221OD       C 1102   2.080   3.756   0.906 -0.4170 -0.0129 -0.0042
  221OD       C 1103   2.269   3.536   0.572  0.0527 -0.1716  0.0643
  221OD       C 1104   2.340   3.371   0.214 -0.3819  0.3326 -0.1800
  221OD       C 1105   2.417   3.476  -0.209 -0.1279  0.4886  0.3042
  222OD       C 1106   8.937   5.416   5.946 -0.2988 -0.4574 -0.0381
  222OD       C 1107   8.952   5.027   5.812 -0.2895  0.1337  0.0850
  222OD       C 1108   8.688   4.965   5.517 -0.0089  0.1739 -0.0037
  222OD       C 1109   8.624   4.627   5.105  0.0474 -0.1852  0.1009
  222OD       C 1110   8.467   4.307   4.835  0.0955  0.0072  0.0596
  223OD       C 1111   1.611   5.334   0.437  0.1062 -0.0449 -0.2650
  223OD       C 1112   1.141   5.119   0.334  0.0554  0.0925 -0.1031
  223OD       C 1113   0.789   4.965   0.162  0.0201  0.0950 -0.0281
  223OD       C 1114   0.368   4.776  -0.082 -0.2948  0.0935  0.4095
  223OD       C 1115  -0.039   4.804   0.041  0.1943  0.1755 -0.0016
  224OD       C 1116   1.765   3.374   0.653 -0.2124 -0.0074 -0.2334
  224OD       C 1117   1.602   3.458   0.231  0.2084 -0.0555 -0.1362
  224OD       C 1118   1.461   3.605  -0.219 -0.2509 -0.2792  0.2306
  224OD       C 1119   1.556   3.655  -0.670 -0.1248  0.1387  0.1749
  224OD       C 1120   1.436   3.725  -1.080 -0.1909  0.1040 -0.0450
  225OD       C 1121   6.195   6.122   0.240  0.0277 -0.0829 -0.0481
  225OD       C 1122   6.270   5.720   0.568  0.0622 -0.1004 -0.0586
  225OD       C 1123   6.159   5.650   0.992 -0.1617  0.1928  0.0870
  225OD       C 1124   6.292   5.622   1.430 -0.1667 -0.1550 -0.4023
  225OD       C 1125   6.167   5.876   1.834  0.1092 -0.0292  0.2418
  226OD       C 1126   4.521   6.427   2.198 -0.0721  0.1641 -0.1150
  226OD       C 1127   4.267   6.539   2.527 -0.1321  0.0475 -0.5365
  226OD       C 1128   4.269   6.999   2.726 -0.1804  0.0341 -0.1030
  226OD       C 1129   4.409   7.440   2.634 -0.1263  0.0175 -0.0794
  226OD       C 1130   4.557   7.842   2.904  0.3548 -0.2111  0.2407
  227OD       C 1131   6.005   5.775   4.924  0.1633 -0.0678 -0.2897
  227OD       C 1132   5.796   5.372   4.724 -0.0961 -0.1461 -0.0418
  227OD       C 1133   5.561   5.115   4.443  0.1738 -0.0281 -0.1525
  227OD       C 1134   5.608   4.621   4.454  0.0159  0.0217  0.0281
  227OD       C 1135   5.526   4.308   4.311  0.1307  0.0270 -0.1873
  228OD       C 1136   0.407   2.079   5.058  0.0515  0.0637 -0.3154
  228OD       C 1137   0.421   1.756   4.884  0.1156 -0.1141 -0.3829
  228OD       C 1138   0.511   1.303   4.964 -0.2356  0.0138  0.0972
  228OD       C 1139   0.541   0.913   5.144 -0.4845  0.1692 -0.1112
  228OD       C 1140   1.076   0.767   5.189 -0.0324 -0.1259 -0.1593
  229OD       C 1141   4.881   2.860   3.385 -0.0867 -0.1798 -0.0881
  229OD       C 1142   4.570   2.810   3.772  0.2006  0.0545 -0.1794
  229OD       C 1143   4.377   2.568   4.136 -0.0634 -0.0918  0.1746
  229OD       C 1144   4.007   2.376   4.460 -0.1436 -0.1484 -0.2947
  229OD       C 1145   3.648   2.387   4.321  0.2141 -0.2172 -0.0965
  230OD       C 1146   2.455   3.171   6.032 -0.0710 -0.1114 -0.0583
  230OD       C 1147   2.840   3.342   5.989 -0.1960 -0.1183 -0.0323
  230OD       C 1148   2.943   3.496   5.666 -0.3729 -0.0465 -0.2622
  230OD       C 1149   2.820   3.625   5.367 -0.2547  0.0374 -0.0075
  230OD       C 1150   2.815   3.998   4.933 -0.1205 -0.1077  0.1144
  231OD       C 1151   6.773   6.505   0.416  0.2461  0.3015 -0.2747
  231OD       C 1152   6.575   6.924   0.366  0.0087 -0.3688  0.0949
  231OD       C 1153   6.515   7.423   0.469  0.1063  0.0445  0.2204
  231OD       C 1154   6.805   7.637   0.467 -0.0741 -0.0019 -0.0217
  231OD       C 1155   6.823   8.030   0.349 -0.1916  0.1061  0.0845
  232OD       C 1156   3.907   6.847   3.067  0.2419  0.1902  0.5336
  232OD       C 1157   3.992   7.331   2.966 -0.2719 -0.0274 -0.2640
  232OD       C 1158   3.940   7.755   2.990 -0.0299 -0.3653 -0.2369
  232OD       C 1159   4.089   8.100   3.193  0.1828  0.1171  0.0575
  232OD       C 1160   4.478   8.168   3.384  0.1450  0.2189  0.0077
  233OD       C 1161   8.316   5.684   5.430 -0.2390 -0.1000 -0.0852
  233OD       C 1162   8.538   5.411   5.647 -0.0449 -0.5420 -0.2330
  233OD       C 1163   8.496   5.138   5.979  0.0845  0.2438 -0.1314
  233OD       C 1164   8.684   4.956   6.332  0.0216  0.1578 -0.0675
  233OD       C 1165   8.962   5.286   6.555 -0.0611 -0.0333  0.1356
  234OD       C 1166   9.335   0.904   6.225 -0.3499 -0.0542  0.0298
  234OD       C 1167   9.336   0.531   6.591  0.0688 -0.1047 -0.1649
  234OD       C 1168   9.396   0.114   6.701 -0.0102 -0.2164 -0.0306
  234OD       C 1169   9.249  -0.066   6.399  0.0947 -0.0960  0.0771
  234OD       C 1170   8.945  -0.288   6.310 -0.3506  0.1399  0.0476
  235OD       C 1171   3.319   3.188   6.960  0.0225  0.2233 -0.2319
  235OD       C 1172   3.371   3.220   6.535  0.1563 -0.1259  0.0193
  235OD       C 1173   3.475   3.382   6.123 -0.1782  0.1269  0.2553
  235OD       C 1174   3.817   3.337   5.966  0.3592 -0.1045  0.0976
  235OD       C 1175   4.161   3.493   5.698 -0.0434 -0.2238 -0.0223
  236OD       C 1176   2.794   3.066   0.162  0.1380 -0.3112 -0.3017
  236OD       C 1177   2.692   3.093   0.564  0.2597 -0.2212 -0.3757
  236OD       C 1178   2.644   2.842   0.874  0.0001 -0.0998 -0.3313
  236OD       C 1179   2.506   2.455   1.094  0.3663  0.2155  0.0424
  236OD       C 1180   2.616   2.184   1.481  0.0463  0.2246  0.2478
  237OD       C 1181   0.560   5.517   4.695 -0.2244 -0.0857  0.1046
  237OD       C 1182   0.230   5.325   4.790 -0.2109  0.1288 -0.1603
  237OD       C 1183  -0.141   5.090   4.624  0.0510  0.1304  0.0277
  237OD       C 1184  -0.558   5.034   4.684  0.3013 -0.0163  0.1595
  237OD       C 1185  -0.926   5.059   4.762  0.0886 -0.0585  0.1792
  238OD       C 1186   3.784   1.041   5.235  0.2988 -0.1028  0.1475
  238OD       C 1187   4.145   0.803   5.095 -0.0829 -0.0522  0.1972
  238OD       C 1188   4.270   0.494   5.278  0.1628  0.2497  0.0302
  238OD       C 1189   4.276   0.048   5.153  0.2143  0.0879 -0.1440
  238OD       C 1190   4.285  -0.364   5.328 -0.0543 -0.5018 -0.1731
  239OD       C 1191   4.132   4.564   0.542 -0.1253  0.2005  0.4547
  239OD       C 1192   4.240   4.158   0.745  0.2378  0.1618 -0.0012
  239OD       C 1193   4.374   3.762   0.974  0.0515 -0.1747  0.2681
  239OD       C 1194   4.419   3.373   0.765 -0.2056 -0.1993 -0.0809
  239OD       C 1195   4.695   3.153   0.560 -0.2252  0.4468 -0.0622
  240OD       C 1196   3.748   5.962   4.432  0.2086 -0.0132 -0.0618
  240OD       C 1197   3.899   5.557   4.322  0.0928 -0.4057 -0.0891
  240OD       C 1198   3.874   5.108   4.383 -0.1484 -0.0469  0.0570
  240OD       C 1199   3.779   4.793   4.508 -0.0061 -0.0348 -0.0461
  240OD       C 1200   3.832   4.522   4.933 -0.1750  0.1944  0.3540
  241OD       C 1201   6.613   3.152   0.629  0.3193  0.2835  0.0214
  241OD       C 1202   6.378   3.463   0.835  0.4461 -0.2677 -0.2045
  241OD       C 1203   6.059   3.603   0.642 -0.1033  0.1231 -0.0448
  241OD       C 1204   5.820   3.916   0.405  0.0125  0.2526  0.2189
  241OD       C 1205   5.483   3.960   0.144  0.2550 -0.6130  0.1160
  242OD       C 1206   5.375   1.836   5.098  0.0019 -0.0077  0.1653
  242OD       C 1207   5.267   1.402   5.116 -0.1569  0.1201  0.3338
  242OD       C 1208   5.165   1.031   5.401 -0.0533  0.1065 -0.1116
  242OD       C 1209   5.065   0.671   5.676 -0.2137 -0.1087  0.1865
  242OD       C 1210   4.887   0.295   5.717  0.1060 -0.5744 -0.1472
  243OD       C 1211   3.396   2.680   1.278 -0.1611 -0.1370 -0.0908
  243OD       C 1212   3.167   2.786   0.819  0.1745 -0.1576 -0.4864
  243OD       C 1213   3.219   2.827   0.436  0.1180 -0.0780  0.0153
  243OD       C 1214   3.522   2.808   0.151 -0.1357  0.1336  0.3630
  243OD       C 1215   3.691   2.824  -0.267  0.1226 -0.0177 -0.4115
  244OD       C 1216   9.351   4.317   2.238 -0.2575 -0.0536  0.0134
  244OD       C 1217   9.493   4.512   2.703  0.3536 -0.4184  0.2981
  244OD       C 1218   9.652   4.809   2.958 -0.0260  0.0137 -0.1952
  244OD       C 1219  10.028   4.968   3.052  0.0937 -0.2385 -0.1133
  244OD       C 1220  10.258   4.887   3.408 -0.0613 -0.3329 -0.0000
  245OD       C 1221   3.891   2.477   1.200 -0.0159 -0.1371 -0.2618
  245OD       C 1222   4.203   2.535   0.917  0.0051  0.0513 -0.2049
  245OD       C 1223   4.358   2.755   0.547 -0.0203  0.1874 -0.4159
  245OD       C 1224   4.656   2.642   0.134 -0.0493  0.0172  0.1631
  245OD       C 1225   4.922   2.617  -0.224 -0.1314 -0.1098 -0.0073
  246OD       C 1226   9.219   2.675   6.080  0.0144 -0.3140 -0.1617
  246OD       C 1227   9.497   2.625   5.794  0.0494 -0.0412  0.1289
  246OD       C 1228   9.986   2.586   5.839  0.0613  0.6012 -0.0728
  246OD       C 1229  10.331   2.469   5.550  0.0086 -0.0108  0.0261
  246OD       C 1230  10.775   2.532   5.479  0.1851 -0.0812  0.2295
  247OD       C 1231   5.536   0.299   5.619  0.3020 -0.1499  0.1353
  247OD       C 1232   5.709   0.397   5.952  0.1743 -0.0508  0.1532
  247OD       C 1233   5.932   0.242   6.237  0.0667  0.1522 -0.1010
  247OD       C 1234   6.378   0.275   6.555 -0.0237 -0.1556  0.2674
  247OD       C 1235   6.692   0.373   6.753  0.2088 -0.1258 -0.2653
  248OD       C 1236   1.845   5.976   2.617  0.0598  0.2596 -0.2308
  248OD       C 1237   1.422   6.054   2.878  0.0585 -0.2437  0.1207
  248OD       C 1238   1.033   6.144   3.215 -0.0253  0.3072 -0.2083
  248OD       C 1239   0.883   6.245   3.597  0.0374  0.3034  0.0150
  248OD       C 1240   0.676   6.122   3.958 -0.0957 -0.1322  0.1434
  249OD       C 1241   4.753   4.445   2.498 -0.3350 -0.2633 -0.3019
  249OD       C 1242   4.755   4.556   2.073  0.1137 -0.0848  0.0791
  249OD       C 1243   5.084   4.580   1.745 -0.0055  0.0582 -0.1099
  249OD       C 1244   5.460   4.513   1.479  0.0891  0.4208 -0.3175
  249OD       C 1245   5.741   4.207   1.416  0.1029  0.1254 -0.1442
  250OD       C 1246   5.227   0.171   6.081  0.0738  0.0886 -0.2662
  250OD       C 1247   5.444  -0.108   5.949  0.1606 -0.2254 -0.1278
  250OD       C 1248   5.638  -0.546   5.815 -0.1768  0.0504 -0.2617
  250OD       C 1249   5.500  -0.956   5.630  0.2563  0.1056  0.0172
  250OD       C 1250   5.079  -1.129   5.701 -0.1706  0.2370  0.1553
  251OD       C 1251   4.297   7.046   6.547 -0.0858 -0.3529  0.1446
  251OD       C 1252   4.691   6.908   6.570  0.1068 -0.1231  0.0110
  251OD       C 1253   4.863   6.524   6.406  0.0154  0.1191 -0.1553
  251OD       C 1254   5.187   6.439   6.622  0.1033  0.0609 -0.3601
  251OD       C 1255   5.274   6.322   7.032 -0.3599  0.3332 -0.0258
  252OD       C 1256   1.626   3.625   1.032  0.1873 -0.0331  0.3258
  252OD       C 1257   1.659   3.140   1.140 -0.1748 -0.1865  0.0873
  252OD       C 1258   1.546   2.692   1.030  0.1026  0.0288  0.0736
  252OD       C 1259   1.574   2.621   0.554  0.0575  0.1837  0.0167
  252OD       C 1260   1.505   2.651   0.117  0.1759  0.1440 -0.0384
  253OD       C 1261   4.412   0.422   5.829 -0.0026 -0.1995 -0.0100
  253OD       C 1262   4.455   0.056   5.704  0.1079 -0.1537  0.0990
  253OD       C 1263   4.795  -0.175   5.526 -0.1863  0.0786 -0.2786
  253OD       C 1264   5.200  -0.358   5.517 -0.1101 -0.2183  0.3355
  253OD       C 1265   5.544  -0.621   5.273 -0.0545 -0.0915 -0.0723
  254OD       C 1266   0.436   2.053   0.165  0.0840 -0.2253  0.4463
  254OD       C 1267   0.420   2.004  -0.236  0.0486  0.3981 -0.2055
  254OD       C 1268  -0.081   1.866  -0.415  0.0002  0.0830 -0.0555
  254OD       C 1269  -0.542   1.904  -0.452  0.0240  0.2947  0.0583
  254OD       C 1270  -0.645   2.287  -0.430 -0.3092  0.0727 -0.1194
  255OD       C 1271   8.631   2.178   2.239  0.0382 -0.0485 -0.1140
  255OD       C 1272   8.818   2.558   2.370  0.0096  0.2308 -0.0604
  255OD       C 1273   9.275   2.595   2.397  0.1038 -0.3353  0.1767
  255OD       C 1274   9.569   2.839   2.795 -0.0256  0.0770 -0.1908
  255OD       C 1275   9.582   3.341   2.752  0.0864  0.5594  0.0075
  256OD       C 1276   6.976   4.081   5.705 -0.1945 -0.0180 -0.0534
  256OD       C 1277   7.145   3.877   5.521 -0.0154 -0.1111  0.1372
  256OD       C 1278   7.506   3.801   5.389  0.1075  0.3722  0.0889
  256OD       C 1279   7.853   3.577   5.279 -0.1729  0.2789 -0.0656
  256OD       C 1280   8.305   3.816   5.258  0.1243 -0.0907 -0.2010
  257OD       C 1281   8.366   5.867   2.712  0.0820  0.1033  0.1997
  257OD       C 1282   8.523   6.029   3.098 -0.2964  0.0935  0.1177
  257OD       C 1283   8.885   6.245   3.095  0.1244 -0.0806  0.5375
  257OD       C 1284   9.049   6.476   2.703  0.2766  0.2524 -0.0671
  257OD       C 1285   8.957   6.809   2.407 -0.0678 -0.0526 -0.1130
  258OD       C 1286   7.495   6.116   3.371  0.0527  0.0639  0.1677
  258OD       C 1287   7.844   6.404   3.315 -0.0068 -0.2451 -0.1524
  258OD       C 1288   8.221   6.640   3.307 -0.0635 -0.0381 -0.1446
  258OD       C 1289   8.575   6.742   3.054 -0.0901  0.1401  0.3297
  258OD       C 1290   8.856   7.053   2.853  0.0149  0.2342  0.0704
  259OD       C 1291   9.217   5.208   1.152 -0.3973 -0.1639  0.1610
  259OD       C 1292   9.074   4.865   0.873  0.1693 -0.0295  0.3571
  259OD       C 1293   9.193   4.727   0.475  0.0177 -0.0938  0.0429
  259OD       C 1294   9.071   4.264   0.305 -0.0588 -0.0336 -0.3387
  259OD       C 1295   8.956   3.999   0.014 -0.1245  0.2301  0.2210
  260OD       C 1296   9.456   1.187   0.931  0.2297  0.1366  0.0658
  260OD       C 1297   9.278   1.075   0.540 -0.1986 -0.2340  0.3733
  260OD       C 1298   9.463   1.045   0.153  0.1623  0.1984 -0.1211
  260OD       C 1299   9.740   0.902  -0.243  0.0229  0.1991  0.1092
  260OD       C 1300   9.674   1.028  -0.659 -0.0888  0.1978 -0.2813
  261OD       C 1301   6.156   6.150   0.738  0.0569  0.1495 -0.2157
  261OD       C 1302   5.979   6.449   1.029 -0.1099  0.0101 -0.0472
  261OD       C 1303   6.102   6.498   1.550  0.2066 -0.2210  0.2687
  261OD       C 1304   5.847   6.252   1.774 -0.3139 -0.2907 -0.0420
  261OD       C 1305   5.604   5.943   1.870  0.1744  0.0648  0.1278
  262OD       C 1306   6.706   6.540   4.730 -0.2045 -0.1125  0.0577
  262OD       C 1307   6.267   6.650   4.758 -0.1044 -0.0833  0.1997
  262OD       C 1308   5.901   6.846   5.004  0.1311 -0.0271  0.1392
  262OD       C 1309   5.608   6.968   4.742  0.0600  0.0273  0.1883
  262OD       C 1310   5.432   7.227   4.604 -0.1425  0.1779  0.4213
  263OD       C 1311   8.584   4.397   4.105 -0.3104 -0.1203 -0.0270
  263OD       C 1312   8.732   3.989   4.153 -0.1028 -0.1891 -0.4270
  263OD       C 1313   8.819   3.682   4.290  0.2560 -0.0501  0.2222
  263OD       C 1314   9.232   3.600   4.565 -0.0236 -0.0088  0.0553
  263OD       C 1315   9.512   3.651   4.223 -0.0214  0.0516 -0.2981
  264OD       C 1316   3.929   6.358   4.894  0.1711 -0.0733  0.0735
  264OD       C 1317   3.642   6.004   5.023  0.1406  0.1461  0.2137
  264OD       C 1318   3.223   5.971   5.245 -0.0409  0.1944  0.1696
  264OD       C 1319   3.065   6.012   5.655  0.0288  0.1155 -0.1166
  264OD       C 1320   2.688   6.008   5.848  0.2622 -0.2277  0.0072
  265OD       C 1321   4.890   2.826   4.821  0.1906  0.0984  0.0553
  265OD       C 1322   4.964   3.229   5.035 -0.2418 -0.1815  0.2564
  265OD       C 1323   5.068   3.622   5.226  0.1372 -0.1981  0.0382
  265OD       C 1324   4.976   3.829   5.499  0.1637  0.1183 -0.2863
  265OD       C 1325   4.823   3.862   5.834 -0.0336  0.3742 -0.2309
  266OD       C 1326   1.547   3.147   6.303 -0.2526 -0.2998  0.1955
  266OD       C 1327   1.411   3.075   6.759 -0.0216 -0.0466  0.0961
  266OD       C 1328   1.464   3.097   7.138 -0.2391  0.1492 -0.1425
  266OD       C 1329   1.393   3.072   7.597 -0.0131  0.0551  0.3033
  266OD       C 1330   1.321   3.275   8.015  0.1796 -0.2298  0.0789
  267OD       C 1331   1.103   6.631   5.714 -0.5321 -0.2207 -0.2759
  267OD       C 1332   1.329   6.915   5.316  0.0229 -0.0883 -0.0501
  267OD       C 1333   1.578   7.287   5.214  0.1099 -0.4474  0.3795
  267OD       C 1334   1.906   7.469   4.894 -0.0605  0.3953 -0.0393
  267OD       C 1335   2.286   7.559   4.621  0.0417  0.1570 -0.0243
  268OD       C 1336   2.672   0.961   7.020  0.2124  0.0978 -0.2148
  268OD       C 1337   2.549   1.210   6.627 -0.2269 -0.3458  0.1425
  268OD       C 1338   2.450   1.325   6.174 -0.1349  0.0250 -0.2727
  268OD       C 1339   2.462   1.563   5.794  0.0231  0.1315  0.0097
  268OD       C 1340   2.542   1.794   5.445 -0.0458 -0.1540  0.1098
  269OD       C 1341   0.551   4.460   0.273  0.1094  0.0129 -0.1347
  269OD       C 1342   0.362   4.827   0.434  0.1386  0.0847  0.2130
  269OD       C 1343  -0.066   5.132   0.571  0.2220 -0.0493  0.2825
  269OD       C 1344  -0.461   5.278   0.548 -0.2325  0.3534  0.2916
  269OD       C 1345  -0.851   5.249   0.805  0.0849 -0.0830 -0.1165
  270OD       C 1346   7.316   4.632   3.209 -0.0361 -0.1095  0.0156
  270OD       C 1347   7.162   4.259   3.023  0.0343  0.0484 -0.0048
  270OD       C 1348   6.997   3.964   2.824  0.1483 -0.2488 -0.0760
  270OD       C 1349   6.688   3.931   2.561  0.0938 -0.2420  0.4796
  270OD       C 1350   6.806   3.930   1.996 -0.1011  0.1990  0.3159
  271OD       C 1351   1.375   5.169   6.489 -0.0303  0.1180  0.0947
  271OD       C 1352   1.117   4.978   6.094 -0.4449  0.0268  0.3364
  271OD       C 1353   0.920   4.508   6.145 -0.0668 -0.0577 -0.1551
  271OD       C 1354   0.771   4.149   6.366 -0.4781  0.1541 -0.2004
  271OD       C 1355   0.708   3.983   6.783 -0.2038 -0.0758  0.1872
  272OD       C 1356   2.901   1.766   6.692 -0.2935  0.1670  0.0674
  272OD       C 1357   2.674   1.612   6.928  0.0067 -0.1125  0.1276
  272OD       C 1358   2.355   1.396   7.092  0.1249 -0.0035  0.2153
  272OD       C 1359   2.095   1.298   7.494 -0.0367 -0.1390  0.1209
  272OD       C 1360   1.860   1.245   7.806 -0.0542  0.3131 -0.1898
  273OD       C 1361   2.052   6.833   6.058 -0.0350 -0.1110  0.1592
  273OD       C 1362   2.273   6.705   5.647  0.4009 -0.0914 -0.0373
  273OD       C 1363   2.174   6.560   5.261 -0.0068  0.1833 -0.1349
  273OD       C 1364   2.381   6.242   5.036  0.2226 -0.1195  0.2148
  273OD       C 1365   2.297   5.890   4.880  0.1867 -0.1062  0.1795
  274OD       C 1366   0.159   4.771   3.997 -0.2287 -0.0030  0.2079
  274OD       C 1367   0.042   5.179   3.809  0.1904  0.0584  0.3404
  274OD       C 1368   0.018   5.694   3.662  0.0982  0.1645 -0.0138
  274OD       C 1369  -0.038   6.092   3.325 -0.2415 -0.0362  0.0243
  274OD       C 1370  -0.075   6.389   3.043  0.0824  0.0098  0.0109
  275OD       C 1371   1.102   4.391   3.222 -0.2584 -0.0019  0.1867
  275OD       C 1372   1.216   4.171   3.490 -0.0686  0.2362 -0.0194
  275OD       C 1373   1.305   3.829   3.774 -0.3398  0.1338 -0.2279
  275OD       C 1374   1.686   3.680   3.925  0.2377 -0.0147 -0.1597
  275OD       C 1375   1.854   3.305   3.894  0.1567  0.0069 -0.2371
  276OD       C 1376   5.483   3.639   6.671 -0.0435  0.0671  0.1365
  276OD       C 1377   5.786   3.401   6.524 -0.0802  0.1589 -0.2843
  276OD       C 1378   6.152   3.433   6.361  0.0319  0.0247 -0.0236
  276OD       C 1379   6.511   3.175   6.359  0.0545 -0.2982 -0.0239
  276OD       C 1380   6.926   3.100   6.434  0.0926 -0.3642 -0.1367
  277OD       C 1381   6.227   1.003   7.099  0.0647  0.0468  0.2092
  277OD       C 1382   6.165   0.633   6.882 -0.3762 -0.0469 -0.0487
  277OD       C 1383   5.931   0.307   6.746  0.1740 -0.0279 -0.2648
  277OD       C 1384   5.545  -0.060   6.723 -0.1472  0.0378 -0.3195
  277OD       C 1385   5.550  -0.509   6.804  0.1011  0.3755  0.1200
  278OD       C 1386   1.004   0.931   6.992  0.0363 -0.1168  0.0990
  278OD       C 1387   1.138   1.064   6.533 -0.2666  0.2400  0.0088
  278OD       C 1388   1.308   0.774   6.243 -0.4555 -0.0489  0.0129
  278OD       C 1389   1.495   0.358   6.254 -0.1186  0.0041 -0.0145
  278OD       C 1390   1.729  -0.053   6.182  0.1347 -0.0743  0.1507
  279OD       C 1391   1.128   0.823   2.301 -0.1638  0.3726 -0.0342
  279OD       C 1392   1.503   0.827   2.549 -0.0804 -0.2842 -0.0534
  279OD       C 1393   1.782   0.740   3.038  0.0650  0.2719  0.0272
  279OD       C 1394   1.919   0.682   3.409  0.0235  0.2742 -0.0796
  279OD       C 1395   1.635   0.533   3.662  0.0559  0.3840 -0.0809
  280OD       C 1396   3.073   0.378   5.260  0.0061  0.0711 -0.0879
  280OD       C 1397   3.096   0.028   5.496 -0.1665 -0.1247  0.0214
  280OD       C 1398   3.392  -0.262   5.561  0.0981 -0.1050 -0.1306
  280OD       C 1399   3.606  -0.582   5.808 -0.1954 -0.0938  0.1438
  280OD       C 1400   3.658  -1.041   5.989  0.0167  0.0501  0.0317
  281OD       C 1401   5.931   3.944   2.983 -0.3128  0.3220 -0.2830
  281OD       C 1402   6.169   3.931   2.621 -0.2323  0.2744 -0.1197
  281OD       C 1403   6.058   4.092   2.312 -0.2212 -0.1660  0.2964
  281OD       C 1404   5.846   4.395   2.091  0.0849 -0.2347  0.0742
  281OD       C 1405   5.562   4.587   1.950  0.1528  0.1472 -0.0078
  282OD       C 1406   2.769   3.563   0.463  0.0287  0.0571  0.1887
  282OD       C 1407   2.546   3.983   0.635  0.0325 -0.0885 -0.1343
  282OD       C 1408   2.344   4.308   0.927  0.0725 -0.0535  0.0297
  282OD       C 1409   2.293   4.393   1.384 -0.1578  0.1509  0.1420
  282OD       C 1410   2.258   4.177   1.738 -0.2161  0.0741  0.2168
  283OD       C 1411   7.825   5.825   2.818 -0.3302 -0.1124 -0.0838
  283OD       C 1412   8.007   5.902   3.246  0.1798 -0.0284  0.0705
  283OD       C 1413   7.891   5.851   3.536  0.1459 -0.0000 -0.3131
  283OD       C 1414   7.722   6.205   3.820  0.0291  0.1519  0.3028
  283OD       C 1415   7.442   6.526   3.798  0.1214 -0.2302  0.1176
  284OD       C 1416   4.980   5.513   0.312 -0.1459  0.0799  0.1831
  284OD       C 1417   4.589   5.596   0.518  0.1751  0.0878 -0.0229
  284OD       C 1418   4.120   5.459   0.576  0.0542 -0.0471 -0.1163
  284OD       C 1419   3.727   5.616   0.510 -0.3455 -0.1242  0.0502
  284OD       C 1420   3.388   5.591   0.082  0.1047 -0.0157 -0.0421
  285OD       C 1421   1.524   1.781   1.465  0.1842  0.0740  0.0661
  285OD       C 1422   1.969   1.667   1.414 -0.0524 -0.0333 -0.1853
  285OD       C 1423   2.057   1.260   1.497 -0.0197  0.2847 -0.1188
  285OD       C 1424   1.904   1.094   1.809 -0.2980  0.1862 -0.1010
  285OD       C 1425   1.960   0.885   2.222 -0.2251 -0.1210 -0.0542
  286OD       C 1426   6.963   0.144   0.928  0.2750 -0.0000 -0.0507
  286OD       C 1427   6.793   0.091   1.267 -0.1393  0.0448  0.2069
  286OD       C 1428   7.008  -0.293   1.525  0.1199 -0.0484  0.0779
  286OD       C 1429   7.116  -0.641   1.415 -0.2431  0.0763  0.0862
  286OD       C 1430   6.949  -0.978   1.282 -0.0457 -0.0511 -0.1451
  287OD       C 1431   2.991   1.909   1.288  0.0241 -0.0686  0.0675
  287OD       C 1432   2.644   1.920   1.032 -0.3673  0.0418 -0.2416
  287OD       C 1433   2.245   2.070   0.882  0.0523 -0.0031 -0.0420
  287OD       C 1434   1.905   2.176   0.602 -0.0178 -0.0597  0.0646
  287OD       C 1435   2.008   2.498   0.212  0.0631  0.2462 -0.2532
  288OD       C 1436   0.882   6.963   3.981  0.3782  0.0995  0.2020
  288OD       C 1437   1.048   6.677   3.833 -0.1417  0.0369 -0.2135
  288OD       C 1438   1.091   6.682   3.436 -0.1931 -0.0559  0.1743
  288OD       C 1439   1.340   7.003   3.250 -0.3241 -0.0442  0.5504
  288OD       C 1440   1.603   7.402   3.285  0.1257  0.0173 -0.3340
  289OD       C 1441   3.621   1.927   2.799  0.3922 -0.0236  0.1619
  289OD       C 1442   4.031   2.152   2.821  0.2269 -0.1043 -0.0399
  289OD       C 1443   4.224   2.509   2.663  0.2091  0.0888 -0.3654
  289OD       C 1444   4.230   2.866   2.425 -0.0250 -0.1924  0.3030
  289OD       C 1445   4.361   3.255   2.317 -0.2555  0.0747 -0.2573
  290OD       C 1446   2.287   2.974   2.825 -0.0327  0.2352 -0.0940
  290OD       C 1447   1.931   2.671   2.850  0.1755  0.0892  0.0432
  290OD       C 1448   1.568   2.675   2.846  0.2165  0.0687 -0.3890
  290OD       C 1449   1.464   2.361   2.630 -0.2611  0.1528  0.0993
  290OD       C 1450   1.577   1.990   2.413  0.1960 -0.1350  0.2579
  291OD       C 1451   6.645   5.316   1.327  0.0155 -0.1266 -0.0714
  291OD       C 1452   7.112   5.200   1.317  0.0898 -0.0656  0.0722
  291OD       C 1453   7.456   5.060   0.906  0.3596  0.0878 -0.0044
  291OD       C 1454   7.238   4.793   0.634 -0.3487  0.1589 -0.0593
  291OD       C 1455   7.075   4.422   0.717  0.0759 -0.0750 -0.0559
  292OD       C 1456   3.948   5.813   0.911 -0.0790  0.1784 -0.1918
  292OD       C 1457   3.563   6.088   0.848  0.1650 -0.3378 -0.0355
  292OD       C 1458   3.258   6.568   0.731 -0.3094 -0.0744  0.4556
  292OD       C 1459   3.247   6.950   0.468 -0.3579  0.2043 -0.1430
  292OD       C 1460   2.915   7.213   0.294 -0.1832 -0.0275 -0.0968
  293OD       C 1461   4.745   5.128   7.199  0.3205  0.0568 -0.1012
  293OD       C 1462   4.627   4.793   6.938  0.1352 -0.1694  0.0213
  293OD       C 1463   4.717   4.457   7.116 -0.0192  0.1872  0.0036
  293OD       C 1464   4.423   4.055   7.195  0.1845  0.0286  0.4598
  293OD       C 1465   4.035   4.063   7.440  0.0804 -0.1683  0.0168
  294OD       C 1466   7.979   5.814   2.338 -0.2388  0.0372 -0.2803
  294OD       C 1467   7.709   6.112   2.187 -0.0232  0.0797 -0.1413
  294OD       C 1468   7.470   6.317   1.991  0.0579  0.1370  0.0394
  294OD       C 1469   7.237   6.694   1.944  0.1100  0.1306 -0.1250
  294OD       C 1470   7.195   7.115   1.989 -0.1603 -0.1418 -0.2486
  295OD       C 1471   3.975   6.985   2.260  0.1861  0.2755  0.0681
  295OD       C 1472   3.718   6.984   2.581 -0.2378  0.0860 -0.2687
  295OD       C 1473   3.533   7.362   2.712 -0.4412 -0.1190 -0.0788
  295OD       C 1474   3.331   7.844   2.647  0.1849  0.1684 -0.0135
  295OD       C 1475   3.212   8.148   2.865 -0.4466 -0.0966 -0.0260
  296OD       C 1476   9.038   5.576   2.445  0.1498  0.0638  0.0887
  296OD       C 1477   8.982   5.546   2.030  0.4656  0.1816  0.1239
  296OD       C 1478   8.932   5.971   1.783 -0.1540  0.2871 -0.0482
  296OD       C 1479   8.844   6.108   1.368 -0.1222 -0.1714 -0.2838
  296OD       C 1480   8.682   6.292   0.918 -0.0718  0.0989 -0.2646
  297OD       C 1481   6.632   6.538   1.485 -0.2148  0.2806  0.0833
  297OD       C 1482   6.453   6.182   1.534  0.2576  0.2819  0.1618
  297OD       C 1483   6.044   6.055   1.334 -0.1741 -0.2391 -0.1581
  297OD       C 1484   5.823   5.686   1.382 -0.1129  0.0729  0.1474
  297OD       C 1485   5.785   5.261   1.347 -0.0124 -0.1199 -0.0685
  298OD       C 1486   6.635   5.320   3.442  0.2400  0.0592 -0.1758
  298OD       C 1487   6.961   5.228   3.632  0.0212  0.0521  0.0642
  298OD       C 1488   7.204   5.338   3.975 -0.0513  0.1432  0.1155
  298OD       C 1489   7.214   5.599   4.407 -0.2209 -0.3251  0.2667
  298OD       C 1490   7.165   5.979   4.521 -0.0139 -0.0419  0.0002
  299OD       C 1491   5.141   1.132   0.593  0.0663  0.1583 -0.0592
  299OD       C 1492   4.873   1.037   0.395  0.0906  0.0204 -0.0561
  299OD       C 1493   4.679   0.733   0.074  0.1477 -0.0877 -0.1914
  299OD       C 1494   4.550   0.738  -0.317 -0.1328 -0.1873  0.0041
  299OD       C 1495   4.815   0.934  -0.568  0.0709 -0.1762  0.2071
  300OD       C 1496   4.593   3.056   6.930  0.1791 -0.2516  0.0529
  300OD       C 1497   4.446   3.217   6.542  0.1418 -0.3149  0.0474
  300OD       C 1498   4.055   3.492   6.386 -0.0286  0.0816 -0.0563
  300OD       C 1499   3.783   3.568   6.560 -0.0290 -0.1304  0.4818
  300OD       C 1500   3.368   3.655   6.799 -0.2189  0.2095 -0.2189
  301OD       C 1501   6.944   1.630   2.393 -0.1902  0.0922 -0.2171
  301OD       C 1502   6.573   1.409   2.573  0.1689 -0.1040 -0.1005
  301OD       C 1503   6.242   1.565   2.939  0.1627 -0.2837 -0.2312
  301OD       C 1504   6.236   1.383   3.308  0.3381 -0.0266  0.1324
  301OD       C 1505   6.183   1.045   3.713 -0.0525  0.0489 -0.2111
  302OD       C 1506   4.998   0.480   6.903 -0.0795 -0.1887  0.0814
  302OD       C 1507   5.384   0.371   6.954 -0.0566  0.0710 -0.0784
  302OD       C 1508   5.671   0.183   7.199  0.0738  0.0984 -0.2096
  302OD       C 1509   5.740  -0.192   7.194 -0.0914 -0.1510 -0.1414
  302OD       C 1510   5.419  -0.508   7.302 -0.1681 -0.2113 -0.3945
  303OD       C 1511   9.287   5.139   6.873  0.1491  0.2513 -0.1820
  303OD       C 1512   8.975   4.835   7.089  0.0660  0.0347 -0.1880
  303OD       C 1513   8.646   4.820   6.852 -0.2020 -0.2417 -0.0790
  303OD       C 1514   8.428   5.126   6.714  0.1410  0.3719 -0.1926
  303OD       C 1515   8.153   5.346   6.828  0.0060 -0.2965 -0.0425
  304OD       C 1516   5.942   1.028   0.366  0.1660  0.4029  0.1791
  304OD       C 1517   5.639   1.242   0.508 -0.3399  0.0800 -0.1628
  304OD       C 1518   5.365   1.638   0.617  0.0081  0.0409 -0.1662
  304OD       C 1519   5.103   1.990   0.495  0.0067 -0.4313 -0.1766
  304OD       C 1520   4.856   2.124   0.078 -0.1083 -0.0291 -0.1596
  305OD       C 1521   1.722   5.860   5.602 -0.1774 -0.0912 -0.0220
  305OD       C 1522   1.570   5.542   5.526  0.1593  0.0195 -0.1814
  305OD       C 1523   1.494   5.066   5.704  0.0851 -0.1236 -0.2162
  305OD       C 1524   1.621   4.966   6.068  0.1013 -0.0497  0.0777
  305OD       C 1525   1.972   4.563   6.118 -0.1032  0.0954  0.1719
  306OD       C 1526   6.336   2.596   3.209 -0.1880  0.1988  0.0720
  306OD       C 1527   6.200   2.706   2.825 -0.0746 -0.0619  0.0197
  306OD       C 1528   6.152   3.032   2.547  0.0804  0.1735 -0.2276
  306OD       C 1529   6.048   3.311   2.238  0.0271  0.2567 -0.0185
  306OD       C 1530   6.214   3.684   2.142  0.2547 -0.3417  0.1360
  307OD       C 1531   9.129   3.323   4.071 -0.0031  0.0265 -0.0776
  307OD       C 1532   9.513   3.133   4.181  0.2972  0.4513 -0.1056
  307OD       C 1533   9.912   3.175   4.272 -0.0714 -0.2932  0.2332
  307OD       C 1534  10.232   3.484   4.366 -0.0060  0.2512  0.1562
  307OD       C 1535  10.287   3.715   4.909  0.1199  0.1330 -0.1044
  308OD       C 1536   6.430   4.255   4.262  0.0007  0.1316  0.0678
  308OD       C 1537   6.239   3.894   4.520 -0.0539  0.2039  0.2941
  308OD       C 1538   6.136   3.850   4.905  0.0060  0.2673 -0.0084
  308OD       C 1539   6.128   3.607   5.201 -0.0381 -0.1335  0.0179
  308OD       C 1540   6.032   3.327   5.489 -0.0979 -0.2551  0.0821
  309OD       C 1541   0.075   0.139   2.909 -0.0928  0.2747  0.1973
  309OD       C 1542  -0.207   0.026   3.135  0.1415  0.0103  0.0760
  309OD       C 1543  -0.682   0.006   3.280 -0.1336  0.0152 -0.0885
  309OD       C 1544  -1.113  -0.058   3.349 -0.1835  0.2246  0.3247
  309OD       C 1545  -1.459  -0.025   3.636 -0.0794  0.1877 -0.1053
  310OD       C 1546   6.472   0.552   2.450  0.1083  0.0778 -0.4494
  310OD       C 1547   6.528   0.519   2.952 -0.1933  0.0056 -0.2885
  310OD       C 1548   6.503   0.125   3.224  0.0378  0.1087  0.1943
  310OD       C 1549   6.752   0.017   3.507  0.0009 -0.0450 -0.1697
  310OD       C 1550   7.162  -0.191   3.752 -0.4335  0.0020  0.3044
  311OD       C 1551   2.566   6.561   5.997 -0.1416  0.1424 -0.0254
  311OD       C 1552   2.510   6.732   6.334 -0.0429 -0.1333 -0.3149
  311OD       C 1553   2.176   6.579   6.469 -0.2551 -0.0386  0.0011
  311OD       C 1554   1.798   6.862   6.583  0.0302 -0.2449 -0.0829
  311OD       C 1555   1.818   7.363   6.635  0.1720 -0.0582  0.0107
  312OD       C 1556   3.900   6.436   7.182  0.1267 -0.3383  0.1381
  312OD       C 1557   4.182   6.513   6.829 -0.0360  0.0513 -0.0546
  312OD       C 1558   4.410   6.308   6.496 -0.0070 -0.3309  0.0809
  312OD       C 1559   4.301   6.055   6.242  0.0077  0.0701 -0.0100
  312OD       C 1560   4.398   5.581   6.209  0.0328 -0.0639 -0.1093
  313OD       C 1561   2.647   3.468   3.720  0.1462  0.4043 -0.3438
  313OD       C 1562   2.939   3.926   3.813  0.2364 -0.1040 -0.1699
  313OD       C 1563   3.250   4.064   4.192 -0.1631 -0.1739  0.0657
  313OD       C 1564   3.568   4.125   4.379  0.2019  0.1334 -0.0777
  313OD       C 1565   3.996   4.162   4.346 -0.1653  0.0072 -0.1040
  314OD       C 1566   4.177   6.098   2.053  0.3429  0.1352 -0.0562
  314OD       C 1567   3.883   5.928   2.183 -0.0965 -0.1677 -0.1717
  314OD       C 1568   3.691   5.897   2.603 -0.0753 -0.0744 -0.1987
  314OD       C 1569   3.264   6.036   2.902  0.0467  0.3633  0.1738
  314OD       C 1570   3.247   6.298   3.275 -0.0836 -0.0871  0.0887
  315OD       C 1571   1.630   5.336   6.867 -0.1454  0.3230  0.0943
  315OD       C 1572   1.962   5.486   7.155 -0.1459  0.0897 -0.0505
  315OD       C 1573   2.012   5.901   7.057  0.0335 -0.1074 -0.0226
  315OD       C 1574   2.359   6.080   6.919 -0.0795 -0.1884 -0.1632
  315OD       C 1575   2.481   6.529   6.819 -0.0925  0.0775 -0.1526
  316OD       C 1576   5.336   6.372   1.729 -0.2638  0.3074  0.0042
  316OD       C 1577   4.979   6.269   1.421 -0.0177 -0.0603 -0.0751
  316OD       C 1578   4.755   5.970   1.560 -0.0250  0.0153 -0.2396
  316OD       C 1579   4.516   5.584   1.711  0.2596  0.0937 -0.2479
  316OD       C 1580   4.677   5.124   1.610  0.0797 -0.0283 -0.1271
  317OD       C 1581   1.529   0.787   1.990 -0.3211  0.2602 -0.0955
  317OD       C 1582   1.809   0.482   1.860  0.1478 -0.0068  0.0633
  317OD       C 1583   2.056   0.101   2.012 -0.1258  0.3879 -0.2126
  317OD       C 1584   1.836  -0.061   2.444  0.0143  0.0671  0.0212
  317OD       C 1585   1.771  -0.168   2.947 -0.0473  0.0058  0.1758
  318OD       C 1586   9.106   0.413   2.023 -0.4631 -0.0656 -0.0254
  318OD       C 1587   8.866   0.632   2.453  0.2138  0.0356  0.0668
  318OD       C 1588   8.693   0.825   2.734  0.0383  0.1537 -0.1467
  318OD       C 1589   8.421   1.144   2.911 -0.2634 -0.1299 -0.2036
  318OD       C 1590   8.145   1.541   2.996 -0.1685  0.1257 -0.2318
  319OD       C 1591   4.653   2.824   5.582  0.0327 -0.3126 -0.0973
  319OD       C 1592   4.639   3.209   5.449  0.0287 -0.2126 -0.0569
  319OD       C 1593   4.515   3.697   5.383  0.2393  0.1633  0.2228
  319OD       C 1594   4.314   3.964   5.616 -0.1443  0.0100  0.0236
  319OD       C 1595   4.012   4.295   5.769 -0.2101  0.1980 -0.0381
  320OD       C 1596   6.363   0.747   1.314 -0.1094  0.1013 -0.1486
  320OD       C 1597   5.900   0.649   1.275  0.0848 -0.0518 -0.1704
  320OD       C 1598   5.587   0.384   1.279  0.2842  0.1222  0.2372
  320OD       C 1599   5.524   0.024   1.455  0.2705 -0.0303 -0.1280
  320OD       C 1600   5.234  -0.226   1.324  0.1682 -0.1756 -0.1206
  321OD       C 1601   3.846   4.491   1.937 -0.0805  0.0813 -0.1155
  321OD       C 1602   4.132   4.277   2.138  0.0368  0.0108  0.2122
  321OD       C 1603   4.355   4.067   2.242 -0.1899  0.2851  0.0594
  321OD       C 1604   4.513   3.723   1.983 -0.0071 -0.0062  0.1448
  321OD       C 1605   4.299   3.599   1.522  0.1707 -0.1178 -0.2858
  322OD       C 1606   0.517   5.709   2.491  0.0818  0.3949 -0.0400
  322OD       C 1607   0.113   5.605   2.405  0.0389 -0.2459  0.2071
  322OD       C 1608  -0.154   5.343   2.180 -0.1061 -0.1034  0.1387
  322OD       C 1609  -0.488   5.061   2.309 -0.2073  0.1845  0.0627
  322OD       C 1610  -0.516   4.649   2.306  0.0268  0.1233 -0.2009
  323OD       C 1611   9.297   1.081   6.786 -0.1254  0.0325 -0.2118
  323OD       C 1612   8.952   1.073   7.030  0.0809 -0.0949  0.2058
  323OD       C 1613   8.932   0.864   7.419 -0.2652 -0.1518  0.4510
  323OD       C 1614   8.959   0.738   7.778 -0.0700  0.1285  0.2519
  323OD       C 1615   9.163   0.732   8.114 -0.3981  0.4190  0.0828
  324OD       C 1616   5.407   2.328   1.172  0.2407 -0.0484  0.1677
  324OD       C 1617   4.962   2.423   1.002 -0.1650  0.2288 -0.1975
  324OD       C 1618   4.586   2.270   0.933  0.1366  0.0620  0.1343
  324OD       C 1619   4.254   2.042   1.154  0.4221 -0.1376 -0.1673
  324OD       C 1620   3.841   1.895   1.129  0.0429 -0.0728  0.0765
  325OD       C 1621   8.801   7.044   0.463 -0.1662 -0.1633  0.1105
  325OD       C 1622   9.052   7.029   0.199  0.2718  0.1130 -0.3058
  325OD       C 1623   9.474   7.005  -0.114 -0.2768  0.2567 -0.0620
  325OD       C 1624   9.861   7.068  -0.378  0.1639  0.2481  0.1816
  325OD       C 1625   9.928   6.823  -0.781  0.1644 -0.4422 -0.0082
  326OD       C 1626   8.255   0.808   0.394  0.0066  0.1562 -0.0593
  326OD       C 1627   7.916   1.035   0.648  0.1269 -0.2615  0.3556
  326OD       C 1628   7.581   1.234   0.786 -0.0669 -0.0275  0.0995
  326OD       C 1629   7.223   1.395   0.930  0.3242  0.0734  0.2523
  326OD       C 1630   6.943   1.651   1.103 -0.3062 -0.0199 -0.0041
  327OD       C 1631   8.680   1.941   0.977  0.0396  0.0671  0.1429
  327OD       C 1632   8.673   1.778   0.520  0.2067  0.0415  0.0317
  327OD       C 1633   8.422   1.614   0.170 -0.0841 -0.1290  0.1048
  327OD       C 1634   8.165   1.697  -0.139  0.1011 -0.1469 -0.0187
  327OD       C 1635   7.691   1.720  -0.244  0.2458 -0.0843 -0.1758
  328OD       C 1636   6.721   2.477   0.289  0.1065 -0.1032 -0.0698
  328OD       C 1637   6.664   2.616   0.641  0.0613 -0.1716 -0.2065
  328OD       C 1638   6.622   2.830   1.053 -0.0477  0.0775 -0.1059
  328OD       C 1639   6.301   2.662   1.348 -0.2411  0.1949 -0.1792
  328OD       C 1640   6.130   2.876   1.696 -0.1148  0.5330  0.0184
  329OD       C 1641   4.165   5.900   4.835 -0.0482  0.0327 -0.0203
  329OD       C 1642   4.460   5.788   4.762  0.0412 -0.2331 -0.2188
  329OD       C 1643   4.664   5.424   4.667  0.3135  0.0092 -0.0151
  329OD       C 1644   4.781   5.140   4.268 -0.3483  0.2087  0.0318
  329OD       C 1645   4.898   5.179   3.827 -0.1923 -0.0271  0.2127
  330OD       C 1646   1.226   4.636   7.141 -0.0977 -0.1325 -0.3683
  330OD       C 1647   1.499   4.750   6.843 -0.1603 -0.1727 -0.2392
  330OD       C 1648   1.858   4.859   6.519  0.2416  0.1559  0.1969
  330OD       C 1649   2.187   5.012   6.234  0.0936 -0.2067 -0.1705
  330OD       C 1650   2.394   5.096   5.948 -0.0588  0.2244  0.3660
  331OD       C 1651   2.620   4.406   6.456 -0.0031  0.1658  0.5028
  331OD       C 1652   2.901   4.083   6.603 -0.2581 -0.0068 -0.3259
  331OD       C 1653   3.003   3.983   7.013 -0.1710  0.3134 -0.1159
  331OD       C 1654   2.974   3.504   7.170 -0.0164  0.1073  0.0991
  331OD       C 1655   3.231   3.280   7.493 -0.2531  0.0342  0.0210
  332OD       C 1656   7.921   0.154   5.794  0.2021  0.0466  0.3186
  332OD       C 1657   8.175   0.190   5.975 -0.0239 -0.0915  0.3483
  332OD       C 1658   8.288   0.443   6.278  0.0946  0.1824 -0.4060
  332OD       C 1659   8.192   0.993   6.371 -0.0306  0.1958  0.2444
  332OD       C 1660   7.989   1.383   6.661 -0.1320  0.0644  0.0467
  333OD       C 1661   7.570   2.788   6.277  0.1490  0.1217  0.0961
  333OD       C 1662   7.947   2.970   6.414  0.1615 -0.0533  0.1501
  333OD       C 1663   8.359   3.024   6.509 -0.0747 -0.1269 -0.2340
  333OD       C 1664   8.636   3.236   6.894 -0.0932  0.2680  0.1744
  333OD       C 1665   8.956   3.525   7.105  0.4426  0.1337  0.1263
  334OD       C 1666   1.824   5.047   4.184  0.1224 -0.0544 -0.2020
  334OD       C 1667   1.513   5.294   4.000 -0.0220  0.0337  0.0611
  334OD       C 1668   1.384   5.826   3.967 -0.0413 -0.0443 -0.0023
  334OD       C 1669   1.338   6.283   3.823 -0.2519  0.2296  0.0633
  334OD       C 1670   1.547   6.619   3.916 -0.3296 -0.2185  0.1911
  335OD       C 1671   4.661   6.544   6.852  0.2090 -0.0896 -0.1522
  335OD       C 1672   5.056   6.768   6.911 -0.1372  0.0168  0.0597
  335OD       C 1673   5.144   7.107   7.137  0.0581 -0.1380 -0.0945
  335OD       C 1674   4.830   7.420   7.235 -0.2702  0.2714 -0.0372
  335OD       C 1675   4.355   7.560   7.183 -0.3134 -0.1288 -0.1863
  336OD       C 1676   0.704   1.788   3.021 -0.1956  0.0621 -0.0411
  336OD       C 1677   0.509   1.356   2.911 -0.1659 -0.0650 -0.3372
  336OD       C 1678   0.649   0.910   3.059 -0.0885  0.0376 -0.0616
  336OD       C 1679   0.792   0.554   3.336  0.3017  0.0545  0.0644
  336OD       C 1680   0.552   0.369   3.670 -0.0928 -0.1104 -0.1775
  337OD       C 1681   0.638   7.094   2.082  0.3925 -0.0393 -0.0363
  337OD       C 1682   0.628   7.244   1.695 -0.2729  0.0326  0.1627
  337OD       C 1683   1.034   7.358   1.502 -0.0421 -0.0611  0.0872
  337OD       C 1684   1.416   7.654   1.545  0.0547  0.0803 -0.0938
  337OD       C 1685   1.677   7.948   1.473  0.0762  0.1866 -0.0159
  338OD       C 1686   0.091   3.333   7.103  0.0136  0.0848 -0.2012
  338OD       C 1687  -0.193   3.314   7.382 -0.0142  0.2620 -0.0972
  338OD       C 1688  -0.428   3.195   7.704 -0.2097  0.1336 -0.0902
  338OD       C 1689  -0.406   3.386   8.066 -0.0604 -0.2235 -0.2007
  338OD       C 1690  -0.091   3.728   8.124  0.3934  0.2450  0.2411
  339OD       C 1691   4.778   6.870   3.424 -0.1044  0.0215  0.1028
  339OD       C 1692   5.133   6.925   3.658  0.0372  0.2163  0.0012
  339OD       C 1693   5.543   6.811   3.379 -0.1423 -0.0472  0.2396
  339OD       C 1694   5.572   6.755   2.905  0.2128 -0.3901 -0.0180
  339OD       C 1695   5.659   6.887   2.475 -0.1246 -0.2515 -0.2360
  340OD       C 1696   8.589   2.730   0.433 -0.2031  0.0323 -0.0169
  340OD       C 1697   8.808   2.990   0.143 -0.2079 -0.3415 -0.0589
  340OD       C 1698   9.094   3.058  -0.198 -0.0400  0.2766 -0.1853
  340OD       C 1699   9.289   2.717  -0.423  0.2014 -0.2230  0.0406
  340OD       C 1700   9.629   2.411  -0.402 -0.0097 -0.0425 -0.2028
  341OD       C 1701   3.847   2.616   5.372  0.1579  0.1309 -0.0200
  341OD       C 1702   4.283   2.462   5.582 -0.0376  0.0171  0.1919
  341OD       C 1703   4.707   2.347   5.445  0.2193 -0.0699  0.4329
  341OD       C 1704   4.982   1.987   5.425  0.1185  0.1869 -0.0421
  341OD       C 1705   5.045   1.505   5.601 -0.2067  0.1027  0.2587
  342OD       C 1706   4.527   3.910   6.702 -0.1229  0.0977  0.2304
  342OD       C 1707   4.608   3.682   6.339  0.0322 -0.4262 -0.0661
  342OD       C 1708   4.556   3.433   6.042  0.0087  0.1090 -0.2589
  342OD       C 1709   4.377   3.080   5.914  0.1941 -0.3790 -0.2118
  342OD       C 1710   3.965   2.880   5.821  0.0106  0.0740  0.1083
  343OD       C 1711   8.110   1.794   3.593  0.1900  0.0960  0.0160
  343OD       C 1712   7.967   2.311   3.517 -0.2041 -0.1663  0.1588
  343OD       C 1713   8.175   2.665   3.227 -0.0139  0.1558 -0.1450
  343OD       C 1714   8.329   3.036   2.933  0.0214 -0.0065  0.0159
  343OD       C 1715   8.584   3.046   2.675  0.0791  0.2275 -0.1264
  344OD       C 1716   1.700   3.969   5.079 -0.1619  0.1264 -0.1716
  344OD       C 1717   1.501   3.657   4.886  0.1162  0.0315  0.0783
  344OD       C 1718   1.194   3.566   4.493 -0.0278 -0.2846  0.0275
  344OD       C 1719   1.263   3.374   4.152  0.0152  0.2334 -0.0573
  344OD       C 1720   1.353   3.223   3.713 -0.1120 -0.2492  0.0460
  345OD       C 1721   2.854   5.774   4.758  0.0301  0.0381 -0.2764
  345OD       C 1722   2.631   6.137   4.591  0.0388 -0.0717 -0.1949
  345OD       C 1723   2.578   6.491   4.494 -0.1229 -0.2246  0.0333
  345OD       C 1724   2.318   6.810   4.260  0.1493  0.0318 -0.0136
  345OD       C 1725   1.884   7.016   4.559  0.1252 -0.1708  0.2038
  346OD       C 1726   4.082   4.444   6.219  0.2876 -0.0517 -0.3199
  346OD       C 1727   3.816   4.799   5.930 -0.1518  0.0145 -0.3910
  346OD       C 1728   3.599   5.232   6.138 -0.2011 -0.3967 -0.1092
  346OD       C 1729   3.581   5.700   6.115  0.1841 -0.1910  0.1001
  346OD       C 1730   3.262   5.896   6.441 -0.1867 -0.1615 -0.0522
  347OD       C 1731   4.888   1.713   5.009 -0.0174  0.3870 -0.2351
  347OD       C 1732   4.932   1.320   4.735 -0.0874  0.2083  0.1502
  347OD       C 1733   4.660   1.209   4.330  0.2893 -0.1096 -0.0785
  347OD       C 1734   4.289   1.413   4.316  0.2481  0.1154  0.1022
  347OD       C 1735   3.967   1.505   3.957 -0.1470 -0.0183  0.2245
  348OD       C 1736   6.420   1.947   4.924 -0.1270  0.2060  0.3018
  348OD       C 1737   6.240   2.193   4.626  0.2172  0.3531  0.0603
  348OD       C 1738   6.246   2.257   4.218  0.3329  0.0334 -0.0868
  348OD       C 1739   6.581   2.348   3.912  0.2442 -0.1364  0.0698
  348OD       C 1740   6.782   2.575   3.523 -0.3609  0.2036  0.1899
  349OD       C 1741   1.693   5.831   0.238 -0.0283 -0.1884  0.1216
  349OD       C 1742   1.513   5.799   0.702 -0.2430 -0.2174  0.2786
  349OD       C 1743   1.426   5.812   1.067  0.0933 -0.3010 -0.0926
  349OD       C 1744   1.458   5.899   1.572  0.0923  0.0124 -0.0415
  349OD       C 1745   1.221   5.941   1.892 -0.4133  0.0554  0.3547
  350OD       C 1746   9.283   5.567   6.339 -0.0464 -0.2290  0.0992
  350OD       C 1747   9.020   5.804   6.457 -0.1530  0.2259 -0.0437
  350OD       C 1748   8.752   6.110   6.360 -0.0755  0.2740 -0.2788
  350OD       C 1749   8.400   6.164   6.192  0.0472  0.0847 -0.0376
  350OD       C 1750   8.067   6.266   6.457  0.2881 -0.0735  0.0453
  351OD       C 1751   0.981   4.391   4.227 -0.2031 -0.1597  0.1525
  351OD       C 1752   0.697   4.641   4.544 -0.1339  0.0087  0.0093
  351OD       C 1753   0.269   4.810   4.491  0.0857 -0.2176 -0.0084
  351OD       C 1754  -0.120   4.595   4.457 -0.1669  0.1179 -0.0204
  351OD       C 1755  -0.346   4.198   4.415  0.3387 -0.0388  0.2906
  352OD       C 1756   1.653   5.039   0.029  0.0016 -0.0114 -0.0951
  352OD       C 1757   1.398   5.498   0.050 -0.3118  0.1682 -0.0032
  352OD       C 1758   1.353   5.901  -0.071  0.0545 -0.0976 -0.0226
  352OD       C 1759   1.542   6.302  -0.042  0.0912  0.2572 -0.0451
  352OD       C 1760   1.320   6.698  -0.260  0.2074  0.2574 -0.3911
  353OD       C 1761   1.895   4.593   2.492  0.1120 -0.0180  0.1294
  353OD       C 1762   1.562   4.625   2.107  0.0397 -0.1435 -0.0309
  353OD       C 1763   1.157   4.793   1.868  0.2545 -0.2294 -0.1758
  353OD       C 1764   1.159   5.003   1.531  0.1489  0.1606  0.1378
  353OD       C 1765   1.409   5.307   1.266 -0.1683 -0.0691 -0.0361
  354OD       C 1766   4.310   5.812   1.258  0.1303  0.0296 -0.0552
  354OD       C 1767   4.389   5.402   1.075 -0.0768  0.2285  0.2101
  354OD       C 1768   4.756   4.992   1.161 -0.0330 -0.1734  0.1477
  354OD       C 1769   4.841   4.577   1.281  0.0309 -0.0845  0.3007
  354OD       C 1770   5.082   4.216   1.359  0.0869  0.0084  0.1961
  355OD       C 1771   1.181   7.093   6.047 -0.1983  0.0829  0.3791
  355OD       C 1772   1.462   7.177   5.712  0.0044  0.1959 -0.4325
  355OD       C 1773   1.760   7.462   5.749  0.0391 -0.3488 -0.3443
  355OD       C 1774   1.979   7.739   5.499 -0.1700  0.0199 -0.2233
  355OD       C 1775   2.429   7.925   5.392  0.2696 -0.1751 -0.0871
  356OD       C 1776   8.841   3.241   4.595 -0.2052 -0.0327  0.0717
  356OD       C 1777   8.473   3.360   4.503  0.1270 -0.1979 -0.3100
  356OD       C 1778   8.319   3.700   4.205  0.3365 -0.0140  0.1890
  356OD       C 1779   8.218   4.080   4.291 -0.2344  0.0989 -0.0973
  356OD       C 1780   8.002   4.431   4.096 -0.0109 -0.0184  0.3159
  357OD       C 1781   5.795   5.243   6.302 -0.0708  0.1510 -0.0815
  357OD       C 1782   5.818   4.705   6.126 -0.3084 -0.1755  0.0366
  357OD       C 1783   5.919   4.440   6.312  0.0940 -0.3350 -0.0286
  357OD       C 1784   5.918   4.367   6.633 -0.1739  0.2902 -0.1986
  357OD       C 1785   6.084   4.272   7.044  0.0325 -0.1138  0.1200
  358OD       C 1786   9.146   3.436   5.122 -0.0410 -0.1805 -0.2002
  358OD       C 1787   9.049   3.048   5.007  0.0098 -0.0370  0.0161
  358OD       C 1788   9.171   2.605   4.856 -0.2804 -0.1193 -0.0184
  358OD       C 1789   9.144   2.213   4.804 -0.0538 -0.1121  0.0632
  358OD       C 1790   8.792   2.050   4.603  0.2568  0.0383  0.0263
  359OD       C 1791   7.328   3.291   3.790  0.1949 -0.0498 -0.0916
  359OD       C 1792   7.638   3.101   3.855 -0.1379 -0.1690 -0.0394
  359OD       C 1793   7.942   2.861   3.860 -0.0779  0.1024  0.1665
  359OD       C 1794   8.036   2.472   3.973 -0.0418 -0.3548 -0.0450
  359OD       C 1795   7.976   2.062   4.152 -0.2363  0.1798 -0.0085
  360OD       C 1796   7.672   0.863   7.071  0.1479  0.2599  0.0058
  360OD       C 1797   7.572   1.187   6.836  0.1292  0.0510  0.0081
  360OD       C 1798   7.546   1.576   6.512  0.1104  0.2055  0.2218
  360OD       C 1799   7.216   1.506   6.218 -0.0851 -0.0462  0.2114
  360OD       C 1800   7.156   1.884   6.019 -0.3273  0.1014  0.4264
  361OD       C 1801   8.846   0.857   3.860  0.1141 -0.1646  0.0163
  361OD       C 1802   8.633   0.422   4.035  0.0542  0.2852  0.4344
  361OD       C 1803   8.536  -0.052   3.805  0.0501  0.0842  0.2399
  361OD       C 1804   8.378  -0.396   3.777 -0.1296  0.3385  0.0228
  361OD       C 1805   8.004  -0.513   3.781 -0.0097 -0.0865 -0.3112
  362OD       C 1806   4.153   1.839   0.659  0.0698 -0.0925  0.2484
  362OD       C 1807   4.077   1.474   0.940  0.1655 -0.1653 -0.1510
  362OD       C 1808   4.156   1.077   1.151 -0.0930 -0.0354  0.1980
  362OD       C 1809   4.546   0.879   1.249 -0.2812  0.1126  0.0133
  362OD       C 1810   5.023   0.830   1.376 -0.0392  0.2026 -0.0899
  363OD       C 1811   8.912   0.273   1.416 -0.1325  0.0802 -0.0564
  363OD       C 1812   8.558   0.377   1.459 -0.0298  0.1950  0.0252
  363OD       C 1813   8.282   0.555   1.700  0.0786  0.0596 -0.1999
  363OD       C 1814   7.914   0.636   1.957  0.1295  0.0915  0.3133
  363OD       C 1815   7.527   0.955   2.013 -0.0532 -0.0558  0.2280
  364OD       C 1816   2.485   4.247   2.214  0.1282  0.0884 -0.0731
  364OD       C 1817   2.313   4.609   2.095 -0.0849  0.1660 -0.1597
  364OD       C 1818   1.968   4.529   1.776  0.3264 -0.2425 -0.3049
  364OD       C 1819   1.781   4.397   1.328  0.1687  0.1192 -0.1932
  364OD       C 1820   1.806   4.362   0.918 -0.1852  0.0009 -0.0402
  365OD       C 1821   4.433   2.511   4.643  0.0706 -0.0937  0.1888
  365OD       C 1822   4.835   2.493   4.502 -0.1272  0.1510  0.0957
  365OD       C 1823   5.258   2.524   4.289  0.1073 -0.1211 -0.1695
  365OD       C 1824   5.410   2.879   4.230  0.3290  0.0263  0.2407
  365OD       C 1825   5.436   3.155   3.954  0.1452 -0.0341  0.1570
  366OD       C 1826   0.965   4.645   0.469  0.0392  0.1481  0.1268
  366OD       C 1827   0.763   4.608   0.868  0.1378  0.0887 -0.0177
  366OD       C 1828   0.839   4.653   1.279  0.0076  0.2065  0.3442
  366OD       C 1829   0.962   4.439   1.496 -0.0203  0.1443  0.1545
  366OD       C 1830   1.361   4.340   1.619 -0.1801 -0.2913 -0.2466
  367OD       C 1831   8.640   1.228   1.859 -0.3741  0.0186  0.1238
  367OD       C 1832   8.627   1.462   1.433 -0.1418 -0.0640  0.1744
  367OD       C 1833   8.561   1.866   1.568 -0.1008  0.1646 -0.0041
  367OD       C 1834   8.724   2.300   1.791 -0.0610 -0.1288 -0.1209
  367OD       C 1835   9.074   2.540   1.887 -0.2012 -0.2306 -0.2208
  368OD       C 1836   1.594   0.286   4.444 -0.0898 -0.0122 -0.0420
  368OD       C 1837   1.915   0.544   4.093 -0.0191  0.2130  0.0033
  368OD       C 1838   2.063   0.876   3.878 -0.0792  0.0723 -0.0782
  368OD       C 1839   2.357   0.974   3.521 -0.2637 -0.2150  0.1058
  368OD       C 1840   2.761   1.297   3.566 -0.0158 -0.0873 -0.1973
  369OD       C 1841   2.984   5.455   2.189  0.0340  0.1056 -0.1633
  369OD       C 1842   3.304   5.215   2.315  0.0311 -0.2064 -0.2378
  369OD       C 1843   3.696   4.864   2.225  0.2314  0.2840 -0.1493
  369OD       C 1844   3.790   4.499   2.461 -0.2361 -0.0741 -0.1909
  369OD       C 1845   3.954   4.053   2.536 -0.1841  0.0616  0.1831
  370OD       C 1846   4.866   6.509   0.155  0.2422  0.1184 -0.1567
  370OD       C 1847   4.599   6.792   0.107  0.0832  0.2654 -0.3501
  370OD       C 1848   4.564   7.056  -0.209  0.0260  0.0692 -0.1305
  370OD       C 1849   4.553   7.434  -0.484 -0.0199 -0.2730  0.1097
  370OD       C 1850   4.470   7.758  -0.799 -0.1062 -0.0538 -0.2940
  371OD       C 1851   0.916   5.213   4.493 -0.2647  0.0967  0.2304
  371OD       C 1852   0.469   5.251   4.302  0.2590 -0.0908 -0.0488
  371OD       C 1853   0.087   5.322   4.261 -0.0583 -0.0382 -0.1969
  371OD       C 1854  -0.161   5.553   4.086 -0.0954  0.0732  0.0441
  371OD       C 1855  -0.540   5.560   3.786  0.1841  0.1194  0.1041
  372OD       C 1856   8.293   2.446   0.060  0.0105  0.1885 -0.0014
  372OD       C 1857   8.451   2.117  -0.231 -0.2568 -0.1092 -0.0089
  372OD       C 1858   8.479   2.031  -0.625 -0.2367  0.1019 -0.0406
  372OD       C 1859   8.323   2.079  -1.030 -0.2731 -0.0083 -0.0575
  372OD       C 1860   8.465   2.215  -1.325  0.0388 -0.2243  0.0246
  373OD       C 1861   6.765   1.696   5.239 -0.1340 -0.2125 -0.0518
  373OD       C 1862   6.770   1.532   4.802 -0.1151 -0.1500 -0.2533
  373OD       C 1863   6.433   1.284   4.637  0.5185 -0.0856  0.1414
  373OD       C 1864   6.016   1.221   4.607 -0.2115  0.2987  0.1267
  373OD       C 1865   5.778   1.343   4.244  0.2001  0.0272 -0.0951
  374OD       C 1866   4.003   5.798   5.908 -0.1535  0.2802 -0.0832
  374OD       C 1867   4.446   5.692   5.771 -0.0291 -0.3333  0.1150
  374OD       C 1868   4.610   5.270   5.671 -0.1028  0.1761  0.0592
  374OD       C 1869   4.714   4.913   5.417 -0.0616 -0.1232 -0.0405
  374OD       C 1870   4.666   4.807   5.082 -0.1067  0.1752 -0.0519
  375OD       C 1871   7.733   7.194   4.886  0.0845 -0.3307  0.0920
  375OD       C 1872   7.616   7.328   5.354 -0.0085  0.2284  0.4906
  375OD       C 1873   7.484   7.598   5.584  0.0791 -0.0557 -0.0910
  375OD       C 1874   7.560   7.988   5.620  0.1341 -0.3711 -0.3542
  375OD       C 1875   7.476   8.319   5.488  0.1184  0.2000 -0.2268
  376OD       C 1876   5.217   4.366   6.054 -0.1957 -0.0955  0.1789
  376OD       C 1877   5.464   4.300   6.393  0.3153 -0.0021 -0.0896
  376OD       C 1878   5.592   4.726   6.635  0.2808 -0.0310 -0.1063
  376OD       C 1879   5.713   4.584   7.019 -0.0444 -0.1869  0.0151
  376OD       C 1880   5.800   4.420   7.457  0.2908  0.0154 -0.1729
  377OD       C 1881   0.496   0.654   0.547 -0.1342 -0.1335  0.0472
  377OD       C 1882   0.967   0.480   0.607  0.0580  0.0325 -0.1419
  377OD       C 1883   1.330   0.234   0.584 -0.1193  0.0994  0.1028
  377OD       C 1884   1.535  -0.153   0.746  0.0717  0.0910 -0.0252
  377OD       C 1885   1.934  -0.352   0.863  0.0818 -0.0792 -0.0205
  378OD       C 1886   2.789   1.601   4.972  0.0339  0.3456 -0.1007
  378OD       C 1887   2.766   2.023   5.099  0.0980 -0.1393 -0.0285
  378OD       C 1888   2.810   2.329   5.345  0.2652  0.2110 -0.1057
  378OD       C 1889   3.197   2.333   5.558  0.0716 -0.0367  0.0797
  378OD       C 1890   3.405   2.500   5.890  0.0478 -0.1277 -0.1247
  379OD       C 1891   7.439   5.410   6.417 -0.2712  0.0348  0.3524
  379OD       C 1892   7.557   5.454   6.028  0.1041  0.0073 -0.0856
  379OD       C 1893   7.401   5.503   5.661  0.3079 -0.2813  0.1462
  379OD       C 1894   7.371   5.468   5.298 -0.0536 -0.1989 -0.2659
  379OD       C 1895   7.411   5.725   4.924 -0.0045  0.0360  0.2822
  380OD       C 1896   4.415   3.930   4.653  0.0215 -0.0986  0.1113
  380OD       C 1897   3.953   3.727   4.618  0.1687 -0.0639  0.0184
  380OD       C 1898   3.548   3.468   4.746  0.4040  0.1803 -0.0154
  380OD       C 1899   3.287   3.717   5.036  0.1948 -0.2741 -0.2565
  380OD       C 1900   3.223   3.969   5.421 -0.1571 -0.1682  0.0686
  381OD       C 1901   1.369   3.151   3.015 -0.1569 -0.0719  0.2693
  381OD       C 1902   0.984   3.031   3.256  0.1118 -0.0286  0.1041
  381OD       C 1903   0.619   3.408   3.307  0.3465 -0.1410 -0.1332
  381OD       C 1904   0.259   3.485   3.185  0.1497 -0.1812 -0.1269
  381OD       C 1905   0.105   3.848   3.219  0.1055  0.1860  0.1148
  382OD       C 1906   3.663   3.466   2.786  0.2257 -0.1572 -0.2560
  382OD       C 1907   3.591   3.787   2.432 -0.0298  0.0788  0.1838
  382OD       C 1908   3.571   4.077   2.135 -0.0524 -0.1764 -0.6857
  382OD       C 1909   3.356   4.436   2.124 -0.2234 -0.1632 -0.1299
  382OD       C 1910   3.292   4.681   2.443  0.2114  0.0803  0.4876
  383OD       C 1911   9.416   3.848   7.061 -0.1909 -0.0777 -0.1501
  383OD       C 1912   9.689   3.734   6.751 -0.1150 -0.0718 -0.1805
  383OD       C 1913   9.932   3.845   6.405 -0.0423  0.2066  0.1252
  383OD       C 1914   9.782   4.201   6.155  0.1810 -0.0909 -0.1411
  383OD       C 1915   9.337   4.481   5.955 -0.4213 -0.4678 -0.1878
  384OD       C 1916   6.304   2.070   3.223  0.2047  0.2042  0.2704
  384OD       C 1917   6.163   2.191   2.844 -0.1964 -0.1497  0.0308
  384OD       C 1918   6.038   2.268   2.458  0.1166 -0.2828 -0.0012
  384OD       C 1919   5.585   2.512   2.253 -0.0702 -0.1829 -0.1792
  384OD       C 1920   5.200   2.718   2.553 -0.0054  0.2382 -0.0988
  385OD       C 1921   8.549   5.540   6.399  0.2688  0.2772 -0.1873
  385OD       C 1922   8.193   5.801   6.557  0.1742 -0.0932 -0.0934
  385OD       C 1923   7.714   5.937   6.387  0.1499 -0.1304 -0.0794
  385OD       C 1924   7.400   5.922   6.375 -0.0077 -0.0146 -0.2051
  385OD       C 1925   7.103   6.263   6.343 -0.1042  0.2653 -0.3547
  386OD       C 1926   7.126   6.600   5.068  0.3042  0.2146 -0.1282
  386OD       C 1927   6.784   6.442   5.378 -0.1228  0.2012  0.1422
  386OD       C 1928   6.454   6.312   5.727  0.0010  0.2131  0.3408
  386OD       C 1929   6.304   5.968   5.796  0.2799 -0.1999  0.0075
  386OD       C 1930   6.252   5.599   5.473 -0.0744  0.0726  0.0375
  387OD       C 1931   9.020   2.583   3.503  0.0951 -0.3133  0.3439
  387OD       C 1932   9.005   2.257   3.196 -0.1131 -0.0337 -0.1937
  387OD       C 1933   9.193   1.901   3.173 -0.0307  0.2607  0.0081
  387OD       C 1934   9.246   1.642   2.856 -0.1545  0.1280  0.2476
  387OD       C 1935   9.518   1.375   2.704  0.3140 -0.2150  0.2912
  388OD       C 1936   2.698   4.787   2.902 -0.2409  0.1183  0.0663
  388OD       C 1937   3.120   4.740   2.856 -0.1465  0.2841 -0.1060
  388OD       C 1938   3.541   4.579   2.928 -0.0514 -0.2409 -0.0986
  388OD       C 1939   3.852   4.268   3.040 -0.2087 -0.1302 -0.2283
  388OD       C 1940   4.303   4.051   3.010  0.3225  0.1529 -0.0421
  389OD       C 1941   8.085   4.902   2.511  0.0372  0.1254  0.3243
  389OD       C 1942   8.114   4.822   2.090  0.1111  0.2718  0.0350
  389OD       C 1943   7.989   4.491   1.927  0.1858  0.2570  0.3587
  389OD       C 1944   8.003   4.078   1.786  0.0688 -0.0099 -0.4221
  389OD       C 1945   7.713   3.768   1.972 -0.2966 -0.1279  0.0172
  390OD       C 1946   9.112   4.292   4.917  0.1497  0.0282  0.3857
  390OD       C 1947   9.258   4.692   4.936 -0.0473 -0.0393 -0.6554
  390OD       C 1948   9.020   5.014   5.143 -0.1016 -0.1081  0.2429
  390OD       C 1949   9.034   5.376   5.427 -0.2597  0.1676  0.4911
  390OD       C 1950   8.926   5.817   5.408 -0.0799  0.1236  0.1490
  391OD       C 1951   7.665   1.985   3.682 -0.3247 -0.2178  0.1443
  391OD       C 1952   7.628   1.873   3.181 -0.1226  0.3077  0.0635
  391OD       C 1953   7.769   1.871   2.718 -0.1422 -0.0781  0.0161
  391OD       C 1954   7.985   1.850   2.413 -0.2765  0.2381  0.0576
  391OD       C 1955   8.187   2.008   1.944  0.0436 -0.0928  0.2342
  392OD       C 1956   0.703   0.460   2.077 -0.0894  0.0787  0.2622
  392OD       C 1957   0.308   0.740   1.942  0.1661  0.0770 -0.4285
  392OD       C 1958   0.242   1.168   1.859  0.0833  0.1721  0.3827
  392OD       C 1959   0.451   1.505   1.925 -0.0996 -0.0341  0.1529
  392OD       C 1960   0.841   1.511   2.066 -0.0823 -0.0885 -0.2004
  393OD       C 1961   4.668   4.719   0.278 -0.0476  0.1668  0.0546
  393OD       C 1962   4.550   4.309   0.393  0.0444 -0.1168  0.1017
  393OD       C 1963   4.543   3.831   0.488  0.0481 -0.0030 -0.2009
  393OD       C 1964   4.862   3.601   0.739 -0.0583  0.1920  0.1999
  393OD       C 1965   5.100   3.725   1.074  0.1105 -0.2435  0.1795
  394OD       C 1966   7.241   1.468   5.255  0.1000 -0.0451 -0.2268
  394OD       C 1967   7.703   1.364   5.136  0.2777  0.2756  0.0922
  394OD       C 1968   7.854   1.074   4.873  0.0014 -0.1385  0.1971
  394OD       C 1969   8.253   0.839   4.801  0.1606  0.0879 -0.1111
  394OD       C 1970   8.642   0.912   4.429  0.4740  0.0026 -0.2095
  395OD       C 1971   6.506   1.999   1.768 -0.2475  0.1427 -0.1710
  395OD       C 1972   6.169   2.143   1.466  0.2542  0.1200 -0.0425
  395OD       C 1973   5.852   2.451   1.417  0.0171 -0.2304 -0.0430
  395OD       C 1974   5.619   2.681   1.633  0.3660 -0.0211  0.1901
  395OD       C 1975   5.742   3.100   1.482  0.1756 -0.5013  0.1423
  396OD       C 1976   9.034   0.481   2.932  0.2813 -0.2361  0.3221
  396OD       C 1977   9.217   0.933   2.920  0.2419  0.1098 -0.2517
  396OD       C 1978   9.053   1.202   2.604 -0.3672 -0.0549 -0.0170
  396OD       C 1979   8.905   1.449   2.228  0.0576  0.1131 -0.0889
  396OD       C 1980   8.831   1.740   1.995  0.2733 -0.1936  0.1127
  397OD       C 1981   4.876   0.110   2.463 -0.0748 -0.1792 -0.3811
  397OD       C 1982   4.759  -0.122   2.855 -0.1084 -0.3800  0.0967
  397OD       C 1983   4.459  -0.056   3.135  0.0337  0.2233 -0.1792
  397OD       C 1984   4.211  -0.274   3.461  0.0914 -0.1696  0.0106
  397OD       C 1985   4.154  -0.232   3.947  0.2299 -0.1576 -0.1721
  398OD       C 1986   2.020   6.725   2.639  0.2536  0.1295 -0.0268
  398OD       C 1987   1.720   6.514   2.674 -0.3529 -0.2224 -0.1827
  398OD       C 1988   1.526   6.313   2.386 -0.0278 -0.0020 -0.3641
  398OD       C 1989   1.637   6.358   1.980 -0.0435  0.1103  0.2172
  398OD       C 1990   1.988   6.184   1.745 -0.1157 -0.4100 -0.2240
  399OD       C 1991   3.319   0.420   1.142 -0.0013  0.3124 -0.1583
  399OD       C 1992   3.530   0.204   1.397 -0.1242 -0.2622 -0.0733
  399OD       C 1993   3.878   0.002   1.403 -0.0355 -0.0831 -0.0894
  399OD       C 1994   4.128  -0.325   1.623 -0.1557  0.0625 -0.1414
  399OD       C 1995   4.128  -0.604   1.959 -0.1189  0.1682  0.2026
  400OD       C 1996   0.520   5.642   1.314 -0.2111  0.0970  0.0766
  400OD       C 1997   0.446   5.636   0.884 -0.1464 -0.1123  0.0225
  400OD       C 1998   0.109   5.617   0.715  0.0909  0.0828 -0.0660
  400OD       C 1999  -0.299   5.734   0.465  0.2345  0.1930 -0.2161
  400OD       C 2000  -0.699   6.047   0.492 -0.0335  0.1883  0.1302
  401OD       C 2001   2.710   6.252   3.113 -0.5237 -0.4328 -0.0881
  401OD       C 2002   2.783   5.732   3.156 -0.0539 -0.3836  0.1298
  401OD       C 2003   2.854   5.320   2.933  0.2219  0.0142  0.1359
  401OD       C 2004   2.907   5.031   2.507  0.0539  0.1665  0.4083
  401OD       C 2005   2.815   4.675   2.264 -0.0389 -0.0453 -0.2528
  402OD       C 2006   2.402   1.140   2.316 -0.0135  0.0935 -0.1980
  402OD       C 2007   2.336   1.475   2.607  0.3640 -0.0608 -0.0305
  402OD       C 2008   2.031   1.807   2.459  0.0910  0.1214 -0.0065
  402OD       C 2009   1.992   2.173   2.719 -0.0635  0.0046  0.1604
  402OD       C 2010   1.894   2.168   3.158 -0.1290  0.0529  0.0588
  403OD       C 2011   0.953   5.716   3.487 -0.0821  0.0974  0.1306
  403OD       C 2012   1.417   5.941   3.442 -0.3687  0.0492  0.1142
  403OD       C 2013   1.755   6.000   3.636  0.2412  0.0705 -0.0144
  403OD       C 2014   1.810   6.098   4.074 -0.1276  0.0583 -0.0723
  403OD       C 2015   2.103   5.944   4.445  0.0457  0.0348  0.0194
  404OD       C 2016   3.420   5.771   2.116 -0.0768 -0.0742 -0.1489
  404OD       C 2017   3.536   5.823   1.679  0.1642  0.0325  0.1513
  404OD       C 2018   3.587   5.635   1.317  0.1725  0.0571  0.1039
  404OD       C 2019   3.474   5.525   0.924  0.0956  0.1321  0.0189
  404OD       C 2020   3.151   5.731   0.623 -0.1418  0.0611 -0.2649
  405OD       C 2021   9.233   2.295   6.415 -0.1502  0.1954  0.1606
  405OD       C 2022   9.692   2.264   6.207  0.2124  0.3870 -0.3863
  405OD       C 2023  10.075   2.389   6.405  0.1086  0.2899 -0.1795
  405OD       C 2024  10.224   2.649   6.747 -0.0499 -0.2583  0.2906
  405OD       C 2025  10.146   3.069   7.082 -0.1342  0.2261  0.1127
  406OD       C 2026   8.353   5.401   4.159 -0.6240 -0.2719  0.0970
  406OD       C 2027   8.446   4.921   4.181  0.1666  0.0889  0.2715
  406OD       C 2028   8.332   4.658   4.472 -0.0681  0.0056  0.0828
  406OD       C 2029   7.991   4.527   4.563 -0.1384  0.0977 -0.1616
  406OD       C 2030   7.772   4.214   4.450 -0.0839 -0.0451  0.1563
  407OD       C 2031   7.777   2.142   0.994  0.0748 -0.0297  0.0375
  407OD       C 2032   7.352   2.108   1.007 -0.3830  0.1494  0.2799
  407OD       C 2033   7.002   2.420   1.057  0.1101 -0.0213  0.1449
  407OD       C 2034   6.955   2.739   1.387  0.1582 -0.1182  0.2120
  407OD       C 2035   6.667   2.936   1.638 -0.0160  0.1213 -0.1978
  408OD       C 2036   8.710   6.638   5.431  0.0347  0.0768 -0.2425
  408OD       C 2037   8.301   6.742   5.327  0.0839  0.0099 -0.0631
  408OD       C 2038   8.042   6.732   5.010 -0.0621 -0.2750  0.0039
  408OD       C 2039   7.904   6.625   4.584 -0.0688 -0.0145 -0.1274
  408OD       C 2040   7.933   6.880   4.227  0.0723 -0.0119 -0.0486
  409OD       C 2041   8.743   0.853   5.008 -0.0802 -0.2895 -0.0422
  409OD       C 2042   8.609   0.492   4.698 -0.3007 -0.1155 -0.0056
  409OD       C 2043   8.678   0.145   4.802  0.0600  0.0756 -0.0362
  409OD       C 2044   8.879  -0.148   5.031  0.0448  0.0012 -0.0164
  409OD       C 2045   9.015  -0.207   5.266 -0.0878  0.2312  0.0998
  410OD       C 2046   3.408   2.668   5.155  0.2743  0.0483 -0.0375
  410OD       C 2047   2.964   2.774   5.250  0.0615 -0.0106 -0.1836
  410OD       C 2048   2.817   2.873   4.863  0.1819  0.0536 -0.1373
  410OD       C 2049   2.868   3.123   4.493  0.0453  0.4510 -0.0932
  410OD       C 2050   2.690   3.456   4.293 -0.0063 -0.0524  0.2100
  411OD       C 2051   1.459   2.177   4.596 -0.1309 -0.0449  0.0734
  411OD       C 2052   1.136   1.945   4.358  0.1226  0.0699  0.0648
  411OD       C 2053   0.958   1.639   4.179 -0.0831  0.0777 -0.2388
  411OD       C 2054   0.716   1.268   4.037  0.1028  0.2166 -0.0732
  411OD       C 2055   0.459   0.939   4.165 -0.0653  0.0511 -0.1792
  412OD       C 2056   8.819   6.382   4.467  0.4558 -0.0893  0.1466
  412OD       C 2057   9.178   6.541   4.347  0.1851  0.0819  0.0387
  412OD       C 2058   9.504   6.905   4.431 -0.0307 -0.1130  0.3587
  412OD       C 2059   9.734   7.179   4.631  0.1967  0.0543  0.0700
  412OD       C 2060  10.139   7.249   4.620 -0.1616  0.0313  0.1597
  413OD       C 2061   3.855   3.507   1.620 -0.1561 -0.0149  0.2485
  413OD       C 2062   3.506   3.466   1.505 -0.0874 -0.4008 -0.0274
  413OD       C 2063   3.340   3.197   1.155 -0.0397 -0.4181  0.5116
  413OD       C 2064   2.933   3.272   0.972  0.1447 -0.0365  0.0749
  413OD       C 2065   2.538   3.512   1.015 -0.0383  0.1815 -0.3097
  414OD       C 2066   7.206   3.171   1.536 -0.1521 -0.1095 -0.1660
  414OD       C 2067   7.281   3.471   1.151  0.2427 -0.2674 -0.2352
  414OD       C 2068   7.580   3.576   0.850 -0.1225 -0.2828 -0.0862
  414OD       C 2069   7.774   3.641   0.534 -0.1991  0.1143  0.0661
  414OD       C 2070   8.186   3.730   0.523 -0.0062 -0.0047 -0.1801
  415OD       C 2071   2.447   4.020   3.981  0.0589  0.0284 -0.0183
  415OD       C 2072   2.759   4.364   4.008  0.1206 -0.0149 -0.2363
  415OD       C 2073   2.762   4.769   3.803 -0.0886  0.0129 -0.1317
  415OD       C 2074   2.738   5.123   3.976 -0.0938  0.0417  0.0867
  415OD       C 2075   2.712   5.358   4.339  0.4137 -0.0195  0.0175
  416OD       C 2076   8.668   4.515   0.081 -0.0573  0.1786 -0.1705
  416OD       C 2077   8.907   4.330  -0.290 -0.0055  0.0529 -0.1891
  416OD       C 2078   9.059   3.850  -0.534 -0.4756 -0.0779  0.1074
  416OD       C 2079   9.171   3.558  -0.609 -0.0153  0.0565 -0.1032
  416OD       C 2080   9.393   3.216  -0.534  0.0040  0.0885 -0.0422
  417OD       C 2081   4.768   0.258   5.270 -0.1093  0.1602  0.1089
  417OD       C 2082   5.205   0.272   5.209  0.2142 -0.2130 -0.0488
  417OD       C 2083   5.495   0.592   5.251  0.0118  0.0755 -0.0695
  417OD       C 2084   5.674   0.907   5.338 -0.1352  0.1648  0.2762
  417OD       C 2085   5.712   1.262   5.130 -0.1712  0.0991 -0.0037
  418OD       C 2086   1.083   6.222   5.410  0.0130  0.0524  0.2102
  418OD       C 2087   0.840   6.136   5.103  0.0313 -0.0560 -0.0905
  418OD       C 2088   0.672   6.138   4.747 -0.1792  0.2026 -0.0136
  418OD       C 2089   0.456   5.966   4.394 -0.2336 -0.1495  0.4236
  418OD       C 2090   0.204   5.865   4.075 -0.0260 -0.2569 -0.2011
  419OD       C 2091   1.936   1.071   5.360 -0.1369  0.0567 -0.0685
  419OD       C 2092   2.251   1.364   5.246  0.1807 -0.1281 -0.0519
  419OD       C 2093   2.338   1.721   4.828  0.2015  0.2261 -0.1631
  419OD       C 2094   2.418   2.074   4.774 -0.0442  0.0765 -0.0258
  419OD       C 2095   2.563   2.432   4.904  0.0917  0.1709  0.2650
  420OD       C 2096   2.746   2.311   2.026  0.1954 -0.0167  0.3133
  420OD       C 2097   2.834   2.413   2.353 -0.3227 -0.0180 -0.2522
  420OD       C 2098   2.864   2.312   2.784  0.1736 -0.0235 -0.1043
  420OD       C 2099   2.772   2.132   3.234  0.0296 -0.2717 -0.2014
  420OD       C 2100   2.885   1.824   3.465  0.0473  0.0302 -0.4016
  421OD       C 2101   0.288   6.110   1.317  0.0671  0.0751  0.1123
  421OD       C 2102  -0.153   6.316   1.503 -0.0096  0.0023  0.0023
  421OD       C 2103  -0.400   6.617   1.553  0.0656  0.0090 -0.1103
  421OD       C 2104  -0.559   6.574   1.935 -0.0550  0.0787 -0.0728
  421OD       C 2105  -0.959   6.571   2.121 -0.2078 -0.1472  0.4248
  422OD       C 2106   5.855   5.125   3.619  0.0370  0.0196  0.5665
  422OD       C 2107   6.105   5.290   3.354  0.1698 -0.0253  0.2014
  422OD       C 2108   6.163   5.494   2.909 -0.1882 -0.0717 -0.0452
  422OD       C 2109   6.420   5.598   2.628 -0.1758  0.0602  0.2752
  422OD       C 2110   6.329   5.588   2.271 -0.1022 -0.0380 -0.1318
  423OD       C 2111   0.130   6.868   5.996  0.0730 -0.0180 -0.0409
  423OD       C 2112  -0.088   6.507   6.068 -0.0491  0.2768 -0.1844
  423OD       C 2113  -0.236   6.249   6.370  0.2477  0.3808 -0.3528
  423OD       C 2114  -0.078   6.087   6.792 -0.1558 -0.3322 -0.2905
  423OD       C 2115  -0.088   5.896   7.241 -0.1268  0.1331  0.1395
  424OD       C 2116   7.325   4.170   4.627 -0.2141  0.0951  0.1418
  424OD       C 2117   6.958   4.379   4.342  0.0377 -0.2986 -0.0061
  424OD       C 2118   6.924   4.748   4.077  0.1918 -0.2673  0.2986
  424OD       C 2119   6.726   5.067   4.030 -0.1279  0.2376 -0.0388
  424OD       C 2120   6.765   5.344   4.357 -0.0114 -0.1648 -0.0646
  425OD       C 2121   0.079   4.362   3.175 -0.0455  0.3053 -0.4044
  425OD       C 2122  -0.373   4.442   3.297 -0.0810  0.0933 -0.0429
  425OD       C 2123  -0.536   4.575   2.941  0.3794  0.1189  0.4221
  425OD       C 2124  -0.885   4.682   2.929 -0.3463  0.2724  0.3431
  425OD       C 2125  -1.253   4.490   2.790  0.3842 -0.0661 -0.3049
  426OD       C 2126   1.989   5.576   1.556  0.2249  0.3092 -0.1028
  426OD       C 2127   2.205   5.328   1.125 -0.0196  0.1766 -0.0198
  426OD       C 2128   2.297   5.105   0.825 -0.2865 -0.1183 -0.2593
  426OD       C 2129   2.445   4.734   0.595  0.2660  0.2473  0.1265
  426OD       C 2130   2.808   4.353   0.752  0.1795  0.0257 -0.1934
  427OD       C 2131   3.261   4.551   0.639  0.0775 -0.1043  0.1268
  427OD       C 2132   2.974   4.603   0.300 -0.1061  0.0426  0.2752
  427OD       C 2133   2.783   4.906   0.032  0.0667  0.0991  0.0246
  427OD       C 2134   2.482   5.248  -0.027  0.3147  0.3889  0.0422
  427OD       C 2135   2.462   5.658   0.072  0.2211 -0.2707  0.0024
  428OD       C 2136   9.415   1.668   2.305 -0.0739 -0.0112 -0.1074
  428OD       C 2137   9.752   1.976   2.218  0.0614 -0.6434 -0.0450
  428OD       C 2138   9.623   2.270   1.964  0.1260  0.1555  0.2259
  428OD       C 2139   9.694   2.655   1.751  0.3331 -0.0571  0.6136
  428OD       C 2140   9.737   2.738   1.323  0.1469 -0.0377 -0.0297
  429OD       C 2141   6.837   4.027   0.320  0.1273  0.1861 -0.0562
  429OD       C 2142   6.642   3.849   0.712 -0.0933 -0.0292 -0.1079
  429OD       C 2143   6.552   3.952   1.098 -0.1786 -0.0340  0.0046
  429OD       C 2144   6.304   4.222   1.272 -0.2015  0.2172  0.3683
  429OD       C 2145   6.179   4.527   1.539 -0.0656  0.0056  0.1174
  430OD       C 2146   6.153   5.553   6.006  0.0687  0.2471 -0.1850
  430OD       C 2147   5.943   5.345   5.786 -0.3839  0.3842 -0.1463
  430OD       C 2148   5.759   4.984   5.562  0.0653 -0.0066 -0.1262
  430OD       C 2149   5.481   4.800   5.275 -0.2134  0.0294  0.3005
  430OD       C 2150   5.327   4.564   4.923  0.2288  0.0536  0.3343
  431OD       C 2151   1.130   6.029   2.461 -0.2634  0.2967  0.0200
  431OD       C 2152   1.399   5.822   2.375 -0.2331  0.0886  0.1910
  431OD       C 2153   1.772   5.612   2.110  0.0174  0.0637 -0.0132
  431OD       C 2154   2.165   5.746   2.004 -0.4056 -0.0178  0.0024
  431OD       C 2155   2.506   5.958   2.326  0.2005  0.4762 -0.1294
  432OD       C 2156   7.718   0.153   1.062 -0.0517 -0.1358 -0.1528
  432OD       C 2157   7.297   0.456   1.228  0.1695 -0.0714 -0.2273
  432OD       C 2158   6.862   0.626   1.096  0.5702 -0.0129  0.0510
  432OD       C 2159   6.492   0.402   1.024 -0.1436 -0.1351 -0.2501
  432OD       C 2160   6.047   0.455   0.861 -0.2506 -0.1647 -0.0904
  433OD       C 2161   7.179   1.344   2.042  0.1202  0.1733 -0.0401
  433OD       C 2162   7.149   1.188   2.367 -0.0477  0.2910 -0.2610
  433OD       C 2163   7.292   0.903   2.765 -0.0614 -0.1214 -0.0834
  433OD       C 2164   7.013   0.713   3.053 -0.1285  0.0376 -0.1927
  433OD       C 2165   6.825   0.509   3.419 -0.1811  0.1431  0.1094
  434OD       C 2166   0.868   7.085   7.007  0.1094  0.3466  0.1030
  434OD       C 2167   0.607   6.927   7.277 -0.2405  0.2505 -0.0114
  434OD       C 2168   0.543   6.492   7.319  0.0215 -0.2228  0.0467
  434OD       C 2169   0.342   6.237   7.174 -0.2173  0.0153 -0.1961
  434OD       C 2170   0.402   6.187   6.759  0.1627 -0.1644 -0.0449
  435OD       C 2171   4.655   3.218   3.152 -0.2387 -0.4678  0.0786
  435OD       C 2172   4.374   3.422   3.372 -0.2972 -0.4464 -0.0275
  435OD       C 2173   4.333   3.653   3.750 -0.1759  0.1445  0.0969
  435OD       C 2174   4.383   3.888   4.136  0.3270 -0.0306  0.1946
  435OD       C 2175   4.553   4.268   4.309 -0.0355 -0.0283 -0.0174
  436OD       C 2176   6.142   6.103   4.487 -0.1406  0.2962 -0.0002
  436OD       C 2177   5.671   6.071   4.532  0.1515  0.1845 -0.2072
  436OD       C 2178   5.239   6.234   4.773  0.2260 -0.1768 -0.2451
  436OD       C 2179   4.937   6.088   5.143 -0.4082  0.0575  0.1136
  436OD       C 2180   4.534   5.856   5.270  0.0871 -0.2179  0.0485
  437OD       C 2181   5.277   3.824   4.278 -0.2259 -0.0896 -0.0207
  437OD       C 2182   5.269   3.581   4.683 -0.3820  0.1746  0.1895
  437OD       C 2183   5.392   3.163   4.711  0.0474  0.1193  0.0188
  437OD       C 2184   5.726   2.931   4.592  0.1859 -0.0200 -0.0220
  437OD       C 2185   6.007   2.690   4.362 -0.0457  0.1511 -0.1888
  438OD       C 2186   4.850   1.882   2.668 -0.1031  0.0121 -0.0952
  438OD       C 2187   4.775   1.580   2.942  0.1039  0.1887 -0.3421
  438OD       C 2188   4.946   1.271   3.301  0.0796  0.5527 -0.3068
  438OD       C 2189   5.140   1.228   3.675 -0.0409 -0.1919 -0.0578
  438OD       C 2190   5.590   1.264   3.637 -0.0036 -0.1535 -0.2425
  439OD       C 2191   1.789   5.354   6.379 -0.2802  0.1311  0.2279
  439OD       C 2192   1.917   5.317   5.944 -0.0222  0.1447 -0.1488
  439OD       C 2193   2.027   5.275   5.538  0.2174 -0.2632 -0.1283
  439OD       C 2194   2.343   5.239   5.432  0.0591 -0.2975 -0.1042
  439OD       C 2195   2.749   5.157   5.558  0.0883  0.2410 -0.1759
  440OD       C 2196   0.562   4.984   3.864 -0.1716 -0.2139 -0.2131
  440OD       C 2197   0.900   4.826   4.050  0.0129  0.0379  0.1946
  440OD       C 2198   1.358   4.846   4.283  0.0380 -0.1271  0.2155
  440OD       C 2199   1.780   4.502   4.319  0.3375 -0.1262  0.0451
  440OD       C 2200   2.285   4.441   4.139  0.2460 -0.2294 -0.4090
  441OD       C 2201   5.525   0.401   6.470 -0.1040  0.0417  0.1681
  441OD       C 2202   5.325   0.758   6.649 -0.2192 -0.1822 -0.2983
  441OD       C 2203   5.188   1.055   6.375 -0.2075 -0.0677  0.0182
  441OD       C 2204   5.335   1.217   6.030 -0.1055  0.0044  0.2187
  441OD       C 2205   5.592   1.451   5.671  0.0758  0.0208 -0.2084
  442OD       C 2206   5.275   5.082   2.943 -0.0421 -0.1110 -0.0569
  442OD       C 2207   5.189   5.475   3.144 -0.0774  0.0252 -0.0548
  442OD       C 2208   5.042   5.556   3.574 -0.1911 -0.3534  0.1310
  442OD       C 2209   5.337   5.900   3.862  0.3464  0.3953 -0.1125
  442OD       C 2210   5.738   6.132   4.003 -0.0178  0.1003 -0.0232
  443OD       C 2211   6.970   6.152   4.957  0.1300 -0.2110  0.3034
  443OD       C 2212   7.267   6.099   5.248  0.2117  0.0074 -0.0177
  443OD       C 2213   7.547   6.007   5.499  0.0053  0.1728  0.0030
  443OD       C 2214   7.929   5.807   5.739 -0.0644  0.1199 -0.0184
  443OD       C 2215   8.307   5.736   6.012  0.0513  0.1945  0.1374
  444OD       C 2216   2.264   4.002   5.049  0.0008 -0.0022  0.2140
  444OD       C 2217   2.540   4.293   5.234 -0.0973 -0.1890  0.2234
  444OD       C 2218   2.755   4.366   5.561 -0.0016  0.1110  0.0217
  444OD       C 2219   3.150   4.524   5.713 -0.1390 -0.1134  0.1093
  444OD       C 2220   3.500   4.272   5.810 -0.1949 -0.0576 -0.2187
  445OD       C 2221   8.337   5.353   1.102  0.1738  0.0183 -0.2052
  445OD       C 2222   8.088   5.150   0.985 -0.0346 -0.2941  0.2766
  445OD       C 2223   7.906   4.870   0.786 -0.2534 -0.4246 -0.1423
  445OD       C 2224   7.720   4.571   0.472  0.2667  0.1573 -0.0422
  445OD       C 2225   7.292   4.322   0.315 -0.0234 -0.0291 -0.0558
  446OD       C 2226   5.966   3.025   4.007 -0.0225  0.0748 -0.1141
  446OD       C 2227   6.264   3.329   3.783 -0.1492  0.3366 -0.2592
  446OD       C 2228   6.565   3.478   3.505 -0.3310  0.0700 -0.0736
  446OD       C 2229   6.966   3.569   3.299 -0.0824  0.1653 -0.0462
  446OD       C 2230   7.294   3.774   3.589 -0.4073 -0.0064  0.1075
  447OD       C 2231   0.531   3.409   6.642 -0.4502  0.1919  0.0023
  447OD       C 2232   0.584   3.590   7.075  0.0777 -0.2292  0.0547
  447OD       C 2233   0.247   3.694   7.430 -0.1358  0.0615 -0.1672
  447OD       C 2234  -0.185   3.842   7.585  0.1657  0.4420  0.1691
  447OD       C 2235  -0.529   3.914   7.848 -0.2032 -0.1487 -0.0273
  448OD       C 2236   1.438   3.849   3.082  0.0797  0.0316 -0.3245
  448OD       C 2237   1.283   3.908   2.597 -0.0507  0.2594 -0.0102
  448OD       C 2238   1.066   3.687   2.210  0.0880  0.1400  0.5187
  448OD       C 2239   1.332   3.609   1.814  0.1428  0.0536  0.0291
  448OD       C 2240   1.641   3.457   1.577 -0.1189 -0.2095 -0.2047
  449OD       C 2241   5.142   0.576   0.133 -0.0515  0.2032 -0.4870
  449OD       C 2242   5.072   0.931  -0.156  0.3352  0.0923 -0.1832
  449OD       C 2243   4.679   1.259  -0.195 -0.0781  0.2478  0.1828
  449OD       C 2244   4.276   1.367  -0.230  0.2459  0.0006 -0.0933
  449OD       C 2245   3.984   0.992  -0.086 -0.2077  0.0814  0.0680
  450OD       C 2246   9.089   5.083   3.655  0.2728  0.1280 -0.0403
  450OD       C 2247   9.381   4.761   3.574 -0.3084  0.1433 -0.1312
  450OD       C 2248   9.739   4.755   3.458 -0.0017 -0.1112 -0.1754
  450OD       C 2249   9.874   4.462   3.643 -0.0246  0.0435  0.1864
  450OD       C 2250  10.088   4.420   4.014  0.0997 -0.1965  0.0757
  451OD       C 2251   7.362   3.039   4.805 -0.3748 -0.3122 -0.0354
  451OD       C 2252   6.951   2.809   4.992  0.0583  0.2599  0.1722
  451OD       C 2253   6.568   2.940   5.103  0.0296  0.1725  0.1040
  451OD       C 2254   6.477   3.155   5.403 -0.1324 -0.0968  0.3369
  451OD       C 2255   6.408   3.207   5.777 -0.3131 -0.1741 -0.2704
  452OD       C 2256   6.670   6.107   6.176  0.1122 -0.3589  0.1810
  452OD       C 2257   6.326   6.461   6.221  0.0695 -0.0304 -0.1198
  452OD       C 2258   5.970   6.467   6.403 -0.1572  0.0273 -0.0413
  452OD       C 2259   5.636   6.234   6.662 -0.2219  0.1589  0.0737
  452OD       C 2260   5.824   6.068   7.121  0.1026 -0.0188 -0.1042
  453OD       C 2261   4.760   6.758   1.418  0.2544  0.0538  0.0946
  453OD       C 2262   4.825   6.986   1.071  0.2095  0.4924  0.0337
  453OD       C 2263   4.713   7.325   0.773 -0.1205  0.3346 -0.0857
  453OD       C 2264   4.342   7.579   0.751  0.0867 -0.0787  0.2081
  453OD       C 2265   4.137   7.697   0.404  0.0868 -0.3564  0.1721
  454OD       C 2266   7.721   5.322   0.569  0.0360 -0.1548 -0.0056
  454OD       C 2267   7.692   5.481   0.925  0.0846 -0.2630  0.0958
  454OD       C 2268   7.282   5.548   0.980  0.1019  0.1830  0.0541
  454OD       C 2269   6.809   5.526   0.908 -0.1310  0.1909 -0.1621
  454OD       C 2270   6.495   5.323   0.845 -0.0992  0.0706 -0.1065
  455OD       C 2271   3.664   3.082   5.122  0.0942 -0.0747 -0.0262
  455OD       C 2272   3.143   3.266   5.212  0.1610 -0.0552 -0.0222
  455OD       C 2273   2.897   3.372   4.921 -0.1460  0.3937 -0.3132
  455OD       C 2274   2.523   3.648   4.754  0.1283 -0.0145  0.0181
  455OD       C 2275   2.365   4.122   4.546  0.0671 -0.1126  0.1231
  456OD       C 2276   7.310   3.440   5.737  0.1716 -0.1664  0.0497
  456OD       C 2277   7.513   3.109   5.775  0.2012  0.1081  0.0130
  456OD       C 2278   7.295   2.675   5.773  0.1394 -0.0212 -0.1389
  456OD       C 2279   6.935   2.369   5.871 -0.0466  0.2989 -0.1914
  456OD       C 2280   6.522   2.337   5.725 -0.3539 -0.2746 -0.0691
  457OD       C 2281   5.408   1.949   0.072 -0.0558  0.0780 -0.1717
  457OD       C 2282   5.467   1.751  -0.310  0.1745  0.2668  0.1973
  457OD       C 2283   5.680   1.663  -0.714  0.5331 -0.0158 -0.0871
  457OD       C 2284   5.812   1.358  -0.907  0.1492  0.2736 -0.1707
  457OD       C 2285   5.721   0.877  -0.826 -0.1857 -0.0979 -0.0104
  458OD       C 2286   7.494   3.702   0.133  0.0430 -0.1762 -0.0570
  458OD       C 2287   7.328   3.803   0.522 -0.2857 -0.0539 -0.0518
  458OD       C 2288   7.090   3.980   0.896  0.1778  0.0814 -0.0840
  458OD       C 2289   7.050   4.276   1.222 -0.2071 -0.0907  0.2965
  458OD       C 2290   7.177   4.732   1.194  0.4608 -0.0978  0.1133
  459OD       C 2291   6.343   2.863   4.633 -0.4551 -0.0497 -0.2643
  459OD       C 2292   6.609   2.522   4.482  0.1021 -0.2413  0.4572
  459OD       C 2293   6.887   2.181   4.249 -0.1273  0.2004 -0.2044
  459OD       C 2294   7.056   1.776   4.279  0.1366 -0.4199  0.0405
  459OD       C 2295   7.422   1.665   4.083  0.1794  0.3222 -0.3134
  460OD       C 2296   7.832   6.052   1.726  0.3692  0.3251  0.0243
  460OD       C 2297   7.997   6.324   1.497  0.1837  0.1005  0.0056
  460OD       C 2298   8.229   6.553   1.238  0.1992  0.0847  0.0033
  460OD       C 2299   8.271   6.841   0.771 -0.1355  0.1347  0.3956
  460OD       C 2300   8.282   6.932   0.356  0.1216 -0.0447  0.1229
  461OD       C 2301   2.189   0.044   5.532 -0.2966 -0.0799  0.0521
  461OD       C 2302   2.011  -0.188   5.150 -0.0329  0.2328  0.0404
  461OD       C 2303   1.767  -0.563   5.036 -0.1178 -0.2298 -0.2363
  461OD       C 2304   1.465  -0.616   4.660  0.0427 -0.0500  0.3323
  461OD       C 2305   1.414  -0.772   4.336  0.0658 -0.1283 -0.0280
  462OD       C 2306   9.030   0.939   5.852 -0.1465 -0.4702 -0.2195
  462OD       C 2307   9.134   1.324   6.069  0.2451  0.0581 -0.0283
  462OD       C 2308   9.187   1.848   6.150 -0.3159 -0.0052 -0.0492
  462OD       C 2309   9.123   2.183   5.832  0.1249 -0.1145 -0.1451
  462OD       C 2310   8.834   2.483   5.690 -0.0249 -0.0845 -0.0810
  463OD       C 2311   2.022   3.952   6.457  0.1275  0.0261  0.0665
  463OD       C 2312   1.999   3.807   6.768 -0.2867 -0.0785  0.1982
  463OD       C 2313   1.956   3.702   7.181 -0.0643  0.0573  0.3085
  463OD       C 2314   1.990   3.882   7.541 -0.2522  0.1410 -0.0174
  463OD       C 2315   2.099   4.310   7.657 -0.0942 -0.0838  0.0851
  464OD       C 2316   2.066   3.060   5.432 -0.0915 -0.1048 -0.0956
  464OD       C 2317   1.725   2.700   5.161 -0.0742  0.0193  0.1028
  464OD       C 2318   1.398   2.558   4.889 -0.0511 -0.0047 -0.0069
  464OD       C 2319   0.980   2.681   4.846  0.1382  0.0938 -0.1785
  464OD       C 2320   0.761   2.851   5.135  0.1203 -0.1408  0.0670
  465OD       C 2321   4.901   1.956   1.867  0.0512  0.1979 -0.0086
  465OD       C 2322   4.758   2.373   1.964  0.2436  0.0285 -0.3832
  465OD       C 2323   4.441   2.821   1.928  0.2241  0.0358 -0.0948
  465OD       C 2324   4.277   2.950   1.513 -0.0248 -0.1961 -0.1187
  465OD       C 2325   4.235   3.209   1.241 -0.0678  0.0251 -0.1088
  466OD       C 2326   8.011   6.972   2.272  0.0901  0.0497 -0.1777
  466OD       C 2327   8.347   7.241   2.698  0.0255  0.1922 -0.4384
  466OD       C 2328   8.582   7.558   2.947 -0.0982  0.0870 -0.1275
  466OD       C 2329   8.632   7.611   3.379 -0.0880 -0.2975 -0.2536
  466OD       C 2330   8.313   7.670   3.606  0.0285 -0.1203 -0.3842
  467OD       C 2331   8.084   5.306   6.353 -0.3209 -0.0495 -0.0062
  467OD       C 2332   7.963   4.874   6.541  0.0316 -0.3166 -0.3530
  467OD       C 2333   7.961   4.415   6.734 -0.2855  0.4162 -0.1536
  467OD       C 2334   7.930   4.059   6.850 -0.0084 -0.1011  0.2649
  467OD       C 2335   8.001   3.729   7.225 -0.3954 -0.0243  0.0566
  468OD       C 2336   6.614   0.859   4.206 -0.1020  0.0624 -0.0763
  468OD       C 2337   6.456   0.633   3.864  0.2710  0.1944 -0.0812
  468OD       C 2338   6.202   0.540   3.468 -0.1469  0.2019 -0.0515
  468OD       C 2339   5.819   0.782   3.434  0.0535  0.1879  0.0764
  468OD       C 2340   5.392   0.678   3.523 -0.0462  0.1326  0.2822
  469OD       C 2341   3.840   6.488   2.345 -0.2174  0.0759  0.1053
  469OD       C 2342   3.629   6.678   2.069  0.1571 -0.2073  0.1925
  469OD       C 2343   3.671   6.725   1.656 -0.1233  0.2012 -0.2879
  469OD       C 2344   3.462   6.843   1.312  0.0407 -0.1056 -0.0221
  469OD       C 2345   3.186   7.017   1.114 -0.1870  0.2644 -0.0793
  470OD       C 2346   9.510   0.759   4.352 -0.3898 -0.0524  0.2491
  470OD       C 2347   9.739   0.562   3.951  0.1907 -0.0847  0.2125
  470OD       C 2348   9.844   0.831   3.579  0.0131  0.0957 -0.2861
  470OD       C 2349  10.233   1.040   3.547  0.0780 -0.0419 -0.2248
  470OD       C 2350  10.569   1.085   3.281  0.1306 -0.1916  0.0113
  471OD       C 2351   7.408   0.929   4.998  0.1332  0.2379 -0.1673
  471OD       C 2352   7.272   0.498   5.132 -0.3022  0.0080 -0.3764
  471OD       C 2353   6.930   0.239   5.355  0.2472 -0.2117  0.1917
  471OD       C 2354   6.604  -0.006   5.604  0.2729 -0.2129 -0.1421
  471OD       C 2355   6.441  -0.438   5.852 -0.0202 -0.3800 -0.0773
  472OD       C 2356   8.143   2.659   0.600 -0.2179 -0.1939 -0.0226
  472OD       C 2357   7.961   2.756   0.915  0.0803  0.0674 -0.0338
  472OD       C 2358   7.977   2.931   1.314 -0.0631  0.3779  0.2484
  472OD       C 2359   8.078   2.836   1.692  0.0286  0.0702  0.2004
  472OD       C 2360   8.284   2.489   1.929  0.1742  0.3086  0.1070
  473OD       C 2361   3.298   6.242   1.789 -0.0157 -0.1820 -0.4350
  473OD       C 2362   3.770   6.252   1.748 -0.0268 -0.2669  0.1996
  473OD       C 2363   4.001   5.761   1.753  0.0833  0.1719 -0.0321
  473OD       C 2364   4.037   5.436   1.489  0.0088 -0.2086 -0.0644
  473OD       C 2365   4.168   4.991   1.361  0.1944  0.2120  0.1477
  474OD       C 2366   7.673   4.027   2.425  0.1106  0.3505 -0.0492
  474OD       C 2367   7.981   3.721   2.530  0.0840  0.0853 -0.1029
  474OD       C 2368   8.384   3.550   2.556  0.0688  0.0215 -0.2102
  474OD       C 2369   8.812   3.497   2.499 -0.3020  0.0920  0.1919
  474OD       C 2370   9.316   3.539   2.346 -0.3240  0.0916  0.0055
  475OD       C 2371   2.394   0.432   4.140  0.2341 -0.0120  0.0996
  475OD       C 2372   2.357   0.015   3.967  0.0056 -0.0276 -0.0244
  475OD       C 2373   2.289  -0.374   3.768 -0.2755 -0.2330  0.0346
  475OD       C 2374   2.444  -0.745   3.516  0.0674  0.1593  0.2091
  475OD       C 2375   2.336  -1.191   3.302 -0.2276 -0.0467 -0.2790
  476OD       C 2376   1.550   5.390   3.541  0.1828 -0.3749  0.2251
  476OD       C 2377   1.701   5.019   3.589  0.2569  0.0913 -0.1943
  476OD       C 2378   1.781   4.729   3.763  0.0557 -0.2489 -0.2390
  476OD       C 2379   1.766   4.341   3.838 -0.0656  0.2148  0.2372
  476OD       C 2380   1.965   4.029   4.141 -0.1902  0.0331  0.1549
  477OD       C 2381   2.570   3.298   1.926  0.0240  0.0348 -0.4246
  477OD       C 2382   2.501   3.236   1.476 -0.0483  0.2025 -0.0682
  477OD       C 2383   2.357   2.902   1.349  0.3109 -0.4291 -0.0730
  477OD       C 2384   1.908   2.799   1.417  0.1092  0.0608  0.0206
  477OD       C 2385   1.597   2.465   1.493 -0.0225 -0.2323  0.0907
  478OD       C 2386   7.178   5.418   0.555 -0.0057  0.0083  0.0134
  478OD       C 2387   7.386   5.756   0.523  0.2421 -0.0103  0.3899
  478OD       C 2388   7.723   5.888   0.632  0.1774 -0.3829 -0.0590
  478OD       C 2389   7.934   5.927   0.238  0.0330 -0.1611 -0.2535
  478OD       C 2390   8.210   5.792  -0.139  0.1684  0.3660  0.1410
  479OD       C 2391   8.055   0.574   7.196  0.0278  0.1047 -0.1601
  479OD       C 2392   8.318   0.599   6.817 -0.0742  0.0837 -0.0919
  479OD       C 2393   8.604   0.716   6.467  0.1011 -0.0722  0.0861
  479OD       C 2394   8.918   0.644   6.256  0.0806 -0.1634  0.0303
  479OD       C 2395   9.193   0.476   5.980 -0.1470 -0.0017 -0.0631
  480OD       C 2396   0.635   5.940   1.699  0.0990 -0.2116 -0.0779
  480OD       C 2397   0.662   6.108   2.042 -0.0922  0.2587  0.0006
  480OD       C 2398   0.901   6.479   2.243 -0.3393  0.1768  0.0327
  480OD       C 2399   1.183   6.847   2.001  0.1000  0.1943  0.0047
  480OD       C 2400   1.271   6.926   1.627  0.1275 -0.0527 -0.0351
  481OD       C 2401   3.242   6.910   5.075  0.1471 -0.0224 -0.0363
  481OD       C 2402   3.003   6.782   4.695 -0.0310 -0.0530  0.0045
  481OD       C 2403   2.986   6.581   4.312  0.0960  0.0420  0.0416
  481OD       C 2404   2.941   6.417   3.892 -0.0161  0.1688 -0.1311
  481OD       C 2405   2.791   6.045   3.588 -0.0464  0.0903  0.1309
  482OD       C 2406   9.411   6.954   4.956  0.2955  0.0305  0.0110
  482OD       C 2407   9.534   7.278   5.148 -0.1135  0.1806  0.0374
  482OD       C 2408   9.514   7.632   5.418  0.1792 -0.1612 -0.4655
  482OD       C 2409   9.802   7.931   5.583  0.1796 -0.0258  0.0950
  482OD       C 2410  10.255   8.002   5.685 -0.2621 -0.1526  0.1030
  483OD       C 2411   1.650   1.740   2.966  0.0713 -0.0620 -0.0263
  483OD       C 2412   1.447   1.410   2.597 -0.1490  0.0536  0.1120
  483OD       C 2413   1.417   1.247   2.226  0.1686 -0.0285  0.1763
  483OD       C 2414   1.178   1.161   1.904  0.2375 -0.2212  0.1487
  483OD       C 2415   0.792   1.030   1.981 -0.0192 -0.1871 -0.1941
  484OD       C 2416   7.058   3.990   7.048 -0.0001 -0.1976 -0.0504
  484OD       C 2417   6.730   4.139   6.628 -0.1793  0.2484  0.2461
  484OD       C 2418   6.452   4.410   6.413 -0.1725  0.4587 -0.0622
  484OD       C 2419   6.412   4.619   6.195 -0.1746  0.0832  0.1408
  484OD       C 2420   6.310   5.070   6.013  0.2447  0.0464 -0.1639
  485OD       C 2421   2.849   1.896   0.606 -0.0013  0.0266 -0.2205
  485OD       C 2422   3.175   2.226   0.368 -0.0873  0.0037  0.1007
  485OD       C 2423   3.611   2.368   0.320 -0.1026 -0.0406  0.0793
  485OD       C 2424   4.071   2.304   0.496 -0.1928 -0.0081  0.3027
  485OD       C 2425   4.460   2.177   0.424 -0.2501  0.0849 -0.1262
  486OD       C 2426   3.006   3.658   2.694  0.0273 -0.3708  0.0016
  486OD       C 2427   3.040   3.854   2.388  0.0540  0.3219  0.0164
  486OD       C 2428   2.939   4.209   2.074  0.2297  0.1612  0.0659
  486OD       C 2429   2.682   4.538   1.772  0.2068  0.4323 -0.0020
  486OD       C 2430   2.854   4.846   1.534 -0.3852 -0.0759 -0.1049
  487OD       C 2431   8.148   6.035   1.101  0.4559  0.3785 -0.2326
  487OD       C 2432   7.734   5.990   1.149  0.0312 -0.0487  0.1639
  487OD       C 2433   7.347   6.095   0.980 -0.2741 -0.0702  0.1580
  487OD       C 2434   6.986   5.968   0.873  0.3134 -0.0467 -0.3068
  487OD       C 2435   6.641   6.075   0.644 -0.0630  0.0695  0.0289
  488OD       C 2436   5.277   4.724   5.700  0.0588  0.3639  0.1493
  488OD       C 2437   5.024   5.138   5.903 -0.1295 -0.1007  0.1997
  488OD       C 2438   4.655   5.188   6.211 -0.2106  0.0616 -0.3095
  488OD       C 2439   4.649   5.227   6.671 -0.0546 -0.1317  0.0898
  488OD       C 2440   5.017   5.450   6.884  0.2028  0.2193 -0.0364
  489OD       C 2441   7.714   5.621   6.823 -0.3264 -0.0894  0.1259
  489OD       C 2442   7.774   6.095   6.878 -0.1054  0.1339  0.1650
  489OD       C 2443   7.889   6.525   7.142 -0.0972 -0.0940 -0.0742
  489OD       C 2444   8.200   6.848   6.937 -0.0691  0.0202 -0.0750
  489OD       C 2445   8.600   6.801   6.757 -0.1301  0.1606  0.1503
  490OD       C 2446   4.772   4.358   6.558  0.1566  0.0694 -0.2650
  490OD       C 2447   5.135   4.477   6.672  0.1515  0.0524 -0.2683
  490OD       C 2448   5.165   4.818   6.976 -0.2009  0.0432 -0.1054
  490OD       C 2449   5.272   5.187   7.227 -0.2760  0.0849 -0.0844
  490OD       C 2450   5.412   5.398   7.559 -0.0353  0.0320 -0.0031
  491OD       C 2451   5.781   1.862   4.817 -0.1352 -0.0062 -0.0827
  491OD       C 2452   6.150   1.707   4.625  0.0733 -0.1408  0.0539
  491OD       C 2453   6.562   1.828   4.395  0.4144 -0.2024  0.3323
  491OD       C 2454   6.535   1.867   3.932 -0.1110  0.2464 -0.2459
  491OD       C 2455   6.236   1.771   3.662  0.0357  0.2302 -0.1819
  492OD       C 2456   3.059   3.237   2.961 -0.3385  0.1820  0.2311
  492OD       C 2457   2.966   3.310   3.441 -0.1229 -0.1253 -0.2879
  492OD       C 2458   2.967   2.980   3.815 -0.3431 -0.0131 -0.0899
  492OD       C 2459   2.561   2.946   4.098 -0.1052 -0.2355 -0.0202
  492OD       C 2460   2.035   2.984   4.226 -0.0326  0.1639  0.2822
  493OD       C 2461   4.818   1.480   3.998 -0.0013  0.0131 -0.1758
  493OD       C 2462   5.149   1.641   4.111 -0.1719 -0.1263  0.3315
  493OD       C 2463   5.358   1.984   4.001 -0.1805 -0.2205  0.1156
  493OD       C 2464   5.436   2.203   3.649  0.0062  0.0274 -0.1815
  493OD       C 2465   5.377   2.413   3.288  0.3777  0.2393  0.2977
  494OD       C 2466   7.641   6.729   1.631  0.0826 -0.0988  0.1008
  494OD       C 2467   7.750   7.145   1.895 -0.0080 -0.0524 -0.3321
  494OD       C 2468   7.911   7.425   2.239 -0.0721  0.0546  0.1289
  494OD       C 2469   7.862   7.399   2.726 -0.2138  0.0621  0.1231
  494OD       C 2470   7.604   7.684   2.978  0.0846 -0.0919  0.0160
  495OD       C 2471   3.208   1.105   1.272  0.0489  0.1862  0.0033
  495OD       C 2472   3.158   0.987   1.677  0.2282 -0.1675 -0.2014
  495OD       C 2473   2.912   0.716   1.962  0.0647  0.1390  0.1505
  495OD       C 2474   2.959   0.985   2.409  0.2445 -0.2662  0.1182
  495OD       C 2475   2.963   1.423   2.665 -0.2106 -0.1566  0.1135
  496OD       C 2476   3.793   5.298   0.184 -0.1802 -0.0270 -0.0268
  496OD       C 2477   3.859   5.008   0.576  0.0643 -0.1253 -0.1147
  496OD       C 2478   3.885   5.172   0.962 -0.2326  0.1344 -0.2937
  496OD       C 2479   3.705   5.082   1.396 -0.1606  0.0996  0.4848
  496OD       C 2480   3.303   5.082   1.337  0.0015 -0.0058 -0.0203
  497OD       C 2481   9.115   1.073   5.233  0.0168  0.0653  0.0514
  497OD       C 2482   9.091   1.496   5.188 -0.0915  0.1913  0.1013
  497OD       C 2483   9.115   1.604   4.760  0.3192 -0.1496  0.0788
  497OD       C 2484   9.204   1.677   4.344 -0.0085 -0.4313  0.0946
  497OD       C 2485   9.220   1.835   3.941  0.1697 -0.2853 -0.0319
  498OD       C 2486   3.589   4.164   0.496  0.2973  0.1368  0.1545
  498OD       C 2487   3.661   4.562   0.325  0.0467  0.1418 -0.0379
  498OD       C 2488   3.663   4.791  -0.050 -0.0245  0.0237  0.0159
  498OD       C 2489   3.521   5.228  -0.338  0.2157 -0.1607  0.1040
  498OD       C 2490   3.598   5.634  -0.502  0.2689  0.4016 -0.1677
  499OD       C 2491   0.963   2.956   4.088  0.0413  0.2047  0.2420
  499OD       C 2492   0.757   3.185   3.745 -0.1612  0.0360  0.4239
  499OD       C 2493   0.829   3.646   3.747  0.2324 -0.2146  0.0851
  499OD       C 2494   0.873   4.108   3.815  0.1904 -0.0040 -0.0924
  499OD       C 2495   0.842   4.484   3.608  0.0112  0.1244  0.2086
  500OD       C 2496   4.814   1.738   4.515  0.0871  0.0113  0.0576
  500OD       C 2497   4.436   1.578   4.743 -0.1117  0.1574 -0.2754
  500OD       C 2498   4.130   1.254   4.700  0.2505 -0.4019 -0.1135
  500OD       C 2499   4.023   0.853   4.634 -0.0290 -0.0742 -0.0909
  500OD       C 2500   3.826   0.496   4.429  0.1944 -0.2210  0.2753
  501OD       C 2501   4.273   4.697   4.191  0.3109  0.1581 -0.0406
  501OD       C 2502   4.654   4.693   4.033 -0.0316 -0.0084 -0.1899
  501OD       C 2503   4.918   4.627   3.638 -0.1803 -0.2494 -0.3817
  501OD       C 2504   5.292   4.611   3.262  0.2672  0.2738  0.3005
  501OD       C 2505   5.649   4.305   3.087 -0.0944 -0.4665 -0.2678
  502OD       C 2506   0.494   5.897   3.420  0.0189  0.2492  0.0472
  502OD       C 2507   0.692   5.915   3.018  0.1888  0.2786  0.2336
  502OD       C 2508   1.032   5.656   2.835 -0.0103 -0.2857 -0.1007
  502OD       C 2509   1.292   5.339   2.781  0.0184  0.1036 -0.0652
  502OD       C 2510   1.329   4.899   2.489 -0.1852 -0.0648  0.0426
  503OD       C 2511   4.337   2.959   4.425 -0.0789  0.2558 -0.0347
  503OD       C 2512   4.256   3.155   4.014 -0.1156 -0.1478 -0.0677
  503OD       C 2513   4.102   3.108   3.673 -0.2665  0.0110 -0.0341
  503OD       C 2514   4.222   2.881   3.330  0.1610 -0.1503  0.1768
  503OD       C 2515   4.283   2.459   3.243  0.0848  0.0933  0.2179
  504OD       C 2516   1.483   1.277   3.078  0.0421 -0.1592  0.1497
  504OD       C 2517   1.487   1.125   3.535 -0.0205  0.2356 -0.0172
  504OD       C 2518   1.140   0.942   3.785 -0.2066  0.2214 -0.2086
  504OD       C 2519   0.866   0.739   3.908  0.0126  0.3872  0.0848
  504OD       C 2520   0.806   0.683   4.391  0.0549 -0.1275  0.4265
  505OD       C 2521   7.585   6.462   5.657  0.1472 -0.0270 -0.0827
  505OD       C 2522   7.525   6.242   6.040 -0.0149  0.2189 -0.0060
  505OD       C 2523   7.121   5.855   6.006  0.1832 -0.1127 -0.1558
  505OD       C 2524   6.684   5.690   5.930  0.1467  0.0098  0.0549
  505OD       C 2525   6.582   5.403   5.763  0.0645 -0.3820  0.0598
  506OD       C 2526   1.575   0.397   2.279  0.0781  0.3963 -0.3510
  506OD       C 2527   1.196   0.415   1.982  0.1972 -0.1156  0.1641
  506OD       C 2528   0.960   0.670   1.567  0.0684  0.1077 -0.0718
  506OD       C 2529   1.156   0.977   1.400 -0.2563  0.1652 -0.0793
  506OD       C 2530   1.513   1.249   1.512  0.3278 -0.0413 -0.0934
  507OD       C 2531   8.958   0.935   2.083  0.0678 -0.0633 -0.1032
  507OD       C 2532   9.329   0.833   1.776 -0.0936 -0.1289 -0.2893
  507OD       C 2533   9.472   1.009   1.413  0.3306  0.0462  0.0398
  507OD       C 2534   9.755   1.315   1.279  0.0515 -0.1818 -0.1988
  507OD       C 2535  10.010   1.641   1.353 -0.1252 -0.0258 -0.0544
  508OD       C 2536   0.828   5.642   5.143  0.0205  0.2326  0.3327
  508OD       C 2537   0.848   5.769   5.549 -0.0388  0.0818 -0.2710
  508OD       C 2538   0.547   5.552   5.825  0.2533  0.0878 -0.0149
  508OD       C 2539   0.219   5.397   6.242 -0.0249 -0.2389 -0.2265
  508OD       C 2540   0.151   5.053   6.624 -0.2982  0.1463 -0.0837
  509OD       C 2541   8.153   1.461   0.521  0.0365  0.0160  0.1599
  509OD       C 2542   8.208   1.909   0.647 -0.2061  0.2612 -0.2705
  509OD       C 2543   8.448   2.247   0.459 -0.0422 -0.2473 -0.2432
  509OD       C 2544   8.915   2.230   0.497  0.2887  0.1385 -0.3039
  509OD       C 2545   9.350   2.322   0.522 -0.2879  0.0154 -0.0221
  510OD       C 2546   5.127   5.388   4.524  0.1845 -0.3553  0.1319
  510OD       C 2547   5.014   5.005   4.733  0.4733  0.1749 -0.0280
  510OD       C 2548   4.815   4.520   4.724  0.2788 -0.2881 -0.1209
  510OD       C 2549   4.902   4.082   4.614 -0.1260  0.0094  0.3145
  510OD       C 2550   4.808   3.795   4.412  0.2337  0.4093  0.0351
  511OD       C 2551   1.807   1.522   5.101 -0.0136  0.1085  0.2400
  511OD       C 2552   1.897   1.511   4.670  0.0765 -0.2499 -0.1631
  511OD       C 2553   1.815   1.555   4.354 -0.1686 -0.1198 -0.1839
  511OD       C 2554   1.404   1.460   4.343 -0.0520  0.2134 -0.1297
  511OD       C 2555   1.137   1.176   4.255 -0.2369  0.1763  0.4680
  512OD       C 2556   4.410   0.476   3.357  0.0288 -0.2532 -0.4886
  512OD       C 2557   4.315   0.556   3.733  0.0962  0.0274 -0.1767
  512OD       C 2558   4.574   0.554   4.092  0.0104 -0.3397  0.0992
  512OD       C 2559   4.484   0.725   4.398  0.2438 -0.0742  0.1464
  512OD       C 2560   4.525   1.033   4.764 -0.2778 -0.0651 -0.1895
  513OD       C 2561   2.914   6.589   1.137 -0.5332 -0.2707  0.2224
  513OD       C 2562   2.496   6.766   0.991  0.1119 -0.1737  0.0889
  513OD       C 2563   2.397   7.189   1.007  0.2051 -0.0145  0.2358
  513OD       C 2564   2.276   7.540   0.917 -0.0173  0.0212  0.1332
  513OD       C 2565   2.372   7.960   0.794  0.2727 -0.0166  0.1120
  514OD       C 2566   5.145   4.449   2.844  0.0061  0.4293  0.1700
  514OD       C 2567   5.266   4.501   2.352  0.1723 -0.0536 -0.0605
  514OD       C 2568   5.433   4.985   2.337 -0.2756  0.6755 -0.0233
  514OD       C 2569   5.675   5.189   2.049  0.0564 -0.0565  0.2522
  514OD       C 2570   5.948   5.391   1.845  0.0176 -0.2827 -0.2536
  515OD       C 2571   2.451   3.265   6.547  0.0576  0.4143  0.0150
  515OD       C 2572   2.083   3.426   6.358  0.2897  0.0533  0.0270
  515OD       C 2573   1.860   3.304   6.707 -0.1451  0.1356  0.3774
  515OD       C 2574   1.929   3.284   7.039  0.2887 -0.1364  0.0497
  515OD       C 2575   1.899   3.020   7.394  0.1312 -0.0373  0.2327
  516OD       C 2576   4.187   3.297   1.863 -0.0723  0.2210  0.2523
  516OD       C 2577   3.826   3.040   1.952 -0.0537  0.0640  0.2147
  516OD       C 2578   3.480   3.033   1.858 -0.0981  0.0934  0.2014
  516OD       C 2579   3.096   3.013   1.618  0.0389  0.0371 -0.1612
  516OD       C 2580   2.907   2.895   1.270 -0.1435  0.0722 -0.0007
  517OD       C 2581   9.315   0.173   3.638  0.3157 -0.0881 -0.3183
  517OD       C 2582   9.588  -0.085   3.857  0.1196 -0.1248  0.1009
  517OD       C 2583   9.934  -0.116   4.108 -0.1494  0.0017 -0.1968
  517OD       C 2584  10.215   0.208   4.158 -0.0978 -0.1131  0.3802
  517OD       C 2585  10.650   0.256   4.414  0.0759 -0.1340  0.0764
  518OD       C 2586   3.208   6.242   0.298  0.0746 -0.0970  0.1605
  518OD       C 2587   3.564   6.091   0.101  0.3589  0.1093 -0.4015
  518OD       C 2588   3.863   5.931  -0.125 -0.3643 -0.1618 -0.3831
  518OD       C 2589   4.072   5.581  -0.245 -0.1568 -0.2098  0.1462
  518OD       C 2590   4.178   5.097  -0.432  0.1222 -0.0497 -0.0784
  519OD       C 2591   1.574   3.983   0.123 -0.0699 -0.2963  0.3329
  519OD       C 2592   1.612   4.055  -0.253  0.2807 -0.0022  0.1166
  519OD       C 2593   1.484   4.140  -0.761  0.1754 -0.0475 -0.1928
  519OD       C 2594   1.408   4.533  -0.911  0.1465  0.0672 -0.3321
  519OD       C 2595   1.085   4.788  -0.690  0.1516  0.1779  0.2032
  520OD       C 2596   4.909   5.691   5.526 -0.0377 -0.2615 -0.0799
  520OD       C 2597   4.882   5.598   6.001 -0.1289  0.1096  0.2510
  520OD       C 2598   5.287   5.459   6.341 -0.0165 -0.0038 -0.0586
  520OD       C 2599   5.430   5.234   6.732 -0.0616 -0.0885 -0.0828
  520OD       C 2600   5.776   5.145   6.862  0.2395 -0.1044  0.0151
  521OD       C 2601   5.354   0.719   6.022 -0.1448  0.1025  0.0082
  521OD       C 2602   5.731   0.900   5.852  0.2914 -0.2893  0.3460
  521OD       C 2603   6.101   0.670   5.749 -0.0760  0.2257  0.0407
  521OD       C 2604   6.504   0.533   5.475 -0.3165  0.2078  0.2073
  521OD       C 2605   6.709   0.637   5.093 -0.1441 -0.1687  0.3920
  522OD       C 2606   1.067   0.031   0.187  0.2349 -0.3561 -0.0795
  522OD       C 2607   1.360   0.018  -0.195  0.3569 -0.1124  0.2384
  522OD       C 2608   1.776  -0.118  -0.212 -0.0649  0.3897 -0.0634
  522OD       C 2609   1.915  -0.542  -0.198  0.1563  0.3003 -0.1269
  522OD       C 2610   1.908  -0.874  -0.473 -0.2603  0.0259 -0.1164
  523OD       C 2611   6.963   5.778   0.233  0.0688 -0.0491  0.0371
  523OD       C 2612   6.923   6.184   0.052 -0.0751  0.0249  0.0851
  523OD       C 2613   7.148   6.636   0.049 -0.4591  0.1657 -0.0797
  523OD       C 2614   7.512   6.726   0.209  0.2794 -0.5302 -0.0659
  523OD       C 2615   7.820   6.994   0.207 -0.2050  0.1302 -0.0001
  524OD       C 2616   9.253   2.218   4.262  0.3708  0.1858  0.1170
  524OD       C 2617   9.267   2.458   3.915 -0.3800 -0.2862 -0.2354
  524OD       C 2618   9.338   2.850   3.786 -0.2032  0.1479 -0.3657
  524OD       C 2619   8.954   3.180   3.596  0.1386  0.0966  0.0287
  524OD       C 2620   8.543   3.195   3.421  0.4300  0.0657  0.0235
  525OD       C 2621   6.036   4.994   4.451 -0.2369  0.0060  0.1417
  525OD       C 2622   6.154   5.222   4.070 -0.1229  0.0596  0.2209
  525OD       C 2623   6.368   5.443   3.875  0.2985 -0.0069 -0.0543
  525OD       C 2624   6.442   5.777   3.518 -0.0893  0.1994 -0.0272
  525OD       C 2625   6.663   5.665   3.095  0.1663 -0.0346  0.0074
  526OD       C 2626   6.739   1.941   6.797  0.0814  0.2334  0.0824
  526OD       C 2627   6.378   1.834   6.616 -0.0713  0.0826  0.2690
  526OD       C 2628   6.235   1.606   6.321 -0.0555  0.2090  0.1126
  526OD       C 2629   6.092   1.459   5.864 -0.1420 -0.0164 -0.1177
  526OD       C 2630   6.491   1.397   5.553 -0.3805 -0.1097  0.2120
  527OD       C 2631   5.472   6.502   6.240 -0.0352  0.0178 -0.0036
  527OD       C 2632   5.186   6.924   6.423 -0.0684  0.0052  0.0156
  527OD       C 2633   5.072   7.314   6.633 -0.1213  0.0679 -0.2146
  527OD       C 2634   4.959   7.651   6.381 -0.1054  0.2061 -0.1983
  527OD       C 2635   4.822   7.882   6.075 -0.0064 -0.2841  0.2919
  528OD       C 2636   8.705   1.407   3.758  0.1449  0.2935  0.0048
  528OD       C 2637   8.516   1.253   4.136 -0.0274 -0.1196 -0.1606
  528OD       C 2638   8.259   1.257   4.542 -0.0303  0.2084 -0.2362
  528OD       C 2639   8.159   1.565   4.878  0.0506 -0.0170  0.0229
  528OD       C 2640   8.254   1.783   5.338 -0.0047  0.0927 -0.1827
  529OD       C 2641   5.963   2.279   3.603  0.0158 -0.1421  0.0712
  529OD       C 2642   6.208   2.595   3.695 -0.0243 -0.1952  0.0178
  529OD       C 2643   6.503   2.862   4.012  0.0392  0.1475 -0.0630
  529OD       C 2644   6.893   2.793   4.156  0.0564  0.1649 -0.0723
  529OD       C 2645   7.105   2.566   4.551  0.1276 -0.2468  0.0724
  530OD       C 2646   4.171   2.474   6.133 -0.2856  0.3176 -0.0204
  530OD       C 2647   4.044   2.074   6.269  0.5554  0.4669  0.0587
  530OD       C 2648   4.360   1.798   6.479  0.0428  0.0669  0.1477
  530OD       C 2649   4.711   1.818   6.729 -0.1808  0.0357 -0.0573
  530OD       C 2650   4.981   1.714   7.025  0.1380  0.0329  0.3578
  531OD       C 2651   0.779   0.529   4.858  0.1683  0.0283 -0.0431
  531OD       C 2652   0.390   0.818   4.671 -0.1515 -0.1018  0.1070
  531OD       C 2653   0.029   0.987   4.867  0.2499  0.2074  0.2065
  531OD       C 2654   0.097   1.138   5.319  0.0186 -0.3529 -0.1576
  531OD       C 2655  -0.091   1.225   5.662 -0.0340  0.3176 -0.1023
  532OD       C 2656   6.986   0.992   1.730 -0.0219  0.0140  0.3352
  532OD       C 2657   7.045   0.770   2.125 -0.0023  0.0361  0.3112
  532OD       C 2658   6.946   0.291   2.219  0.0989 -0.0865 -0.2119
  532OD       C 2659   6.878   0.209   2.679  0.1814  0.0857  0.0748
  532OD       C 2660   7.044   0.114   3.113  0.0967  0.1778  0.2855
  533OD       C 2661   8.155   3.648   6.701  0.1842 -0.2322  0.1819
  533OD       C 2662   8.256   4.038   6.454  0.1374 -0.0133  0.3861
  533OD       C 2663   8.719   4.124   6.402 -0.2401  0.0084  0.2282
  533OD       C 2664   9.114   4.420   6.429  0.1590  0.3185 -0.0800
  533OD       C 2665   9.225   4.885   6.353  0.1011 -0.4376 -0.2294
  534OD       C 2666   0.861   1.034   0.598  0.0755  0.1769  0.2882
  534OD       C 2667   0.796   1.418   0.538  0.1230 -0.0005 -0.3810
  534OD       C 2668   0.522   1.774   0.533 -0.1265 -0.0988 -0.1002
  534OD       C 2669   0.295   2.073   0.621  0.2629 -0.1237  0.2395
  534OD       C 2670   0.113   2.437   0.909 -0.3139 -0.1109 -0.1175
  535OD       C 2671   5.224   6.339   0.456  0.0203 -0.1271  0.3970
  535OD       C 2672   5.121   6.739   0.577  0.1659 -0.0006  0.1686
  535OD       C 2673   4.886   6.999   0.472  0.1661 -0.0136  0.0664
  535OD       C 2674   4.482   7.233   0.327  0.1310 -0.0967  0.0250
  535OD       C 2675   4.203   6.978   0.631 -0.0364 -0.0121 -0.1540
  536OD       C 2676   3.801   3.530   1.069  0.2893 -0.1506  0.1681
  536OD       C 2677   3.656   3.955   0.935  0.3297 -0.0793  0.4123
  536OD       C 2678   3.633   4.410   0.961 -0.1107  0.1835 -0.0236
  536OD       C 2679   3.551   4.505   1.311 -0.3020  0.3081  0.2314
  536OD       C 2680   3.310   4.406   1.610  0.0479  0.0694  0.1723
  537OD       C 2681   1.938   5.582   5.026  0.2209 -0.0249  0.1853
  537OD       C 2682   2.197   5.826   5.402  0.1581  0.3045  0.3144
  537OD       C 2683   2.154   6.217   5.656  0.0939  0.0525 -0.2584
  537OD       C 2684   2.211   6.110   5.996 -0.1002  0.2643  0.2393
  537OD       C 2685   2.421   6.016   6.445  0.1231  0.0515 -0.0498
  538OD       C 2686   3.253   7.167   3.709 -0.1741 -0.0803  0.2056
  538OD       C 2687   3.087   7.131   3.262  0.1032  0.0695  0.0704
  538OD       C 2688   3.159   7.091   2.832  0.2256  0.0761 -0.1590
  538OD       C 2689   2.901   7.324   2.589 -0.1233 -0.0655 -0.1286
  538OD       C 2690   3.041   7.577   2.284 -0.3255 -0.2977  0.1409
  539OD       C 2691   7.987   3.499   1.306  0.1893 -0.1618  0.1349
  539OD       C 2692   8.386   3.787   1.320  0.3550 -0.0272  0.0735
  539OD       C 2693   8.537   3.865   1.734 -0.0857  0.1619  0.2697
  539OD       C 2694   8.669   3.958   2.167  0.2238  0.0780 -0.0315
  539OD       C 2695   9.075   3.959   2.439 -0.3773 -0.0258  0.2284
  540OD       C 2696   4.767   2.391   3.476 -0.1350 -0.0746 -0.1675
  540OD       C 2697   4.471   2.284   3.717 -0.1476 -0.0604 -0.1212
  540OD       C 2698   4.055   2.555   3.815  0.3307 -0.2425 -0.0632
  540OD       C 2699   3.932   2.776   4.228 -0.1244 -0.1411 -0.0375
  540OD       C 2700   3.782   3.170   4.363  0.0117 -0.0539  0.1689
  541OD       C 2701   8.037   1.384   2.514  0.2887 -0.0478  0.1537
  541OD       C 2702   8.003   1.181   2.112 -0.2412 -0.1552  0.0597
  541OD       C 2703   8.089   1.009   1.685  0.0191 -0.1578  0.0118
  541OD       C 2704   8.481   0.940   1.359 -0.0340  0.0716  0.0875
  541OD       C 2705   8.843   0.792   1.560 -0.2686 -0.1726 -0.0493
  542OD       C 2706   9.051   2.614   2.860 -0.1012 -0.0397 -0.3525
  542OD       C 2707   9.153   2.888   3.153  0.0068 -0.2513  0.0661
  542OD       C 2708   9.329   3.263   3.288  0.0860  0.0722 -0.1439
  542OD       C 2709   9.335   3.505   3.660  0.0481 -0.1412 -0.2406
  542OD       C 2710   9.157   3.862   3.945 -0.1185 -0.1115 -0.0197
  543OD       C 2711   7.415   6.176   1.497  0.0815 -0.1135  0.2001
  543OD       C 2712   7.601   6.477   1.177  0.0200 -0.0421  0.1066
  543OD       C 2713   7.845   6.808   1.085 -0.3125 -0.0638  0.0149
  543OD       C 2714   7.953   7.222   1.454 -0.0726 -0.1073  0.0658
  543OD       C 2715   8.234   7.253   1.813  0.0610  0.2536 -0.1318
  544OD       C 2716   7.769   0.475   1.467 -0.0537  0.3109 -0.1687
  544OD       C 2717   7.594   0.817   1.535  0.0028 -0.2240  0.0943
  544OD       C 2718   7.399   1.131   1.370 -0.1461  0.0445 -0.0085
  544OD       C 2719   7.441   1.552   1.363 -0.1261  0.0372  0.3207
  544OD       C 2720   7.648   1.914   1.401  0.1717  0.1220  0.1162
  545OD       C 2721   2.802   3.091   6.911 -0.1560 -0.0356 -0.0887
  545OD       C 2722   2.325   2.968   6.929 -0.0184 -0.4930 -0.7106
  545OD       C 2723   1.920   2.756   6.969  0.1881  0.2887 -0.3312
  545OD       C 2724   1.715   2.359   6.857 -0.2235 -0.1519  0.0455
  545OD       C 2725   1.344   2.179   6.889  0.1103 -0.1807  0.0227
  546OD       C 2726   1.061   5.705   0.414 -0.2662  0.1527  0.0059
  546OD       C 2727   0.807   5.815   0.548  0.4387 -0.2156 -0.3082
  546OD       C 2728   0.654   6.073   0.959 -0.2635 -0.0056 -0.0288
  546OD       C 2729   0.764   6.255   1.344 -0.0154 -0.4070  0.1128
  546OD       C 2730   1.082   6.397   1.738  0.0951 -0.2405 -0.0771
  547OD       C 2731   6.132   1.110   5.509 -0.1454  0.0082  0.3046
  547OD       C 2732   6.165   0.943   5.105  0.1483 -0.2333 -0.0020
  547OD       C 2733   5.854   0.725   4.873 -0.3756 -0.1787 -0.4011
  547OD       C 2734   5.591   0.916   4.517 -0.0198  0.0866  0.0293
  547OD       C 2735   5.210   1.126   4.346  0.3403  0.0551 -0.3687
  548OD       C 2736   3.036   0.534   6.568  0.1139  0.1501  0.0198
  548OD       C 2737   2.990   1.019   6.647 -0.2988  0.2439  0.2086
  548OD       C 2738   2.925   1.353   6.337 -0.1579  0.2981  0.1014
  548OD       C 2739   2.947   1.522   5.928  0.2642 -0.1865  0.0048
  548OD       C 2740   2.848   1.944   5.777  0.2623 -0.0855  0.1066
  549OD       C 2741   2.669   2.702   3.522  0.0182  0.3848  0.1730
  549OD       C 2742   2.550   3.075   3.295 -0.1175  0.0947 -0.2055
  549OD       C 2743   2.633   3.535   3.233 -0.1104 -0.0762 -0.1078
  549OD       C 2744   2.573   3.842   2.988 -0.0475  0.1661  0.2009
  549OD       C 2745   2.565   3.815   2.500 -0.0231 -0.0056  0.4938
  550OD       C 2746   4.921   1.958   3.657 -0.0054 -0.1004 -0.2074
  550OD       C 2747   4.728   1.692   3.466  0.0359  0.3774 -0.2013
  550OD       C 2748   4.514   1.373   3.643 -0.3393 -0.1745  0.1097
  550OD       C 2749   4.307   1.031   3.949 -0.0360  0.0061 -0.0612
  550OD       C 2750   4.039   0.776   4.065 -0.1042  0.4252  0.1936
  551OD       C 2751   6.058   0.077   0.366 -0.1997 -0.3761  0.3087
  551OD       C 2752   6.187   0.238  -0.004  0.0198 -0.2023  0.1472
  551OD       C 2753   6.522   0.548   0.060  0.3981 -0.3925 -0.0529
  551OD       C 2754   6.703   0.802  -0.199 -0.1139  0.3383 -0.1562
  551OD       C 2755   7.086   1.090  -0.045 -0.0787 -0.0862 -0.1028
  552OD       C 2756   0.384   2.496   5.384  0.2549  0.2417 -0.1983
  552OD       C 2757   0.069   2.220   5.538 -0.0351  0.0720  0.0956
  552OD       C 2758  -0.012   1.920   5.728  0.0724  0.2081 -0.3258
  552OD       C 2759  -0.327   1.702   5.638 -0.1491  0.1249  0.3357
  552OD       C 2760  -0.671   1.320   5.635  0.0550 -0.1368 -0.1168
  553OD       C 2761   0.321   5.495   2.923  0.0588 -0.2011  0.0963
  553OD       C 2762   0.699   5.424   3.128  0.2926  0.1315 -0.1472
  553OD       C 2763   1.102   5.254   3.233  0.2242  0.1707 -0.1047
  553OD       C 2764   1.469   5.068   3.113 -0.0713 -0.0846 -0.1663
  553OD       C 2765   1.690   4.890   2.885  0.0067  0.0656 -0.1818
  554OD       C 2766   0.238   3.244   1.407  0.4606 -0.2099 -0.2199
  554OD       C 2767   0.157   3.789   1.499  0.0522 -0.1021 -0.1777
  554OD       C 2768   0.526   4.103   1.466  0.0309  0.2872  0.1640
  554OD       C 2769   0.675   4.184   1.094 -0.1765 -0.1978  0.2300
  554OD       C 2770   0.550   4.071   0.616  0.2921  0.1392  0.2871
  555OD       C 2771   5.990   2.313   5.634  0.0158 -0.1639 -0.3167
  555OD       C 2772   5.739   2.373   5.947  0.1002 -0.0552 -0.1059
  555OD       C 2773   5.543   2.150   6.305  0.0068 -0.1410 -0.0427
  555OD       C 2774   5.075   2.136   6.318 -0.0749 -0.2917  0.3033
  555OD       C 2775   4.618   2.214   6.494  0.1505 -0.1756 -0.2152
  556OD       C 2776   3.245   5.768   3.361  0.0392 -0.0904  0.0133
  556OD       C 2777   3.638   5.949   3.240  0.1119  0.0805  0.1531
  556OD       C 2778   4.050   5.947   3.254  0.2118  0.0684  0.0055
  556OD       C 2779   4.446   6.180   3.103  0.1932  0.3015 -0.0160
  556OD       C 2780   4.398   6.627   3.083  0.1235 -0.1642 -0.1306
  557OD       C 2781   0.997   5.331   5.768  0.0919 -0.3015 -0.0251
  557OD       C 2782   1.326   5.420   5.977 -0.0905 -0.0670 -0.2044
  557OD       C 2783   1.616   5.701   6.090 -0.0186 -0.0332  0.0971
  557OD       C 2784   1.932   5.865   6.320 -0.0483  0.0455  0.1520
  557OD       C 2785   2.130   5.648   6.676  0.2293 -0.0240 -0.3313
  558OD       C 2786   6.086   4.400   4.576  0.1837  0.2686  0.0144
  558OD       C 2787   5.793   4.270   4.997  0.1480  0.0634  0.0204
  558OD       C 2788   5.686   3.766   5.066  0.1639  0.0932  0.2938
  558OD       C 2789   5.494   3.409   5.169  0.1271 -0.0342  0.2682
  558OD       C 2790   5.602   2.983   5.140 -0.0205 -0.1405 -0.2992
  559OD       C 2791   1.206   0.532   0.059  0.3809 -0.0730 -0.0836
  559OD       C 2792   0.827   0.671   0.192 -0.0523 -0.1514  0.0951
  559OD       C 2793   0.607   0.974   0.133 -0.3628  0.1525 -0.2282
  559OD       C 2794   0.289   1.110   0.450 -0.1384 -0.2474  0.1849
  559OD       C 2795   0.431   1.300   0.836  0.1030 -0.1785  0.2873
  560OD       C 2796   1.522   5.614   3.085  0.0622  0.3108 -0.0128
  560OD       C 2797   1.850   5.459   2.710 -0.2239  0.1462  0.3394
  560OD       C 2798   2.138   5.448   2.428 -0.2738 -0.1862 -0.2936
  560OD       C 2799   2.562   5.489   2.515  0.0959 -0.1315 -0.2383
  560OD       C 2800   2.928   5.770   2.644 -0.0519 -0.0272 -0.0124
  561OD       C 2801   7.667   5.156   1.321 -0.0582 -0.2436 -0.1187
  561OD       C 2802   7.776   5.229   1.740 -0.2581 -0.1692  0.3969
  561OD       C 2803   7.621   5.692   1.944 -0.0672 -0.2514 -0.2632
  561OD       C 2804   7.247   5.886   1.906  0.2100  0.0768  0.3057
  561OD       C 2805   6.908   6.279   1.893 -0.0085 -0.0673 -0.3676
  562OD       C 2806   3.321   6.774   3.972  0.0326  0.1380 -0.1567
  562OD       C 2807   3.345   6.678   3.608 -0.2988  0.0641 -0.4411
  562OD       C 2808   3.401   6.789   3.139  0.2605 -0.3694  0.0986
  562OD       C 2809   3.513   6.576   2.751 -0.4470  0.5366  0.1939
  562OD       C 2810   3.398   6.292   2.444  0.0944 -0.0740 -0.4004
  563OD       C 2811   6.573   1.558   0.677  0.1442 -0.1215  0.0977
  563OD       C 2812   7.039   1.680   0.602  0.2771 -0.1988  0.1563
  563OD       C 2813   7.438   1.745   0.629 -0.2242  0.2004 -0.2948
  563OD       C 2814   7.701   1.929   0.545 -0.0712  0.1285  0.0750
  563OD       C 2815   8.010   2.032   0.228 -0.1384 -0.1127 -0.2499
  564OD       C 2816   8.784   2.316   6.225 -0.0254  0.0065 -0.1505
  564OD       C 2817   8.852   2.615   6.466  0.2600 -0.1953 -0.1410
  564OD       C 2818   8.713   2.773   6.745  0.2509  0.1451  0.0273
  564OD       C 2819   8.415   2.863   7.034 -0.0370  0.3343 -0.0035
  564OD       C 2820   8.139   2.928   7.361  0.3191  0.2791  0.1548
  565OD       C 2821   0.988   3.924   1.693  0.0379  0.0628 -0.2078
  565OD       C 2822   0.994   3.886   1.343 -0.1431  0.1185 -0.1289
  565OD       C 2823   0.566   3.656   1.208  0.0855  0.0303  0.0412
  565OD       C 2824   0.345   3.385   0.904  0.0771  0.0722 -0.0096
  565OD       C 2825   0.076   3.325   0.611  0.2768  0.2496  0.1579
  566OD       C 2826   6.873   1.196   1.245  0.0380 -0.1297 -0.2813
  566OD       C 2827   6.444   1.209   1.105 -0.1711  0.0791 -0.2468
  566OD       C 2828   6.098   1.005   0.965 -0.0260  0.2365 -0.3770
  566OD       C 2829   5.681   0.817   0.779  0.2092  0.0846 -0.0543
  566OD       C 2830   5.308   0.794   0.971  0.0200  0.1747 -0.0706
  567OD       C 2831   0.467   5.009   5.690 -0.1656  0.0290 -0.0541
  567OD       C 2832   0.682   5.254   5.418 -0.2721  0.1046 -0.1890
  567OD       C 2833   1.146   5.278   5.303 -0.0373 -0.1727  0.0775
  567OD       C 2834   1.591   5.191   5.164  0.0647 -0.3642 -0.0670
  567OD       C 2835   1.968   4.856   5.134  0.1290 -0.1169 -0.3114
  568OD       C 2836   7.820   0.407   6.775 -0.3108  0.3116 -0.4251
  568OD       C 2837   7.794   0.756   6.625  0.1345  0.0311 -0.1726
  568OD       C 2838   7.395   0.941   6.449 -0.1095  0.2361  0.0311
  568OD       C 2839   7.069   1.142   6.613 -0.0504 -0.0266 -0.1113
  568OD       C 2840   6.780   1.456   6.577  0.1292 -0.2714  0.1236
  569OD       C 2841   5.279   0.459   4.798  0.3047 -0.0643  0.1029
  569OD       C 2842   4.944   0.250   4.770  0.1633 -0.1148  0.0970
  569OD       C 2843   4.707  -0.134   4.509 -0.1662  0.2864  0.0020
  569OD       C 2844   4.696   0.023   4.148 -0.1098 -0.0667  0.0685
  569OD       C 2845   4.540   0.030   3.755  0.1751  0.3874 -0.0349
  570OD       C 2846   2.425   5.598   5.771  0.1266 -0.2417  0.0643
  570OD       C 2847   2.329   5.568   6.184 -0.0126 -0.2295 -0.1302
  570OD       C 2848   2.590   5.269   6.403 -0.2301  0.0314 -0.0616
  570OD       C 2849   2.674   4.862   6.317 -0.0486 -0.0624 -0.2076
  570OD       C 2850   2.609   4.661   5.951  0.1631  0.0688 -0.1389
  571OD       C 2851   2.499   6.729   0.070 -0.0189 -0.0630  0.0180
  571OD       C 2852   2.777   6.900  -0.073 -0.2899 -0.4555 -0.0173
  571OD       C 2853   3.196   6.973  -0.090 -0.0068  0.0105  0.1739
  571OD       C 2854   3.571   7.141   0.041 -0.0144 -0.0640  0.1498
  571OD       C 2855   3.795   7.612   0.005  0.0009 -0.0178 -0.1251
  572OD       C 2856   4.133   4.136   5.048 -0.1049  0.2260 -0.0343
  572OD       C 2857   3.934   4.173   5.292  0.3162  0.0904  0.1771
  572OD       C 2858   3.703   3.873   5.554 -0.0133 -0.0481 -0.0683
  572OD       C 2859   3.495   3.498   5.577  0.0339  0.1083  0.1945
  572OD       C 2860   3.391   3.012   5.657  0.0339 -0.1872  0.1144
  573OD       C 2861   4.547   6.905   1.943  0.2559  0.1209 -0.1142
  573OD       C 2862   4.619   6.918   2.359  0.1258 -0.3575  0.0626
  573OD       C 2863   4.708   6.622   2.727 -0.2380  0.0754  0.3004
  573OD       C 2864   4.887   6.293   2.892  0.0429  0.0593 -0.0393
  573OD       C 2865   5.001   5.907   2.851 -0.3557  0.1544  0.2009
  574OD       C 2866   8.235   3.387   5.021  0.1514  0.3333  0.0375
  574OD       C 2867   8.573   3.134   4.964  0.0784  0.2104 -0.0694
  574OD       C 2868   8.718   2.734   5.184  0.0213  0.0216 -0.0803
  574OD       C 2869   8.745   2.351   5.076  0.2236 -0.0308 -0.0266
  574OD       C 2870   8.427   2.107   4.893  0.2989 -0.1030 -0.1683
  575OD       C 2871   2.910   6.345   6.240  0.1102 -0.3565 -0.0297
  575OD       C 2872   3.014   6.563   5.842  0.2873 -0.3941 -0.1397
  575OD       C 2873   3.236   6.467   5.452  0.0924 -0.0148 -0.1165
  575OD       C 2874   3.412   6.430   5.051 -0.0409 -0.2783 -0.1336
  575OD       C 2875   3.145   6.175   4.619  0.1660 -0.1148  0.0664
  576OD       C 2876   5.083   1.811   1.471  0.0359  0.2195 -0.1563
  576OD       C 2877   4.916   1.823   1.113  0.0343 -0.4304 -0.1408
  576OD       C 2878   4.678   1.642   0.752 -0.2318  0.1499 -0.0780
  576OD       C 2879   4.450   1.228   0.691  0.1813 -0.1510  0.0168
  576OD       C 2880   4.375   0.975   0.373  0.0523 -0.1124  0.1236
  577OD       C 2881   1.383   7.106   2.315 -0.1409 -0.2686 -0.1163
  577OD       C 2882   1.551   7.168   1.960 -0.2248 -0.0803 -0.2113
  577OD       C 2883   1.770   7.250   1.615  0.1578 -0.1376  0.3058
  577OD       C 2884   2.081   7.519   1.462  0.0832 -0.0468  0.0974
  577OD       C 2885   2.422   7.484   1.493  0.0995  0.2952 -0.1088
  578OD       C 2886   4.145   1.678   1.447  0.1082 -0.2954  0.1753
  578OD       C 2887   4.175   1.621   1.919 -0.0600 -0.0421 -0.3820
  578OD       C 2888   4.185   1.159   2.072  0.1487  0.2452  0.4805
  578OD       C 2889   4.267   0.674   2.108 -0.1806  0.1021  0.0229
  578OD       C 2890   4.134   0.264   2.117  0.1364  0.0548 -0.2349
  579OD       C 2891   9.499   4.158   6.568  0.1858 -0.0068  0.1508
  579OD       C 2892   9.275   3.985   6.209  0.2069 -0.3758 -0.3087
  579OD       C 2893   9.028   3.687   6.124  0.0671  0.0129 -0.1324
  579OD       C 2894   8.792   3.433   5.955  0.0275  0.3542  0.3352
  579OD       C 2895   8.364   3.371   6.162 -0.2659  0.1516 -0.0853
  580OD       C 2896   1.838   6.139   5.201 -0.4106 -0.0415  0.0426
  580OD       C 2897   1.752   6.210   4.715 -0.2186 -0.1460  0.3626
  580OD       C 2898   1.889   6.468   4.390  0.3874 -0.3371 -0.3654
  580OD       C 2899   2.283   6.363   4.106  0.2956  0.1432 -0.2238
  580OD       C 2900   2.653   6.050   4.116  0.1057  0.2143 -0.0424
  581OD       C 2901   5.317   3.626   3.825  0.1258 -0.1376  0.1021
  581OD       C 2902   5.220   3.423   3.399 -0.0025  0.1168  0.0443
  581OD       C 2903   4.967   3.560   3.012  0.0693  0.1231 -0.0670
  581OD       C 2904   4.506   3.600   2.815  0.1393  0.0069 -0.1684
  581OD       C 2905   4.120   3.584   2.607 -0.2293  0.1543 -0.0263
  582OD       C 2906   3.996   3.842   6.937  0.0321 -0.1169 -0.1143
  582OD       C 2907   3.878   4.123   6.525  0.1369 -0.2722 -0.2451
  582OD       C 2908   3.608   4.352   6.286 -0.0021  0.0666  0.3698
  582OD       C 2909   3.368   4.709   6.096  0.0533 -0.0194 -0.0943
  582OD       C 2910   2.989   5.062   5.990 -0.0742  0.1339 -0.1436
  583OD       C 2911   4.809   0.709   0.841 -0.2366 -0.0781 -0.0574
  583OD       C 2912   4.960   1.192   1.070  0.2655  0.0636  0.0852
  583OD       C 2913   5.314   1.488   1.158 -0.0009 -0.3223  0.1671
  583OD       C 2914   5.635   1.767   1.043 -0.0066 -0.1194 -0.0315
  583OD       C 2915   5.945   2.188   1.014 -0.3467 -0.1681 -0.0779
  584OD       C 2916   1.041   2.777   2.728 -0.0418 -0.0140  0.0266
  584OD       C 2917   1.154   2.503   3.080 -0.0653  0.1003  0.2644
  584OD       C 2918   0.862   2.238   3.373 -0.2301 -0.2088  0.1684
  584OD       C 2919   0.605   2.170   3.688 -0.4343  0.0106  0.2016
  584OD       C 2920   0.567   1.800   3.937  0.2694 -0.0119 -0.2712
  585OD       C 2921   9.432   1.167   2.204  0.0453 -0.2586  0.1837
  585OD       C 2922   9.632   0.713   2.410  0.1037 -0.0953  0.1298
  585OD       C 2923   9.418   0.474   2.617  0.0747 -0.3909  0.2675
  585OD       C 2924   9.227   0.032   2.620  0.1163 -0.5310  0.2577
  585OD       C 2925   9.336  -0.342   2.817 -0.1680 -0.0449 -0.1843
  586OD       C 2926   8.766   5.536   2.851  0.0052  0.0504 -0.3186
  586OD       C 2927   8.851   5.964   2.713 -0.1684  0.0416  0.4559
  586OD       C 2928   8.585   6.318   2.544 -0.0426 -0.1676  0.1355
  586OD       C 2929   8.342   6.704   2.565  0.1807  0.1371 -0.1642
  586OD       C 2930   8.491   7.065   2.189  0.1184 -0.0470 -0.1602
  587OD       C 2931   7.336   3.813   4.159 -0.0479  0.2138 -0.1371
  587OD       C 2932   7.156   4.055   3.986 -0.0355 -0.0531  0.0512
  587OD       C 2933   6.817   4.179   3.897 -0.2888  0.1109 -0.0390
  587OD       C 2934   6.544   4.485   3.764  0.0193 -0.2431  0.1092
  587OD       C 2935   6.433   4.870   3.611 -0.2099 -0.1896 -0.0172
  588OD       C 2936   5.580   0.917   3.984  0.1520 -0.0912  0.1001
  588OD       C 2937   5.482   0.439   3.959  0.0042 -0.3743  0.2700
  588OD       C 2938   5.723   0.085   4.060 -0.0008  0.3036 -0.0610
  588OD       C 2939   5.980  -0.121   4.429  0.1084 -0.0172  0.2571
  588OD       C 2940   6.228  -0.071   4.721  0.0689 -0.0785 -0.2279
  589OD       C 2941   6.707   6.320   4.307 -0.0128  0.0792 -0.0758
  589OD       C 2942   6.254   6.435   4.122  0.2539 -0.4530  0.0729
  589OD       C 2943   5.901   6.723   3.793 -0.1887  0.2397  0.1044
  589OD       C 2944   5.563   6.835   3.945  0.0274  0.1899 -0.0953
  589OD       C 2945   5.181   7.064   4.130 -0.1136  0.0499  0.0712
  590OD       C 2946   5.837   2.272   1.840 -0.2888  0.1877  0.1289
  590OD       C 2947   5.653   2.049   2.266  0.1136  0.4447 -0.0479
  590OD       C 2948   5.620   2.122   2.745  0.0672  0.2087  0.3138
  590OD       C 2949   5.554   1.977   3.129 -0.0605 -0.2202  0.0585
  590OD       C 2950   5.849   1.775   3.342  0.0947 -0.0804 -0.2790
  591OD       C 2951   6.752   0.146   7.190  0.2333 -0.0275 -0.2625
  591OD       C 2952   6.791  -0.280   7.080 -0.1699  0.0341 -0.2888
  591OD       C 2953   6.982  -0.688   6.779 -0.2323 -0.0323 -0.2472
  591OD       C 2954   6.757  -1.105   6.694 -0.1925 -0.1061  0.0279
  591OD       C 2955   6.870  -1.539   6.476  0.0383 -0.1587  0.3354
  592OD       C 2956   8.653   0.478   0.976  0.0071  0.3208 -0.0755
  592OD       C 2957   8.565   0.895   0.846  0.1991  0.1426 -0.3597
  592OD       C 2958   8.121   1.041   1.042 -0.1606  0.0787 -0.0660
  592OD       C 2959   7.911   1.289   1.351  0.2242 -0.2473  0.0981
  592OD       C 2960   7.721   1.368   1.713  0.0356  0.0133 -0.0342
  593OD       C 2961   8.818   2.220   3.977 -0.0094  0.0847  0.3071
  593OD       C 2962   8.887   1.873   3.583 -0.1620  0.0280 -0.0215
  593OD       C 2963   9.138   1.535   3.555 -0.0503 -0.1829  0.0508
  593OD       C 2964   9.174   1.089   3.448  0.1078  0.0515 -0.1236
  593OD       C 2965   9.100   0.628   3.430 -0.1391 -0.1757  0.1884
  594OD       C 2966   7.072   5.878   3.304  0.0324 -0.3048  0.0781
  594OD       C 2967   7.346   5.636   3.528 -0.2913 -0.0941  0.0436
  594OD       C 2968   7.649   5.388   3.633  0.1884  0.0305  0.1270
  594OD       C 2969   8.107   5.299   3.679  0.1984 -0.2145 -0.0493
  594OD       C 2970   8.542   5.201   3.749 -0.0351 -0.2737 -0.1845
  595OD       C 2971   7.563   3.574   4.776  0.0560 -0.1666 -0.1462
  595OD       C 2972   7.691   3.963   4.987  0.2073  0.0876  0.2375
  595OD       C 2973   7.713   4.406   4.919  0.0832  0.0089  0.0772
  595OD       C 2974   7.410   4.722   4.822  0.2341  0.0692 -0.0144
  595OD       C 2975   7.097   4.800   4.537 -0.1200  0.3252  0.0276
  596OD       C 2976   6.841   5.043   1.731  0.0140 -0.0337 -0.0414
  596OD       C 2977   6.582   4.804   1.970 -0.1647  0.0943  0.1989
  596OD       C 2978   6.470   4.350   1.988 -0.0509  0.1994  0.1663
  596OD       C 2979   6.169   4.071   1.761 -0.2710 -0.0351 -0.0955
  596OD       C 2980   5.759   3.896   1.916  0.0652  0.2227  0.1831
  597OD       C 2981   5.097   2.159   6.859  0.0597 -0.1742 -0.0240
  597OD       C 2982   5.569   2.369   6.961 -0.0704 -0.1723 -0.1738
  597OD       C 2983   5.998   2.486   7.056 -0.1393  0.2287  0.1355
  597OD       C 2984   6.326   2.267   7.258  0.0024 -0.3688 -0.1284
  597OD       C 2985   6.334   1.921   7.620  0.0619 -0.3917 -0.0837
  598OD       C 2986   8.087   4.744   3.661 -0.0180  0.0781 -0.1377
  598OD       C 2987   7.891   4.948   3.986  0.0836 -0.0901  0.2098
  598OD       C 2988   7.792   5.395   4.107  0.0801  0.1018  0.0980
  598OD       C 2989   7.494   5.787   3.989  0.1392  0.0404 -0.2383
  598OD       C 2990   7.342   6.069   4.046  0.1973  0.2388  0.2667
  599OD       C 2991   3.443   0.578   5.464 -0.0716 -0.2228 -0.2287
  599OD       C 2992   3.509   0.276   5.681 -0.1495  0.2286  0.0877
  599OD       C 2993   3.696   0.104   5.984 -0.0836  0.0534  0.1344
  599OD       C 2994   3.517  -0.299   6.178 -0.0563 -0.1427  0.0077
  599OD       C 2995   3.459  -0.672   6.411  0.3174 -0.1091  0.1127
  600OD       C 2996   0.749   4.595   5.693  0.1312 -0.2771  0.1131
  600OD       C 2997   1.024   4.884   5.578  0.0648 -0.3642 -0.1242
  600OD       C 2998   1.390   4.724   5.344 -0.1493  0.0591 -0.0940
  600OD       C 2999   1.255   4.333   5.098 -0.3727  0.0436  0.1887
  600OD       C 3000   1.133   3.884   5.225  0.2788 -0.2930 -0.1434
  601OD       C 3001   8.859   1.111   6.406 -0.1484 -0.1060 -0.4206
  601OD       C 3002   8.588   1.112   6.044  0.0037  0.1221  0.1865
  601OD       C 3003   8.254   0.807   5.846 -0.2083 -0.3194  0.3551
  601OD       C 3004   8.006   0.550   5.604  0.0201 -0.0005  0.1165
  601OD       C 3005   7.808   0.601   5.226 -0.1162 -0.1098 -0.0362
  602OD       C 3006   7.288   6.127   6.901  0.2416  0.3265 -0.5377
  602OD       C 3007   7.462   6.167   7.437 -0.1148 -0.3157  0.2630
  602OD       C 3008   7.183   6.266   7.734 -0.2211 -0.2758  0.0056
  602OD       C 3009   7.012   6.515   8.082  0.0357 -0.0671 -0.3373
  602OD       C 3010   6.798   6.751   8.256 -0.0777 -0.1171 -0.6416
  603OD       C 3011   6.567   0.612   1.985  0.1887 -0.1489 -0.0755
  603OD       C 3012   6.227   0.827   1.797  0.0663 -0.0650  0.0016
  603OD       C 3013   6.029   1.147   1.436  0.0045 -0.3274 -0.0485
  603OD       C 3014   5.736   1.523   1.517 -0.2779  0.3935 -0.0608
  603OD       C 3015   5.679   1.954   1.487 -0.2716 -0.1196 -0.0998
  604OD       C 3016   6.190   6.012   3.840 -0.2437  0.0134 -0.2479
  604OD       C 3017   6.568   6.314   3.754 -0.1322 -0.1673 -0.1320
  604OD       C 3018   6.747   6.679   3.456 -0.1592 -0.2410 -0.2698
  604OD       C 3019   7.236   6.808   3.279  0.0477  0.0144  0.1447
  604OD       C 3020   7.683   6.856   3.351  0.1377  0.1869  0.3946
  605OD       C 3021   6.816   3.080   4.568  0.3477  0.2165 -0.0710
  605OD       C 3022   6.513   3.296   4.365 -0.1670  0.1307 -0.1082
  605OD       C 3023   6.181   3.525   4.228  0.1159 -0.0461 -0.1725
  605OD       C 3024   5.818   3.613   3.907 -0.1650 -0.0454 -0.0405
  605OD       C 3025   5.721   3.328   3.569 -0.0610  0.2638  0.0712
  606OD       C 3026   2.606   1.138   1.862  0.1178 -0.0966  0.3339
  606OD       C 3027   2.265   1.496   1.862 -0.2906 -0.1246 -0.0931
  606OD       C 3028   2.293   2.014   1.873 -0.1062  0.3114  0.2889
  606OD       C 3029   2.197   2.439   1.723  0.1417 -0.0049  0.0657
  606OD       C 3030   1.803   2.587   1.888 -0.2227  0.1920 -0.2955
  607OD       C 3031   7.233   2.167   3.300 -0.0326 -0.0341 -0.2112
  607OD       C 3032   7.458   2.520   3.367  0.4221  0.0037  0.0860
  607OD       C 3033   7.718   2.924   3.380  0.2045  0.1116 -0.1606
  607OD       C 3034   8.061   3.201   3.458 -0.0477 -0.1854 -0.2326
  607OD       C 3035   8.258   3.562   3.592 -0.1168 -0.0451  0.0759
  608OD       C 3036   2.060   6.300   0.181  0.4101 -0.1096 -0.0367
  608OD       C 3037   2.078   6.094   0.592 -0.0793 -0.2192  0.2553
  608OD       C 3038   2.354   6.160   0.914  0.5656 -0.2904 -0.6231
  608OD       C 3039   2.701   6.172   1.258  0.2682  0.1730  0.0358
  608OD       C 3040   2.977   5.961   1.510  0.0085  0.1234 -0.3451
  609OD       C 3041   0.165   2.391   2.514 -0.3309 -0.0526  0.0567
  609OD       C 3042   0.451   2.417   2.258  0.1108 -0.0043 -0.0472
  609OD       C 3043   0.691   1.986   2.032  0.0428 -0.0829  0.0629
  609OD       C 3044   0.855   1.876   1.692  0.3226  0.2306 -0.0182
  609OD       C 3045   1.096   1.521   1.475 -0.2526  0.0097 -0.0607
  610OD       C 3046   4.009   5.746   5.323  0.0155 -0.0961 -0.3238
  610OD       C 3047   4.234   5.402   5.326 -0.0666 -0.3880  0.1768
  610OD       C 3048   4.587   5.310   5.125 -0.1133  0.2482 -0.1067
  610OD       C 3049   4.960   5.622   4.986  0.0730 -0.1374 -0.0355
  610OD       C 3050   5.371   5.751   4.810  0.0087  0.4240 -0.0176
  611OD       C 3051   8.177   2.310   5.382  0.0034 -0.2159 -0.3854
  611OD       C 3052   7.902   2.453   5.050 -0.0996  0.0231 -0.2216
  611OD       C 3053   7.878   2.914   4.872  0.2216 -0.1373 -0.0054
  611OD       C 3054   8.004   3.256   4.580 -0.0581 -0.1077  0.1530
  611OD       C 3055   8.158   3.761   4.678  0.1148  0.1040 -0.1699
  612OD       C 3056   8.533   4.033   0.349 -0.0008 -0.0478 -0.1469
  612OD       C 3057   8.256   4.313   0.563 -0.0630  0.1161  0.1794
  612OD       C 3058   8.239   4.762   0.381 -0.0010 -0.0663 -0.1507
  612OD       C 3059   8.205   5.221   0.526  0.0248 -0.0178  0.0934
  612OD       C 3060   8.173   5.564   0.718 -0.2003 -0.0673 -0.0217
  613OD       C 3061   1.799   4.298   2.960 -0.0507 -0.0684 -0.0659
  613OD       C 3062   1.674   4.184   2.496  0.1100 -0.0730 -0.1701
  613OD       C 3063   1.913   4.165   2.165 -0.2642  0.0632  0.1237
  613OD       C 3064   1.804   3.987   1.768  0.0937 -0.0173 -0.0551
  613OD       C 3065   1.510   3.947   1.375 -0.3612 -0.1356 -0.1234
  614OD       C 3066   4.557   6.758   3.792 -0.0317  0.3811 -0.1746
  614OD       C 3067   4.898   6.546   3.952 -0.0529  0.1113 -0.0535
  614OD       C 3068   5.307   6.344   3.713 -0.1986  0.3256  0.1683
  614OD       C 3069   5.639   6.028   3.528 -0.2153  0.1573  0.0663
  614OD       C 3070   5.936   5.890   3.182 -0.0245 -0.0561 -0.0037
  615OD       C 3071   8.765   5.912   5.930 -0.1049 -0.1113  0.3221
  615OD       C 3072   9.229   5.969   5.921  0.0401 -0.1155  0.0330
  615OD       C 3073   9.571   5.927   6.011 -0.0072  0.2404  0.2503
  615OD       C 3074   9.994   5.990   6.042  0.2190  0.1660  0.1082
  615OD       C 3075  10.367   6.158   5.807  0.0266 -0.3810  0.1553
  616OD       C 3076   4.737   6.045   0.371  0.0221  0.3327 -0.2779
  616OD       C 3077   4.433   5.998   0.667 -0.2056  0.1313 -0.1375
  616OD       C 3078   4.098   6.306   0.874  0.3973  0.0305  0.1211
  616OD       C 3079   3.815   6.710   0.977  0.1113 -0.1009  0.1302
  616OD       C 3080   3.734   7.173   0.840 -0.0515  0.0118  0.1285
  617OD       C 3081   7.381   2.316   6.124 -0.0949 -0.0349 -0.0773
  617OD       C 3082   7.632   1.896   6.075  0.1023  0.0273  0.1051
  617OD       C 3083   7.772   1.427   6.099  0.0787 -0.2106 -0.2861
  617OD       C 3084   7.775   0.910   6.097  0.3277  0.0921  0.1153
  617OD       C 3085   7.814   0.491   6.190  0.0352  0.1127 -0.2386
  618OD       C 3086   7.534   6.414   6.589 -0.1237 -0.0327 -0.2406
  618OD       C 3087   7.778   6.788   6.484 -0.0169 -0.0223  0.0194
  618OD       C 3088   7.997   6.696   6.110 -0.0733  0.2720  0.1301
  618OD       C 3089   8.185   6.479   5.695  0.2328  0.0906 -0.2167
  618OD       C 3090   8.491   6.137   5.583  0.1060  0.1510  0.0178
  619OD       C 3091   5.135   2.632   6.530 -0.4084 -0.1125  0.2579
  619OD       C 3092   5.503   2.841   6.734  0.1680  0.0585 -0.1838
  619OD       C 3093   5.907   2.975   6.741  0.1917 -0.0919  0.0733
  619OD       C 3094   6.345   2.926   6.811 -0.0511 -0.0335 -0.0425
  619OD       C 3095   6.463   2.783   7.122  0.4280  0.0061  0.1129
  620OD       C 3096   8.067   4.419   1.017 -0.0915 -0.1413  0.1640
  620OD       C 3097   8.301   4.314   1.468  0.0657 -0.1441  0.1158
  620OD       C 3098   8.458   4.314   1.892  0.0817 -0.0508  0.1221
  620OD       C 3099   8.437   4.488   2.309  0.3566 -0.1238 -0.3643
  620OD       C 3100   8.744   4.292   2.557  0.0835 -0.1387 -0.6573
  621OD       C 3101   6.160   2.834   0.878  0.0591  0.2445  0.1843
  621OD       C 3102   5.732   2.768   1.123 -0.2236 -0.0016  0.0652
  621OD       C 3103   5.374   2.834   1.211 -0.0082 -0.0582 -0.3436
  621OD       C 3104   4.961   2.959   1.070 -0.3050  0.1181  0.0479
  621OD       C 3105   4.583   2.752   1.166 -0.1909 -0.2398  0.0978
  622OD       C 3106   7.648   3.964   3.265 -0.1433 -0.1158 -0.3727
  622OD       C 3107   7.532   3.862   2.882 -0.3315 -0.4048 -0.0593
  622OD       C 3108   7.264   3.553   2.863  0.0663  0.1360 -0.1965
  622OD       C 3109   6.836   3.474   2.873  0.0705 -0.2694  0.1503
  622OD       C 3110   6.470   3.268   3.073 -0.0768  0.1117 -0.1409
  623OD       C 3111   7.889   4.452   2.423 -0.2092  0.4186  0.0046
  623OD       C 3112   8.171   4.096   2.263  0.4796  0.1122 -0.2790
  623OD       C 3113   8.231   3.737   2.093  0.0866 -0.4380  0.0171
  623OD       C 3114   8.130   3.436   1.769 -0.0875 -0.1124  0.1683
  623OD       C 3115   8.356   3.276   1.522 -0.0076 -0.3307  0.1401
  624OD       C 3116   5.215   3.150   2.357 -0.2121  0.2943  0.2516
  624OD       C 3117   5.308   3.558   2.134  0.0181 -0.1518 -0.0764
  624OD       C 3118   5.007   3.700   1.696  0.0793  0.2050  0.0049
  624OD       C 3119   4.758   3.732   1.389  0.0508  0.0524 -0.4293
  624OD       C 3120   4.685   3.403   1.212  0.2018  0.0046  0.0438
  625OD       C 3121   8.407   6.383   6.926  0.3291 -0.0861  0.0814
  625OD       C 3122   8.465   6.151   7.394 -0.0622 -0.0089 -0.2310
  625OD       C 3123   8.384   5.989   7.832 -0.1580 -0.0950  0.0957
  625OD       C 3124   8.652   5.779   8.135  0.2789  0.1682  0.1543
  625OD       C 3125   9.058   5.610   8.126  0.2776  0.0186  0.1279
  626OD       C 3126   6.456   0.888   3.291  0.1846  0.0934  0.2309
  626OD       C 3127   6.424   1.021   2.927  0.0780 -0.0288  0.0314
  626OD       C 3128   6.092   1.172   2.628 -0.0483 -0.0331 -0.0976
  626OD       C 3129   5.674   1.141   2.645 -0.1991 -0.0178  0.0682
  626OD       C 3130   5.327   1.207   2.783  0.0334 -0.2983 -0.1731
  627OD       C 3131   3.453   1.036   5.621  0.4465 -0.0437 -0.4469
  627OD       C 3132   3.088   0.976   5.851 -0.0652  0.1679 -0.0684
  627OD       C 3133   2.810   0.807   6.208  0.0289  0.1849 -0.1435
  627OD       C 3134   2.574   0.693   6.486  0.2063 -0.1486  0.1888
  627OD       C 3135   2.402   0.349   6.629 -0.0237 -0.3751  0.1449
  628OD       C 3136   4.245   3.189   2.819 -0.1877 -0.1131 -0.1833
  628OD       C 3137   3.915   2.856   2.896 -0.2363 -0.2136 -0.0971
  628OD       C 3138   3.513   3.033   2.982 -0.0599 -0.0611 -0.0739
  628OD       C 3139   3.413   3.459   3.221  0.1075  0.5183 -0.1767
  628OD       C 3140   3.092   3.717   3.257  0.0023 -0.5803 -0.0928
  629OD       C 3141   1.998   4.783   5.624 -0.1946  0.2664 -0.0172
  629OD       C 3142   2.225   4.304   5.736 -0.1729  0.0821 -0.0010
  629OD       C 3143   2.550   4.166   5.966  0.1600 -0.1673 -0.4223
  629OD       C 3144   2.826   3.955   5.789 -0.0892 -0.1521 -0.0027
  629OD       C 3145   3.235   3.789   5.903  0.1095 -0.0694  0.0937
  630OD       C 3146   6.958   2.095   4.728  0.2241 -0.1580 -0.1739
  630OD       C 3147   6.926   2.224   5.081  0.1733  0.1642 -0.0109
  630OD       C 3148   7.092   2.496   5.330  0.3452 -0.0578  0.0552
  630OD       C 3149   7.535   2.608   5.338  0.1421  0.2517 -0.1074
  630OD       C 3150   7.901   2.721   5.533  0.1512  0.1732 -0.0200
  631OD       C 3151   6.615   1.112   2.194 -0.1809 -0.0618  0.1062
  631OD       C 3152   6.187   1.222   2.133  0.0022  0.1933  0.0208
  631OD       C 3153   5.804   1.071   1.867 -0.0878  0.2547 -0.1585
  631OD       C 3154   5.499   1.045   1.448 -0.0579  0.0295  0.0602
  631OD       C 3155   5.671   1.226   1.016  0.2406  0.0983 -0.1281
  632OD       C 3156   7.760   4.328   3.638  0.0082  0.2054 -0.0784
  632OD       C 3157   7.765   3.890   3.833 -0.0893 -0.2749  0.0156
  632OD       C 3158   7.859   3.533   3.813  0.2566  0.2620 -0.0639
  632OD       C 3159   8.119   3.278   4.060  0.2192 -0.0734 -0.0659
  632OD       C 3160   8.269   2.903   4.361 -0.3470  0.0147 -0.0720
  633OD       C 3161   3.595   1.260   6.814  0.0350  0.0395 -0.0866
  633OD       C 3162   3.335   1.606   6.908  0.1473 -0.1354  0.2511
  633OD       C 3163   3.366   1.998   6.662  0.0084 -0.1744  0.0580
  633OD       C 3164   3.549   2.094   6.209  0.1811  0.0394 -0.0447
  633OD       C 3165   3.402   1.962   5.791 -0.0155  0.0967  0.1287
  634OD       C 3166   6.973   3.020   7.115  0.0216  0.0501  0.1965
  634OD       C 3167   6.913   2.893   7.496  0.2849 -0.1275 -0.0254
  634OD       C 3168   7.212   2.785   7.827 -0.1907 -0.3806  0.1434
  634OD       C 3169   7.104   3.006   8.241 -0.1107 -0.2436 -0.0603
  634OD       C 3170   6.775   3.220   8.487 -0.0986 -0.1379  0.4177
  635OD       C 3171   5.245   3.901   6.243  0.0778  0.0981 -0.1425
  635OD       C 3172   5.230   3.497   6.142 -0.2425  0.0678 -0.1139
  635OD       C 3173   5.398   3.041   6.262  0.0408 -0.0978 -0.1556
  635OD       C 3174   5.506   2.684   6.233  0.1494  0.0585 -0.0020
  635OD       C 3175   5.843   2.514   6.422 -0.3361 -0.1615  0.2437
  636OD       C 3176   2.469   1.699   1.431 -0.0311 -0.1354  0.2123
  636OD       C 3177   2.786   1.647   1.731 -0.1438  0.0560 -0.0748
  636OD       C 3178   3.253   1.564   1.730  0.3229 -0.1390  0.0848
  636OD       C 3179   3.489   1.785   1.463  0.0585 -0.0157 -0.0904
  636OD       C 3180   3.434   2.214   1.351  0.0288 -0.2088  0.0378
  637OD       C 3181   2.206   5.142   6.718  0.0129 -0.4185  0.2127
  637OD       C 3182   2.126   4.887   7.072 -0.2366 -0.3166 -0.0721
  637OD       C 3183   2.265   4.654   7.294  0.3228  0.0672  0.0130
  637OD       C 3184   2.536   4.330   7.375 -0.0682  0.0971  0.2489
  637OD       C 3185   2.483   3.870   7.330 -0.1293  0.1547 -0.1299
  638OD       C 3186   4.356   4.646   1.750  0.0021 -0.1279 -0.0116
  638OD       C 3187   4.071   5.027   1.861 -0.0375  0.2944  0.2126
  638OD       C 3188   4.199   5.333   2.071 -0.2217  0.1507 -0.0589
  638OD       C 3189   4.376   5.724   2.314 -0.1683 -0.2105  0.2149
  638OD       C 3190   4.733   5.932   2.022  0.3093 -0.2233  0.2055
  639OD       C 3191   3.683   0.076   1.853  0.1480 -0.0780  0.1737
  639OD       C 3192   3.359  -0.181   1.814  0.0159  0.0033  0.2232
  639OD       C 3193   3.093  -0.526   1.627 -0.1962 -0.0747 -0.1877
  639OD       C 3194   2.590  -0.548   1.472 -0.4757  0.1983  0.0552
  639OD       C 3195   2.319  -0.791   1.490 -0.1776  0.0110  0.0735
  640OD       C 3196   0.955   5.776   6.160  0.0824 -0.0412  0.2796
  640OD       C 3197   1.192   5.615   6.484  0.0876 -0.0611 -0.2033
  640OD       C 3198   1.108   5.499   6.868  0.0412 -0.1040 -0.0678
  640OD       C 3199   1.061   5.067   6.938  0.1571  0.0458 -0.2973
  640OD       C 3200   0.807   4.661   6.949 -0.1282  0.0578 -0.1659
  641OD       C 3201   5.385   4.040   2.210 -0.0183  0.1295 -0.3327
  641OD       C 3202   5.693   3.626   2.483  0.1259  0.1013  0.0740
  641OD       C 3203   5.561   3.118   2.683  0.1139 -0.1538 -0.0739
  641OD       C 3204   5.635   2.698   2.829  0.1309 -0.0442  0.1464
  641OD       C 3205   5.869   2.425   3.128  0.0169 -0.2730 -0.1073
  642OD       C 3206   5.477   0.089   2.688 -0.2452  0.0816 -0.0228
  642OD       C 3207   5.252  -0.140   3.093  0.0327  0.1628  0.1383
  642OD       C 3208   5.100  -0.487   3.055 -0.0194  0.2719  0.0742
  642OD       C 3209   5.323  -0.773   2.636  0.1357  0.0110 -0.0258
  642OD       C 3210   5.140  -0.892   2.205  0.1454  0.0364  0.1553
  643OD       C 3211   3.585   1.321   4.744 -0.1299 -0.0237 -0.1135
  643OD       C 3212   3.743   1.220   4.282 -0.3105  0.0700 -0.2206
  643OD       C 3213   3.678   1.139   3.811  0.1061 -0.0294 -0.2067
  643OD       C 3214   3.699   0.898   3.443 -0.0847  0.0109 -0.0764
  643OD       C 3215   3.658   1.029   3.051 -0.5313  0.0318 -0.0552
  644OD       C 3216   3.190   5.576   3.852  0.0940 -0.2234 -0.0724
  644OD       C 3217   2.931   5.386   3.514  0.1250  0.0310  0.1585
  644OD       C 3218   3.192   5.112   3.237 -0.1482  0.0541 -0.0826
  644OD       C 3219   3.599   5.013   3.237 -0.2394  0.1213  0.0365
  644OD       C 3220   3.982   4.972   3.442 -0.0707  0.0458 -0.2262
  645OD       C 3221   4.558   2.797   2.877  0.0026  0.0451  0.1684
  645OD       C 3222   4.916   2.537   2.932 -0.0577  0.1709 -0.3009
  645OD       C 3223   5.159   2.243   2.807 -0.0579  0.0476 -0.4591
  645OD       C 3224   5.310   1.740   2.799  0.0160  0.0691 -0.0212
  645OD       C 3225   5.768   1.603   2.784 -0.0899  0.2844  0.0119
  646OD       C 3226   7.237   5.155   3.227 -0.2058 -0.1200  0.2734
  646OD       C 3227   6.932   5.039   3.175 -0.0151 -0.0760 -0.0863
  646OD       C 3228   6.705   4.635   3.268 -0.1157 -0.0889  0.1428
  646OD       C 3229   6.542   4.232   3.008 -0.1612  0.0553  0.1151
  646OD       C 3230   6.524   3.823   3.003 -0.5049 -0.1478 -0.3153
  647OD       C 3231   7.283   4.264   3.553  0.0726  0.1550  0.0438
  647OD       C 3232   6.924   4.112   3.427  0.2816 -0.0007 -0.0291
  647OD       C 3233   6.612   4.006   3.462 -0.0975  0.1386 -0.0569
  647OD       C 3234   6.247   4.116   3.351  0.0695  0.1125  0.1557
  647OD       C 3235   5.874   4.463   3.509  0.0322  0.0138 -0.0763
  648OD       C 3236   2.605   4.687   1.188  0.3421 -0.0814 -0.1843
  648OD       C 3237   2.794   4.351   1.341  0.2732 -0.1798  0.0813
  648OD       C 3238   2.947   4.045   1.547  0.3293  0.1950 -0.1052
  648OD       C 3239   3.214   3.805   1.820  0.1003  0.1563  0.3317
  648OD       C 3240   3.432   3.488   2.085  0.0426 -0.2471 -0.0437
  649OD       C 3241   1.563   0.078   1.144  0.4669 -0.0011  0.2536
  649OD       C 3242   1.786   0.467   1.056 -0.0601  0.1526  0.0543
  649OD       C 3243   1.815   0.842   0.876 -0.2883  0.1038 -0.0074
  649OD       C 3244   1.749   1.290   1.062 -0.0270  0.0864  0.0479
  649OD       C 3245   1.711   1.699   0.882 -0.0104  0.3307  0.1285
  650OD       C 3246   3.045   2.512   1.553  0.0805 -0.2289  0.3264
  650OD       C 3247   2.705   2.699   1.697 -0.0603 -0.0731 -0.0962
  650OD       C 3248   2.387   2.804   2.037  0.0078  0.2503 -0.2624
  650OD       C 3249   2.011   3.045   1.827 -0.1438 -0.0262 -0.2723
  650OD       C 3250   1.772   3.248   2.012 -0.2086  0.1085  0.1302
  651OD       C 3251   1.269   5.380   2.254  0.2750 -0.2395  0.0224
  651OD       C 3252   1.284   5.446   1.760  0.3040 -0.0229 -0.1244
  651OD       C 3253   1.043   5.684   1.442  0.2573 -0.0974 -0.1198
  651OD       C 3254   0.904   5.596   1.025  0.2217  0.0656 -0.2029
  651OD       C 3255   1.218   5.386   0.801  0.2443 -0.0222  0.2705
  652OD       C 3256   5.862   1.796   0.569  0.1545  0.0791 -0.0806
  652OD       C 3257   6.031   1.491   0.683 -0.0903  0.0697 -0.0305
  652OD       C 3258   6.078   1.561   1.088 -0.0148  0.0862  0.1159
  652OD       C 3259   6.256   1.621   1.567 -0.1810 -0.2558 -0.0964
  652OD       C 3260   6.044   1.809   1.928 -0.1575  0.0090  0.1613
  653OD       C 3261   8.056   6.325   2.422  0.3093 -0.2900  0.0043
  653OD       C 3262   7.972   6.505   2.026 -0.1722  0.1255  0.0714
  653OD       C 3263   8.173   6.812   1.703 -0.1938 -0.1568 -0.0995
  653OD       C 3264   8.408   7.059   1.361 -0.1043  0.1109  0.3565
  653OD       C 3265   8.781   7.108   1.148  0.1768 -0.2585 -0.3401
  654OD       C 3266   5.033   4.924   2.574  0.1131 -0.1884  0.0675
  654OD       C 3267   4.798   5.328   2.775 -0.0559  0.1612  0.0840
  654OD       C 3268   4.625   5.672   3.031  0.0341 -0.0782 -0.0320
  654OD       C 3269   4.583   5.921   3.472 -0.2118 -0.3033 -0.2082
  654OD       C 3270   4.865   6.001   3.904 -0.1769 -0.0024  0.1119
  655OD       C 3271   8.112   3.262   5.520 -0.0246  0.0179  0.0347
  655OD       C 3272   8.346   3.560   5.669  0.1631  0.1105 -0.0728
  655OD       C 3273   8.737   3.750   5.609  0.0520  0.0185 -0.1464
  655OD       C 3274   8.919   4.178   5.856 -0.1701  0.2339  0.2179
  655OD       C 3275   8.741   4.633   5.969 -0.1323 -0.2400  0.0109
  656OD       C 3276   8.850   4.542   4.551  0.0390 -0.1307  0.1005
  656OD       C 3277   8.982   4.769   4.218 -0.0721 -0.3912 -0.0782
  656OD       C 3278   9.035   5.225   4.195 -0.3153  0.1721 -0.0829
  656OD       C 3279   9.180   5.538   4.570  0.3470 -0.0486 -0.2813
  656OD       C 3280   9.540   5.794   4.629  0.1561  0.1304  0.0306
  657OD       C 3281   7.460   4.545   2.163 -0.2121 -0.0967 -0.2958
  657OD       C 3282   7.577   4.919   2.376 -0.1983  0.1143 -0.1971
  657OD       C 3283   7.252   5.275   2.426  0.3514  0.1539  0.0126
  657OD       C 3284   6.888   5.357   2.734 -0.0576  0.0728  0.2754
  657OD       C 3285   6.493   5.074   2.904 -0.2298  0.0851 -0.0080
  658OD       C 3286   7.008   3.033   5.900 -0.4203 -0.2873  0.3513
  658OD       C 3287   7.103   2.679   6.207  0.2892 -0.3411 -0.0757
  658OD       C 3288   6.975   2.358   6.445  0.1913  0.1315 -0.1129
  658OD       C 3289   7.155   1.937   6.473  0.0319  0.2088  0.2094
  658OD       C 3290   7.172   1.631   6.897  0.0415 -0.1051  0.4063
  659OD       C 3291   4.843   6.061   6.703  0.1432 -0.0567 -0.0295
  659OD       C 3292   4.826   6.011   6.275  0.1544  0.0037  0.0165
  659OD       C 3293   4.638   6.236   5.950  0.3248  0.2358  0.1364
  659OD       C 3294   4.593   6.547   5.607  0.0096  0.2184  0.1745
  659OD       C 3295   4.860   6.608   5.222  0.0333  0.1842  0.1770
  660OD       C 3296   2.032   5.426   3.735 -0.1991 -0.1682 -0.2225
  660OD       C 3297   2.016   5.652   3.386 -0.1609 -0.2777 -0.1180
  660OD       C 3298   1.885   6.060   3.157 -0.2506  0.0732 -0.0929
  660OD       C 3299   2.125   6.445   3.081 -0.2369  0.0040 -0.0243
  660OD       C 3300   2.544   6.749   2.955 -0.0596 -0.0944  0.1143
  661OD       C 3301   5.377   5.979   0.169 -0.1493 -0.0409 -0.0170
  661OD       C 3302   5.749   5.782   0.346  0.0637 -0.1879  0.3007
  661OD       C 3303   5.815   5.496   0.606 -0.2597  0.0813 -0.3524
  661OD       C 3304   5.989   5.206   0.900  0.1223  0.1562 -0.2837
  661OD       C 3305   6.264   4.850   1.081  0.0475  0.0421  0.0947
  662OD       C 3306   2.460   5.426   5.005  0.2919  0.1592 -0.2517
  662OD       C 3307   2.257   5.415   4.622  0.4190  0.2585  0.2217
  662OD       C 3308   2.289   5.286   4.178 -0.0911 -0.1902  0.1820
  662OD       C 3309   2.256   4.894   3.824  0.0955  0.0670 -0.2374
  662OD       C 3310   2.204   4.416   3.623  0.1259  0.1283 -0.0670
  663OD       C 3311   2.840   4.410   6.947  0.0118  0.2638 -0.0486
  663OD       C 3312   3.293   4.340   7.246  0.2403  0.2645  0.2535
  663OD       C 3313   3.394   3.933   7.302  0.1380 -0.1343  0.1349
  663OD       C 3314   3.605   3.644   7.447 -0.2129 -0.0180  0.1550
  663OD       C 3315   3.722   3.307   7.349 -0.0129 -0.4670  0.1341
  664OD       C 3316   7.647   4.982   6.076  0.3901  0.0254  0.1488
  664OD       C 3317   7.614   4.552   6.230  0.0851  0.1742  0.0955
  664OD       C 3318   7.756   4.166   6.339 -0.0962  0.0665 -0.1102
  664OD       C 3319   7.651   3.747   6.386 -0.0677 -0.3238 -0.0943
  664OD       C 3320   7.692   3.416   6.615 -0.3343 -0.0085 -0.0005
  665OD       C 3321   1.461   3.154   4.957  0.0655  0.1520  0.1005
  665OD       C 3322   1.283   2.975   5.281  0.0517  0.2062 -0.1961
  665OD       C 3323   1.058   2.990   5.585 -0.0325 -0.2178  0.2207
  665OD       C 3324   0.918   3.215   5.942  0.1820 -0.2297 -0.2001
  665OD       C 3325   0.469   3.317   6.176 -0.5079 -0.2110  0.0394
  666OD       C 3326   2.220   0.331   7.122 -0.1081  0.3360  0.1289
  666OD       C 3327   2.148  -0.076   7.285 -0.4021  0.0769 -0.1586
  666OD       C 3328   2.024  -0.391   7.496 -0.1990  0.1874 -0.2879
  666OD       C 3329   1.739  -0.644   7.690  0.0302  0.0852 -0.1602
  666OD       C 3330   1.569  -0.874   8.045  0.0848  0.2049 -0.3771
  667OD       C 3331   8.812   5.319   7.052 -0.3460 -0.1806  0.0729
  667OD       C 3332   8.660   5.671   6.835 -0.6472 -0.2997  0.0327
  667OD       C 3333   8.845   6.062   6.915 -0.1225  0.0941  0.1366
  667OD       C 3334   9.075   6.179   7.109 -0.0038  0.0564 -0.1090
  667OD       C 3335   9.267   6.556   7.077  0.0571 -0.3611  0.0425
  668OD       C 3336   7.001   1.084   4.779  0.0903  0.1925  0.1136
  668OD       C 3337   7.007   0.673   4.683  0.1308 -0.0991  0.3898
  668OD       C 3338   6.837   0.433   4.321 -0.2427 -0.0468  0.1498
  668OD       C 3339   6.363   0.326   4.279 -0.1472  0.1116 -0.2317
  668OD       C 3340   5.913   0.364   4.470 -0.1332 -0.1521 -0.1055
  669OD       C 3341   0.103   1.995   1.199  0.2785  0.1019  0.1931
  669OD       C 3342   0.506   2.179   1.158 -0.1604  0.1424 -0.0499
  669OD       C 3343   0.647   2.502   0.938 -0.2351 -0.3438  0.1230
  669OD       C 3344   0.499   2.851   0.692  0.2672 -0.2476 -0.2430
  669OD       C 3345   0.363   3.026   0.255  0.1396  0.2638  0.1053
  670OD       C 3346   0.866   4.005   4.508 -0.3838 -0.1102 -0.1446
  670OD       C 3347   0.803   4.269   4.825 -0.0021 -0.0830  0.2356
  670OD       C 3348   0.776   4.346   5.237  0.1993 -0.4355  0.0690
  670OD       C 3349   1.032   4.220   5.596 -0.0015 -0.1421 -0.1516
  670OD       C 3350   1.178   4.136   5.985 -0.3606  0.0736  0.2431
  671OD       C 3351   5.412   0.076   3.594 -0.0558 -0.4410 -0.2392
  671OD       C 3352   5.557   0.273   3.255  0.3707 -0.2030 -0.0109
  671OD       C 3353   5.837   0.361   3.004 -0.0768 -0.0457 -0.1344
  671OD       C 3354   6.034   0.659   2.709 -0.0437 -0.2015  0.1906
  671OD       C 3355   6.026   0.790   2.299 -0.3890  0.2419  0.2404
  672OD       C 3356   7.164   3.960   6.456  0.3041 -0.0455  0.1547
  672OD       C 3357   7.180   4.332   6.133 -0.1622  0.0117  0.5067
  672OD       C 3358   7.241   4.782   5.929  0.1424  0.1447 -0.7739
  672OD       C 3359   7.505   5.019   5.632  0.2563 -0.0782 -0.2367
  672OD       C 3360   7.928   5.335   5.607  0.2584  0.2447  0.0981
  673OD       C 3361   3.542   2.113   5.299 -0.1576  0.1260 -0.0932
  673OD       C 3362   4.010   2.181   5.141  0.2279  0.0724 -0.0293
  673OD       C 3363   4.252   2.085   4.768  0.1312 -0.0880 -0.3802
  673OD       C 3364   4.397   1.985   4.308 -0.0134  0.0902  0.1490
  673OD       C 3365   4.461   1.820   3.892 -0.0907 -0.0155  0.2152
  674OD       C 3366   3.907   2.086   1.642 -0.0855  0.0141  0.1956
  674OD       C 3367   3.768   2.079   1.989 -0.2266 -0.0743 -0.2061
  674OD       C 3368   4.017   1.944   2.345  0.0196  0.0122  0.3206
  674OD       C 3369   3.943   1.543   2.431 -0.0936 -0.1564 -0.0331
  674OD       C 3370   3.658   1.115   2.466  0.2784 -0.0378 -0.0590
  675OD       C 3371   2.879   0.375   3.446  0.1924  0.1008  0.0170
  675OD       C 3372   2.780   0.672   3.783 -0.2394  0.0106  0.1472
  675OD       C 3373   2.591   0.889   3.997  0.1361  0.0202  0.0036
  675OD       C 3374   2.389   0.781   4.487 -0.0651 -0.1175 -0.1152
  675OD       C 3375   2.663   0.537   4.933 -0.1722 -0.3100  0.0106
  676OD       C 3376   9.389   4.591   6.780  0.0688 -0.1114 -0.1048
  676OD       C 3377   9.408   4.354   7.163  0.5134 -0.1995 -0.1069
  676OD       C 3378   9.544   4.294   7.625 -0.1007 -0.1104 -0.1236
  676OD       C 3379   9.274   4.261   7.983  0.2392  0.0266 -0.0487
  676OD       C 3380   8.846   4.380   8.012 -0.2268 -0.0316 -0.0542
  677OD       C 3381   4.787   1.088   2.777 -0.1218  0.0715  0.2744
  677OD       C 3382   5.073   0.701   2.531  0.2474  0.5173  0.1095
  677OD       C 3383   5.138   0.452   2.203 -0.1557 -0.0048  0.1375
  677OD       C 3384   5.345   0.150   2.203 -0.1548 -0.2227  0.0561
  677OD       C 3385   5.694  -0.040   2.063  0.0048 -0.1695  0.1898
  678OD       C 3386   8.262   7.096   4.660  0.1527 -0.0911 -0.0632
  678OD       C 3387   8.539   6.734   4.812  0.2236 -0.0345 -0.0170
  678OD       C 3388   8.341   6.350   4.648 -0.2529  0.0574 -0.4239
  678OD       C 3389   8.375   5.974   4.397 -0.0313  0.2097 -0.4012
  678OD       C 3390   8.506   5.583   4.640  0.2302 -0.2077 -0.0073
  679OD       C 3391   1.312   4.558   3.909 -0.0295 -0.1698 -0.0624
  679OD       C 3392   1.416   4.168   4.209  0.0330  0.1319  0.2910
  679OD       C 3393   1.648   3.757   4.400  0.3570  0.1831  0.0593
  679OD       C 3394   1.627   3.276   4.421  0.1255 -0.0729  0.0493
  679OD       C 3395   1.533   2.909   4.103  0.0370 -0.0626 -0.0781
  680OD       C 3396   9.056   6.758   3.208  0.2390 -0.2167 -0.0572
  680OD       C 3397   8.812   6.609   3.538  0.2035 -0.2415 -0.1516
  680OD       C 3398   8.533   6.332   3.517 -0.0258  0.1014  0.0017
  680OD       C 3399   8.172   6.224   3.663  0.4746 -0.1413  0.1732
  680OD       C 3400   8.063   5.818   3.975 -0.0094  0.0145  0.1766
  681OD       C 3401   5.842   6.506   4.343  0.1876 -0.0873  0.0781
  681OD       C 3402   5.900   6.343   4.878  0.0409  0.1463 -0.2759
  681OD       C 3403   6.046   6.137   5.349 -0.0614 -0.0399  0.4374
  681OD       C 3404   5.811   5.853   5.683  0.1312 -0.2965  0.0604
  681OD       C 3405   5.380   5.745   5.907  0.0134 -0.1090  0.0514
  682OD       C 3406   3.599   5.002   5.238 -0.0572 -0.0811  0.0101
  682OD       C 3407   3.788   5.285   5.656 -0.3995  0.2843 -0.1806
  682OD       C 3408   4.131   5.248   5.967 -0.0181  0.1940  0.2245
  682OD       C 3409   4.154   4.963   6.284  0.2115 -0.1721 -0.1148
  682OD       C 3410   4.383   4.723   6.522 -0.0042 -0.2799 -0.0200
  683OD       C 3411   4.429   2.319   6.948 -0.0394  0.1300 -0.2040
  683OD       C 3412   4.444   1.865   7.169  0.1616  0.0518  0.0818
  683OD       C 3413   4.195   1.628   7.404 -0.0532  0.0717 -0.1769
  683OD       C 3414   3.985   1.348   7.631  0.0101  0.1418 -0.0293
  683OD       C 3415   3.649   1.459   7.902  0.4200  0.0123 -0.2531
  684OD       C 3416   2.656   5.480   0.766  0.2412 -0.0963  0.0947
  684OD       C 3417   2.623   5.834   0.574  0.0739  0.0363  0.0699
  684OD       C 3418   2.573   6.086   0.262  0.0891 -0.1430  0.2227
  684OD       C 3419   2.797   6.282  -0.113  0.1956 -0.3308 -0.0651
  684OD       C 3420   2.887   6.161  -0.487  0.0077  0.0956 -0.1837
  685OD       C 3421   0.569   3.961   2.126  0.0147  0.0718 -0.1234
  685OD       C 3422   0.772   4.091   2.425  0.0538 -0.0631 -0.1830
  685OD       C 3423   0.920   4.057   2.862 -0.0578  0.1168  0.0534
  685OD       C 3424   0.765   3.903   3.247 -0.1949 -0.0633 -0.1919
  685OD       C 3425   0.468   3.915   3.558 -0.0417 -0.0594  0.0056
  686OD       C 3426   5.598   4.747   2.805  0.1724  0.0786  0.2795
  686OD       C 3427   5.687   4.885   3.193  0.0875  0.2761  0.3015
  686OD       C 3428   5.309   5.060   3.560 -0.0481  0.0705  0.0460
  686OD       C 3429   5.276   4.885   4.020 -0.1503 -0.2073 -0.1511
  686OD       C 3430   5.102   4.623   4.308  0.0171 -0.0318 -0.2305
  687OD       C 3431   4.192   0.687   2.591 -0.0290  0.0972 -0.0303
  687OD       C 3432   3.827   0.564   2.483  0.0402  0.0163 -0.5010
  687OD       C 3433   3.645   0.348   2.241  0.1698 -0.4977 -0.1974
  687OD       C 3434   3.354  -0.060   2.298 -0.0732  0.1416 -0.0572
  687OD       C 3435   3.278  -0.452   2.391  0.1546  0.3098 -0.1648
  688OD       C 3436   8.327   1.298   3.407  0.0352 -0.1150  0.0678
  688OD       C 3437   8.552   1.613   3.354  0.0452 -0.0672 -0.1308
  688OD       C 3438   8.397   1.922   3.081  0.0636 -0.1752  0.0153
  688OD       C 3439   8.083   2.067   3.052 -0.0849 -0.0039 -0.1537
  688OD       C 3440   7.700   2.341   2.964  0.1294  0.0131  0.0065
  689OD       C 3441   2.872   6.995   2.205 -0.0016 -0.1926 -0.2474
  689OD       C 3442   2.678   7.319   1.941 -0.0992  0.0127 -0.0761
  689OD       C 3443   2.409   7.667   1.960 -0.0564 -0.0723  0.0312
  689OD       C 3444   2.280   7.972   1.759  0.1397 -0.0874  0.0293
  689OD       C 3445   2.185   7.967   1.293 -0.1122 -0.0645  0.0178
  690OD       C 3446   5.663   6.083   6.091 -0.0920 -0.1503 -0.1032
  690OD       C 3447   5.980   6.334   5.848  0.1460  0.2396  0.3384
  690OD       C 3448   6.065   6.609   5.605  0.0496  0.3520 -0.0292
  690OD       C 3449   6.357   6.808   5.290 -0.1848 -0.0800 -0.3597
  690OD       C 3450   6.684   6.938   4.996  0.2062 -0.0485 -0.1863
  691OD       C 3451   5.587   0.574   1.753 -0.3620  0.0942 -0.0211
  691OD       C 3452   5.178   0.372   1.606 -0.2024  0.0584 -0.0026
  691OD       C 3453   5.044   0.270   1.178  0.0274  0.3177 -0.0890
  691OD       C 3454   5.233  -0.020   0.844 -0.0065  0.1956 -0.2705
  691OD       C 3455   5.360   0.061   0.352 -0.0289  0.1816  0.0889
  692OD       C 3456   3.952   0.377   4.903 -0.0541  0.1518  0.1823
  692OD       C 3457   3.591   0.550   4.969  0.2248  0.0638 -0.0670
  692OD       C 3458   3.159   0.513   4.748  0.2390 -0.3095 -0.0093
  692OD       C 3459   2.835   0.330   4.400 -0.1448  0.0169  0.1246
  692OD       C 3460   2.832   0.221   3.954  0.2229 -0.3660  0.0875
  693OD       C 3461   3.593   5.075   2.724 -0.2379  0.0996  0.0956
  693OD       C 3462   3.993   4.788   2.848  0.0375  0.0140 -0.1488
  693OD       C 3463   4.232   4.647   3.101 -0.0740 -0.1518  0.0875
  693OD       C 3464   4.423   4.747   3.421  0.0071 -0.3227 -0.2128
  693OD       C 3465   4.368   5.013   3.803  0.1779 -0.0477 -0.1798
  694OD       C 3466   5.572   6.049   5.144 -0.1497 -0.0174 -0.0040
  694OD       C 3467   5.381   5.696   5.291 -0.3212 -0.0163  0.2381
  694OD       C 3468   5.454   5.398   5.576 -0.0132 -0.0804  0.5764
  694OD       C 3469   5.497   5.155   5.933 -0.0296 -0.1291 -0.1084
  694OD       C 3470   5.308   4.884   6.219  0.1126  0.0940  0.1698
  695OD       C 3471   6.452   6.181   3.256  0.2136  0.2045 -0.1310
  695OD       C 3472   6.377   6.056   2.839 -0.1007  0.0587 -0.1450
  695OD       C 3473   6.390   6.060   2.399  0.1989  0.2243 -0.0986
  695OD       C 3474   6.428   6.238   2.044 -0.0793 -0.0021  0.4363
  695OD       C 3475   6.527   6.700   1.939 -0.1166  0.1746 -0.2331
  696OD       C 3476   8.371   2.634   6.221 -0.1755 -0.0498 -0.2590
  696OD       C 3477   8.720   2.839   6.046  0.0726  0.0555 -0.0793
  696OD       C 3478   9.044   2.932   5.667  0.0511  0.0104  0.0357
  696OD       C 3479   9.180   2.603   5.356  0.0384 -0.1455 -0.0661
  696OD       C 3480   9.143   2.187   5.356 -0.1344  0.3404  0.4617
  697OD       C 3481   2.142   2.858   6.433  0.1887 -0.3021 -0.1251
  697OD       C 3482   1.991   2.939   6.086  0.2770  0.0647  0.1776
  697OD       C 3483   1.980   3.245   5.934  0.1358  0.3238  0.0462
  697OD       C 3484   1.888   3.529   5.682 -0.0701  0.1937 -0.0937
  697OD       C 3485   1.929   3.877   5.534  0.0857 -0.1496  0.0989
  698OD       C 3486   2.444   2.657   6.018  0.1185  0.0960 -0.0361
  698OD       C 3487   2.043   2.423   6.215  0.0242  0.0202 -0.3010
  698OD       C 3488   1.792   2.101   6.397  0.2553  0.0333  0.0493
  698OD       C 3489   1.731   1.873   6.711  0.0329 -0.0938 -0.2219
  698OD       C 3490   1.865   1.548   6.916  0.1703 -0.1882 -0.0053
  699OD       C 3491   7.347   5.964   2.770  0.3236 -0.0156 -0.3286
  699OD       C 3492   7.573   6.273   2.852 -0.3082 -0.0562 -0.1546
  699OD       C 3493   7.433   6.648   2.854 -0.2271 -0.2454 -0.2535
  699OD       C 3494   7.503   7.160   2.928 -0.2538  0.1729  0.2782
  699OD       C 3495   7.589   7.332   3.329 -0.1656 -0.1597  0.4685
  700OD       C 3496   7.598   4.200   7.165  0.1508 -0.0703 -0.0785
  700OD       C 3497   7.835   4.580   7.220 -0.3276  0.0934 -0.1713
  700OD       C 3498   8.190   4.762   7.049 -0.3022 -0.1196  0.0608
  700OD       C 3499   8.482   5.019   7.267 -0.0887 -0.1900 -0.0436
  700OD       C 3500   8.722   4.923   7.627 -0.1429  0.1328 -0.0449
  701OD       C 3501   3.329   2.599   6.585  0.0011  0.4115 -0.1644
  701OD       C 3502   2.951   2.409   6.579  0.0917 -0.0505  0.1816
  701OD       C 3503   2.590   2.358   6.399 -0.1847 -0.0904 -0.0105
  701OD       C 3504   2.266   2.043   6.468  0.1417  0.3176 -0.0173
  701OD       C 3505   2.242   1.720   6.683  0.2235  0.3219 -0.1491
  702OD       C 3506   5.070   7.063   5.042 -0.0965 -0.4294  0.0518
  702OD       C 3507   5.116   6.852   4.692  0.0134  0.0094  0.0024
  702OD       C 3508   5.347   6.576   4.338 -0.3950 -0.0193  0.1106
  702OD       C 3509   5.266   6.130   4.301  0.0687 -0.0828  0.1525
  702OD       C 3510   5.488   5.672   4.305  0.2784 -0.0511 -0.0349
  703OD       C 3511   2.806   0.402   1.009 -0.1020  0.1657  0.3329
  703OD       C 3512   2.887   0.897   0.969  0.0693  0.0476  0.0900
  703OD       C 3513   3.171   1.229   0.748 -0.0221 -0.0680 -0.0051
  703OD       C 3514   3.153   1.560   0.450  0.0357 -0.0964  0.0578
  703OD       C 3515   2.945   1.823   0.145 -0.1945  0.0424 -0.2432
  704OD       C 3516   8.238   4.740   5.467  0.2119  0.3514  0.0411
  704OD       C 3517   8.260   5.121   5.273  0.4267 -0.1617 -0.0542
  704OD       C 3518   8.489   5.377   5.129 -0.1422 -0.0575 -0.0841
  704OD       C 3519   8.845   5.492   4.993 -0.0347  0.2236 -0.2236
  704OD       C 3520   9.354   5.609   5.063 -0.1672 -0.0987  0.0820
  705OD       C 3521   7.208   2.186   6.917 -0.1219 -0.3830 -0.0623
  705OD       C 3522   7.239   2.576   7.185 -0.3565 -0.3690 -0.2151
  705OD       C 3523   7.418   2.878   7.376 -0.0587 -0.0660  0.1845
  705OD       C 3524   7.284   3.292   7.605  0.1864  0.1124  0.0383
  705OD       C 3525   7.024   3.458   7.969  0.1287 -0.0477 -0.1640
  706OD       C 3526   3.574   5.792   5.556 -0.0212  0.2671  0.0819
  706OD       C 3527   3.688   6.128   5.514 -0.0697  0.0738  0.1557
  706OD       C 3528   3.945   6.523   5.398  0.1732 -0.2401 -0.0327
  706OD       C 3529   3.746   6.834   5.201  0.0777 -0.1701  0.3211
  706OD       C 3530   3.700   7.265   5.186 -0.0527  0.1361 -0.2558
  707OD       C 3531   7.481   4.389   4.103 -0.4143 -0.1913 -0.0784
  707OD       C 3532   7.560   4.691   4.375 -0.0795 -0.4104  0.0173
  707OD       C 3533   7.503   5.130   4.412 -0.0680 -0.2790 -0.1408
  707OD       C 3534   7.708   5.576   4.512  0.0222  0.1240  0.2555
  707OD       C 3535   8.072   5.611   4.466 -0.1247 -0.2840  0.1532
  708OD       C 3536   3.683   6.788   6.875 -0.0740  0.0398 -0.0808
  708OD       C 3537   3.391   7.008   6.654  0.1373 -0.0029  0.0890
  708OD       C 3538   3.101   7.280   6.417 -0.0795 -0.0031 -0.1704
  708OD       C 3539   2.677   7.416   6.219  0.0269 -0.0937 -0.0526
  708OD       C 3540   2.414   7.688   5.973  0.1141  0.2305  0.0073
  709OD       C 3541   4.826   1.503   6.325 -0.2838  0.5809 -0.1845
  709OD       C 3542   5.176   1.568   6.582 -0.3188  0.0604  0.1262
  709OD       C 3543   5.471   1.239   6.806  0.0914 -0.2152 -0.0330
  709OD       C 3544   5.551   1.025   7.123  0.1305 -0.1318  0.3173
  709OD       C 3545   5.463   0.855   7.530  0.2889  0.2337 -0.2087
  710OD       C 3546   5.708   6.950   0.469  0.2284  0.3859 -0.1876
  710OD       C 3547   6.058   6.754   0.653  0.0936 -0.0924  0.0421
  710OD       C 3548   6.440   6.618   0.736  0.0698 -0.0961  0.0555
  710OD       C 3549   6.532   6.347   1.058  0.2103 -0.0954 -0.0803
  710OD       C 3550   6.598   5.906   1.158  0.2278  0.0492  0.1208
  711OD       C 3551   5.556   0.701   2.783  0.1978 -0.0523 -0.3080
  711OD       C 3552   5.209   0.799   3.050  0.0474 -0.1528 -0.1801
  711OD       C 3553   4.955   0.708   3.259 -0.3159 -0.2115 -0.0200
  711OD       C 3554   4.838   0.712   3.621  0.1806 -0.1307  0.0192
  711OD       C 3555   4.889   0.902   3.935  0.3449  0.1344  0.0021
  712OD       C 3556   7.845   2.472   1.338 -0.2211 -0.0659  0.0176
  712OD       C 3557   7.929   2.307   1.648 -0.1077 -0.1680 -0.0599
  712OD       C 3558   7.608   2.155   1.874  0.0662  0.1712  0.1137
  712OD       C 3559   7.716   1.796   2.001  0.2136  0.0029 -0.2467
  712OD       C 3560   7.520   1.629   2.391 -0.4631 -0.0513  0.2875
  713OD       C 3561   4.776   3.107   2.109 -0.0283 -0.0739  0.0523
  713OD       C 3562   4.712   2.727   2.368  0.1787 -0.2466 -0.1436
  713OD       C 3563   4.681   2.325   2.555  0.0746  0.2715 -0.1695
  713OD       C 3564   4.559   1.958   2.295 -0.3284  0.2882 -0.1665
  713OD       C 3565   4.800   1.494   2.010  0.1535 -0.0223  0.1269
  714OD       C 3566   0.521   2.511   4.869  0.4220 -0.0568 -0.2331
  714OD       C 3567   0.826   2.257   4.807  0.2966  0.2058 -0.1822
  714OD       C 3568   0.897   1.920   4.838 -0.0488  0.0765  0.1375
  714OD       C 3569   0.956   1.503   4.672 -0.1075  0.3218 -0.0119
  714OD       C 3570   1.038   1.060   4.768  0.0818  0.0572 -0.0510
  715OD       C 3571   1.018   6.345   7.074 -0.3078  0.1853 -0.1202
  715OD       C 3572   1.100   6.632   7.375  0.2279 -0.0045 -0.2144
  715OD       C 3573   1.480   6.924   7.466 -0.0934 -0.0287 -0.1979
  715OD       C 3574   1.627   7.376   7.383 -0.0611 -0.4824  0.0431
  715OD       C 3575   1.787   7.621   7.038 -0.3202 -0.1930 -0.0491
  716OD       C 3576   7.512   1.021   0.283  0.2724  0.0567 -0.0400
  716OD       C 3577   7.172   1.160   0.474  0.2504  0.0857  0.0783
  716OD       C 3578   6.820   1.155   0.731 -0.0573 -0.1078 -0.1104
  716OD       C 3579   6.520   0.813   0.737  0.1288 -0.0942 -0.1447
  716OD       C 3580   6.297   0.684   0.484 -0.1474 -0.1461  0.0218
  717OD       C 3581   1.106   2.005   2.287  0.0961  0.0269  0.2112
  717OD       C 3582   0.917   2.404   2.359 -0.4084 -0.2216  0.0495
  717OD       C 3583   0.828   2.758   2.197  0.2984  0.1145 -0.1229
  717OD       C 3584   0.841   3.160   2.371  0.1102  0.1599 -0.0296
  717OD       C 3585   0.653   3.474   2.405  0.3477 -0.0323  0.3074
  718OD       C 3586   4.530   1.428   1.170  0.0892 -0.1094 -0.1184
  718OD       C 3587   4.611   1.751   1.559  0.1088 -0.2710  0.1175
  718OD       C 3588   4.395   2.060   1.801 -0.0097  0.1770  0.1836
  718OD       C 3589   4.265   2.328   2.010  0.3065 -0.2588  0.0223
  718OD       C 3590   3.976   2.578   2.189  0.1502 -0.1447 -0.0996
  719OD       C 3591   8.601   7.078   7.109 -0.0449  0.2279  0.0522
  719OD       C 3592   8.629   7.342   6.750  0.3551 -0.2630 -0.1580
  719OD       C 3593   8.750   7.411   6.274  0.4025  0.2350 -0.1002
  719OD       C 3594   8.672   7.669   5.854 -0.0447 -0.2610  0.1484
  719OD       C 3595   8.721   8.000   5.561 -0.0116 -0.1469 -0.0320
  720OD       C 3596   4.888   5.877   7.177 -0.1012 -0.1335  0.3040
  720OD       C 3597   4.604   5.604   7.121 -0.0969 -0.1358  0.0544
  720OD       C 3598   4.307   5.333   7.322  0.4264  0.0210 -0.0231
  720OD       C 3599   4.138   4.860   7.346 -0.2077 -0.2146 -0.0378
  720OD       C 3600   4.111   4.529   7.267  0.1842 -0.0860 -0.1118
  721OD       C 3601   1.851   4.769   0.436  0.0200 -0.2690 -0.1787
  721OD       C 3602   2.126   5.211   0.360 -0.3354  0.1791 -0.3141
  721OD       C 3603   2.073   5.615   0.485 -0.1709  0.1135 -0.0926
  721OD       C 3604   1.978   5.776   0.924  0.2889 -0.0888  0.0069
  721OD       C 3605   1.898   6.016   1.259  0.1506  0.0745 -0.0012
  722OD       C 3606   3.242   3.280   2.484  0.1024  0.0821 -0.1880
  722OD       C 3607   2.975   3.400   2.230  0.0301 -0.3273 -0.2381
  722OD       C 3608   2.755   3.740   1.973 -0.1786  0.1820  0.2871
  722OD       C 3609   2.502   3.752   1.581 -0.0849  0.1560 -0.1246
  722OD       C 3610   2.545   3.962   1.155 -0.1278  0.0267  0.2888
  723OD       C 3611   1.940   2.047   5.898  0.1867  0.2312  0.0142
  723OD       C 3612   2.063   1.649   6.166  0.4414 -0.1770 -0.2116
  723OD       C 3613   2.056   1.336   6.452  0.0159  0.0199  0.2654
  723OD       C 3614   2.028   1.059   6.856 -0.0275 -0.1145 -0.2212
  723OD       C 3615   2.002   0.890   7.236 -0.3223  0.2148 -0.0821
  724OD       C 3616   9.425   5.918   1.087 -0.1479 -0.0473 -0.1614
  724OD       C 3617   9.660   6.132   0.872 -0.3351  0.0102  0.1067
  724OD       C 3618   9.925   6.295   0.542  0.1146  0.1355 -0.1125
  724OD       C 3619  10.383   6.345   0.504  0.3564  0.2260  0.1864
  724OD       C 3620  10.707   6.155   0.314  0.0460 -0.1288 -0.0943
  725OD       C 3621   3.379   5.536   2.761  0.0100  0.1687 -0.0231
  725OD       C 3622   3.745   5.483   3.113 -0.2819 -0.1089 -0.0999
  725OD       C 3623   4.049   5.543   3.522  0.3696 -0.0165  0.0143
  725OD       C 3624   4.017   5.404   3.889  0.1160  0.1680 -0.1663
  725OD       C 3625   4.318   5.278   4.327  0.0482 -0.0268  0.2197
  726OD       C 3626   0.087   0.335   2.046  0.4063  0.0839  0.0776
  726OD       C 3627   0.157  -0.088   1.913 -0.0160  0.0071  0.2601
  726OD       C 3628  -0.095  -0.434   1.865  0.1922 -0.0149 -0.2013
  726OD       C 3629  -0.105  -0.844   1.974 -0.2399 -0.1159 -0.1564
  726OD       C 3630  -0.170  -1.338   2.082 -0.1777  0.1154 -0.0325
  727OD       C 3631   9.183   1.540   6.554 -0.1592  0.2876 -0.0021
  727OD       C 3632   8.792   1.606   6.346  0.3579  0.3089  0.0171
  727OD       C 3633   8.729   1.726   5.968 -0.1035  0.4256  0.0968
  727OD       C 3634   8.695   1.794   5.593 -0.1912 -0.0834  0.0798
  727OD       C 3635   8.718   1.831   5.155 -0.2722  0.3410 -0.1352
  728OD       C 3636   6.504   1.197   0.352 -0.2229  0.2452 -0.2542
  728OD       C 3637   6.129   1.499   0.187 -0.1044 -0.0351  0.2814
  728OD       C 3638   5.661   1.460   0.067  0.0113 -0.1934  0.1164
  728OD       C 3639   5.236   1.392   0.193  0.2031  0.0927 -0.0945
  728OD       C 3640   4.779   1.637   0.280  0.1341  0.0693 -0.1515
  729OD       C 3641   3.672   3.139   3.875  0.0558  0.1564 -0.0624
  729OD       C 3642   3.421   3.041   3.570 -0.0017  0.0417 -0.3007
  729OD       C 3643   3.119   2.809   3.358  0.0090 -0.1542  0.0491
  729OD       C 3644   2.823   2.728   2.941  0.1409 -0.0546 -0.1309
  729OD       C 3645   2.399   2.430   2.939 -0.0753 -0.0276 -0.2357
  730OD       C 3646   7.305   4.862   2.780 -0.0492  0.0569  0.4635
  730OD       C 3647   7.773   5.030   2.858 -0.0189  0.0640 -0.1062
  730OD       C 3648   8.154   4.883   3.110  0.1930 -0.2476 -0.1618
  730OD       C 3649   8.374   4.483   3.339  0.0064 -0.0444  0.3174
  730OD       C 3650   8.752   4.238   3.665  0.0869  0.3321 -0.0607
  731OD       C 3651   1.073   2.873   0.852 -0.0755  0.0695 -0.1959
  731OD       C 3652   1.161   2.496   0.724 -0.1474 -0.1352  0.1395
  731OD       C 3653   1.468   2.171   0.855  0.0853 -0.1625 -0.0558
  731OD       C 3654   1.848   2.114   1.182 -0.2026 -0.1137  0.1175
  731OD       C 3655   2.162   2.130   1.375 -0.0487  0.1473 -0.0663
  732OD       C 3656   1.381   7.103   3.795  0.0433 -0.1707  0.3434
  732OD       C 3657   1.783   6.977   3.582 -0.1156 -0.1027  0.0659
  732OD       C 3658   2.165   6.932   3.281  0.0846  0.1425 -0.2312
  732OD       C 3659   2.231   7.101   2.835 -0.1602  0.3744 -0.1160
  732OD       C 3660   2.423   7.216   2.402 -0.0021 -0.1732  0.1612
  733OD       C 3661   8.429   1.642   2.270 -0.2722 -0.0079 -0.2716
  733OD       C 3662   8.503   1.844   2.576  0.0290  0.0866 -0.2295
  733OD       C 3663   8.767   1.637   2.872  0.1835  0.0503  0.0502
  733OD       C 3664   8.933   1.289   3.114  0.0097  0.0701 -0.1481
  733OD       C 3665   8.725   0.925   3.317 -0.0235 -0.0904  0.0204
  734OD       C 3666   3.334   0.057   4.778 -0.2082 -0.1365 -0.0423
  734OD       C 3667   2.843   0.045   4.914 -0.0104 -0.1831 -0.0466
  734OD       C 3668   2.363   0.222   5.097 -0.2552  0.2656  0.2938
  734OD       C 3669   2.175   0.633   4.993  0.1177 -0.2578 -0.2421
  734OD       C 3670   2.117   1.038   4.864 -0.3356  0.2078 -0.0106
  735OD       C 3671   3.433   2.705   3.884  0.0141 -0.1741  0.0513
  735OD       C 3672   3.536   2.296   3.828  0.3716  0.2032 -0.0028
  735OD       C 3673   3.460   1.857   3.878  0.2150 -0.1587 -0.1157
  735OD       C 3674   3.161   1.506   3.859 -0.0271 -0.1298  0.0780
  735OD       C 3675   2.846   1.312   4.191 -0.0544  0.1466 -0.2618
  736OD       C 3676   7.329   1.577   4.753 -0.0345 -0.1876  0.4182
  736OD       C 3677   7.439   1.859   4.965  0.2053 -0.1903 -0.0247
  736OD       C 3678   7.398   2.281   4.958 -0.0146 -0.2024  0.0676
  736OD       C 3679   7.592   2.569   4.648  0.1475 -0.1418 -0.0395
  736OD       C 3680   7.799   2.812   4.382 -0.0277  0.0781  0.1086
  737OD       C 3681   1.846   3.352   2.895 -0.2814 -0.1686  0.2548
  737OD       C 3682   2.266   3.510   2.768  0.1948 -0.1093 -0.0468
  737OD       C 3683   2.667   3.310   2.679  0.3388 -0.0223  0.2734
  737OD       C 3684   2.772   2.907   2.468  0.2206 -0.0360  0.5027
  737OD       C 3685   2.906   2.940   2.078 -0.2039 -0.0904 -0.1325
  738OD       C 3686   8.300   4.780   1.618 -0.0839  0.2279 -0.0529
  738OD       C 3687   7.986   4.783   1.320  0.0882  0.2754  0.2766
  738OD       C 3688   7.601   4.723   1.592  0.4026 -0.0164 -0.1579
  738OD       C 3689   7.324   5.005   1.877 -0.0897 -0.0254  0.2550
  738OD       C 3690   7.113   5.448   1.869  0.0129  0.2535  0.0568
  739OD       C 3691   0.403   0.545   6.648 -0.1918  0.1506  0.3352
  739OD       C 3692   0.169   0.384   7.050 -0.2840  0.4177  0.3550
  739OD       C 3693   0.181   0.130   7.343  0.3057  0.0676 -0.1245
  739OD       C 3694   0.142  -0.029   7.792  0.2236  0.0806  0.2371
  739OD       C 3695   0.211  -0.130   8.154 -0.1515 -0.2535 -0.0660
  740OD       C 3696   7.625   3.105   0.974  0.0920 -0.1317  0.2583
  740OD       C 3697   8.015   3.249   0.780 -0.1232  0.0415 -0.2700
  740OD       C 3698   8.306   3.497   0.962 -0.2233  0.1401  0.1183
  740OD       C 3699   8.545   3.801   0.846 -0.0330 -0.0753  0.2498
  740OD       C 3700   8.468   4.132   1.025 -0.4672 -0.1003 -0.3023
  741OD       C 3701   2.472   4.567   2.565 -0.0378  0.1523  0.2786
  741OD       C 3702   2.795   4.290   2.665 -0.1662 -0.1484  0.0871
  741OD       C 3703   3.032   4.167   3.035  0.1961 -0.3419  0.0996
  741OD       C 3704   3.298   4.283   3.311  0.0135  0.2368 -0.1437
  741OD       C 3705   3.598   4.556   3.467 -0.0687  0.2827 -0.2596
  742OD       C 3706   0.257   4.511   4.941 -0.0834 -0.2189 -0.1618
  742OD       C 3707   0.347   4.686   5.352  0.2359 -0.1584 -0.2343
  742OD       C 3708   0.312   4.402   5.733  0.0781  0.0791  0.0894
  742OD       C 3709   0.652   4.124   5.909 -0.1399  0.0164 -0.0584
  742OD       C 3710   0.831   3.794   5.966 -0.3044  0.1414  0.0865
  743OD       C 3711   1.198   3.226   2.099 -0.0138  0.0153  0.3841
  743OD       C 3712   1.294   2.816   2.280  0.0086 -0.2382 -0.1228
  743OD       C 3713   1.392   2.328   2.079  0.0466 -0.0803  0.2029
  743OD       C 3714   1.320   2.078   1.773  0.1841 -0.0063  0.1028
  743OD       C 3715   1.274   1.695   1.954 -0.3213 -0.0097 -0.0111
  744OD       C 3716   7.845   2.597   2.097  0.1186 -0.0674  0.0035
  744OD       C 3717   7.866   2.346   2.426 -0.1252 -0.0367 -0.0894
  744OD       C 3718   8.221   2.239   2.621  0.5669 -0.1038 -0.2362
  744OD       C 3719   8.560   2.541   2.896 -0.4918  0.1944  0.1972
  744OD       C 3720   8.657   2.743   3.212 -0.2550  0.0161 -0.0445
  745OD       C 3721   2.813   6.636   0.426 -0.0910 -0.0581 -0.0919
  745OD       C 3722   2.776   6.332   0.609  0.1031 -0.1953  0.0145
  745OD       C 3723   3.045   6.095   0.940  0.0731 -0.1025 -0.2856
  745OD       C 3724   2.954   5.615   1.127 -0.2800 -0.0745  0.1139
  745OD       C 3725   2.879   5.117   1.106 -0.2626  0.0397 -0.0612
  746OD       C 3726   0.201   2.772   6.276  0.2466  0.0041 -0.0665
  746OD       C 3727   0.235   2.912   6.681  0.0231 -0.0578 -0.2022
  746OD       C 3728   0.110   2.834   7.094 -0.0069 -0.3754  0.0562
  746OD       C 3729  -0.241   2.727   7.353  0.1475  0.0820  0.1541
  746OD       C 3730  -0.488   2.705   7.740  0.1123 -0.0365  0.0583
  747OD       C 3731   6.964   0.704   3.841  0.0037  0.2329 -0.1137
  747OD       C 3732   6.794   0.238   3.906  0.1062  0.1490 -0.3160
  747OD       C 3733   6.950  -0.092   4.271  0.0388 -0.0156 -0.0906
  747OD       C 3734   7.068  -0.308   4.695 -0.1554  0.1588  0.0218
  747OD       C 3735   7.160  -0.085   5.074 -0.0801  0.1668  0.0096
  748OD       C 3736   5.748   5.676   6.590 -0.0488 -0.2257 -0.0063
  748OD       C 3737   6.110   5.603   6.592 -0.0144 -0.1148  0.2180
  748OD       C 3738   6.517   5.625   6.790 -0.1256 -0.3345  0.0073
  748OD       C 3739   6.827   5.772   6.986 -0.0038 -0.0334 -0.0140
  748OD       C 3740   7.178   5.598   6.824  0.0081  0.2111  0.4404
  749OD       C 3741   1.391   4.590   5.806  0.0430 -0.0604 -0.0701
  749OD       C 3742   1.650   4.294   5.519 -0.2204  0.2878  0.0614
  749OD       C 3743   2.038   4.361   5.316 -0.2599 -0.1834  0.2730
  749OD       C 3744   2.251   4.519   4.897 -0.1060  0.2906 -0.0767
  749OD       C 3745   2.636   4.495   4.821  0.0554  0.2318 -0.3460
  750OD       C 3746   7.750   5.015   5.149  0.2546 -0.2258 -0.2829
  750OD       C 3747   7.772   4.644   5.362 -0.2489  0.0446  0.0836
  750OD       C 3748   7.948   4.538   5.790  0.0857 -0.0201 -0.1704
  750OD       C 3749   8.149   4.478   6.191  0.1358 -0.2071  0.2651
  750OD       C 3750   8.434   4.545   6.513 -0.2265  0.2558 -0.1533
  751OD       C 3751   2.071   1.132   4.369 -0.0972 -0.0194 -0.1027
  751OD       C 3752   1.645   0.988   4.142  0.0741 -0.0360  0.2320
  751OD       C 3753   1.291   0.644   4.172 -0.1608 -0.3763  0.2955
  751OD       C 3754   1.222   0.391   3.843 -0.0271 -0.1467  0.0476
  751OD       C 3755   0.995   0.089   3.571  0.0989  0.0140 -0.0090
  752OD       C 3756   8.200   1.519   1.821  0.0762  0.0885  0.0421
  752OD       C 3757   8.111   1.698   1.507  0.1027  0.1791 -0.3073
  752OD       C 3758   8.183   1.984   1.244  0.3472  0.0025  0.1846
  752OD       C 3759   8.231   2.297   0.958 -0.0043 -0.3211  0.1477
  752OD       C 3760   8.626   2.479   0.901  0.4326 -0.2488 -0.0835
  753OD       C 3761   2.882   3.564   6.666 -0.1261 -0.0156 -0.2220
  753OD       C 3762   3.116   3.598   6.402  0.1044 -0.3275  0.1604
  753OD       C 3763   3.398   3.908   6.352 -0.2430 -0.0824 -0.0762
  753OD       C 3764   3.418   4.168   6.701 -0.3822 -0.0290  0.2205
  753OD       C 3765   3.739   4.281   7.044 -0.2728 -0.3485  0.2068
  754OD       C 3766   6.833   0.826   2.615 -0.1366 -0.4210 -0.0838
  754OD       C 3767   6.883   1.206   2.909 -0.1510 -0.0790  0.1947
  754OD       C 3768   7.105   1.520   2.948  0.0030 -0.3350  0.1985
  754OD       C 3769   7.255   1.909   2.806 -0.0929 -0.0564 -0.0065
  754OD       C 3770   7.439   2.116   2.397 -0.2667  0.3551  0.1726
  755OD       C 3771   0.617   6.991   1.250 -0.2680 -0.0597  0.0551
  755OD       C 3772   0.782   6.839   1.458 -0.0020 -0.0123  0.0949
  755OD       C 3773   0.691   6.646   1.837  0.1454 -0.1975  0.4324
  755OD       C 3774   0.326   6.612   2.216  0.2279  0.0958 -0.1411
  755OD       C 3775   0.244   6.101   2.288  0.2399  0.0728  0.2548
  756OD       C 3776   3.700   2.557   2.612 -0.2219  0.2435  0.1643
  756OD       C 3777   3.387   2.363   2.906  0.0977 -0.1533 -0.2104
  756OD       C 3778   3.219   2.357   3.301  0.0553 -0.2258 -0.0749
  756OD       C 3779   3.045   2.423   3.676 -0.1391 -0.0803  0.1787
  756OD       C 3780   2.800   2.523   4.006  0.2200 -0.1095 -0.2685
  757OD       C 3781   3.992   3.634   2.123 -0.1376  0.0285 -0.1105
  757OD       C 3782   3.834   3.311   2.340 -0.0174  0.2808 -0.1325
  757OD       C 3783   3.621   2.966   2.381 -0.2598 -0.1224  0.1120
  757OD       C 3784   3.263   2.715   2.457  0.0734 -0.1390 -0.3139
  757OD       C 3785   3.346   2.196   2.394 -0.1850  0.0284  0.0720
  758OD       C 3786   6.977   1.023   5.322  0.1147 -0.1209 -0.1207
  758OD       C 3787   6.606   1.175   5.170 -0.0910  0.1023 -0.0931
  758OD       C 3788   6.264   1.442   5.089  0.2145  0.2243  0.1880
  758OD       C 3789   5.972   1.655   5.271  0.0856 -0.0276  0.3212
  758OD       C 3790   5.790   1.869   5.430 -0.1723 -0.0281  0.1313
  759OD       C 3791   1.416   4.103   2.059 -0.1498 -0.1606 -0.2166
  759OD       C 3792   1.618   3.635   2.195 -0.0080  0.0211  0.0420
  759OD       C 3793   1.380   3.425   2.584  0.0171 -0.1069  0.0552
  759OD       C 3794   1.037   3.489   2.898 -0.0387  0.0833 -0.0297
  759OD       C 3795   1.129   3.525   3.346  0.0583 -0.4806 -0.0635
  760OD       C 3796   2.788   5.770   1.914  0.0955 -0.2122 -0.0495
  760OD       C 3797   2.955   6.096   2.144 -0.1722 -0.0117  0.0306
  760OD       C 3798   2.852   6.374   2.431 -0.0995 -0.2178  0.0835
  760OD       C 3799   3.008   6.557   2.905  0.2247  0.2094 -0.1509
  760OD       C 3800   2.850   6.680   3.372  0.0820 -0.1356 -0.0066
  761OD       C 3801   5.397   0.944   2.260 -0.2984 -0.1571 -0.2312
  761OD       C 3802   5.123   0.831   1.888 -0.1180 -0.3179  0.2335
  761OD       C 3803   4.691   0.958   1.864 -0.3999 -0.0217 -0.1824
  761OD       C 3804   4.199   0.789   1.648  0.0361  0.3457  0.1053
  761OD       C 3805   3.876   0.507   1.782 -0.0395  0.0779  0.0855
  762OD       C 3806   7.603   0.206   0.057 -0.3070  0.2722  0.1101
  762OD       C 3807   7.176  -0.066   0.161  0.0049  0.1255  0.0308
  762OD       C 3808   7.063  -0.262   0.667 -0.2235  0.3371 -0.1305
  762OD       C 3809   7.297  -0.194   1.108  0.1449  0.1294 -0.0705
  762OD       C 3810   7.434   0.014   1.483 -0.0039  0.2065 -0.1076
  763OD       C 3811   6.177   1.571   4.120  0.0291  0.0559  0.1551
  763OD       C 3812   6.531   1.366   4.184 -0.1894 -0.1891 -0.1337
  763OD       C 3813   6.826   1.281   4.343 -0.0651  0.0465  0.1937
  763OD       C 3814   7.200   1.163   4.267 -0.0546  0.2982  0.1734
  763OD       C 3815   7.465   1.128   4.554  0.0389  0.1673  0.0266
  764OD       C 3816   0.299   6.478   5.108 -0.0808 -0.0852  0.1747
  764OD       C 3817   0.360   6.869   5.107  0.0216  0.1883 -0.0489
  764OD       C 3818   0.690   7.198   5.088 -0.0791  0.0262 -0.0197
  764OD       C 3819   1.020   7.056   4.933  0.0202 -0.1300 -0.1242
  764OD       C 3820   1.479   7.132   4.795 -0.0684 -0.0396  0.1253
  765OD       C 3821   7.008   4.681   3.631 -0.0347  0.0583 -0.1353
  765OD       C 3822   7.393   4.840   3.704 -0.1231  0.2426 -0.1133
  765OD       C 3823   7.699   4.924   3.381  0.1383  0.0127  0.1594
  765OD       C 3824   7.682   5.422   3.120 -0.1339  0.1096  0.0074
  765OD       C 3825   7.340   5.505   2.875 -0.2642  0.2863  0.0006
  766OD       C 3826   9.265   5.396   0.096  0.1444  0.1611 -0.0722
  766OD       C 3827   9.705   5.345   0.204  0.0375  0.1449  0.0229
  766OD       C 3828  10.032   5.327   0.474 -0.2037 -0.1216 -0.2829
  766OD       C 3829  10.292   5.142   0.712 -0.0160  0.1808 -0.0686
  766OD       C 3830  10.383   5.122   1.130  0.0297  0.1975  0.0064
  767OD       C 3831   1.063   2.071   2.788 -0.0673 -0.1054  0.0744
  767OD       C 3832   1.277   2.024   3.132  0.1186 -0.0873 -0.1460
  767OD       C 3833   1.360   2.285   3.520  0.0708 -0.4647  0.3496
  767OD       C 3834   1.406   2.423   3.973 -0.1677 -0.1387 -0.1209
  767OD       C 3835   1.091   2.437   4.359  0.0681 -0.0913  0.0854
  768OD       C 3836   5.466   1.829   1.863  0.2187  0.1364 -0.2568
  768OD       C 3837   5.341   2.236   1.808  0.1506 -0.0975 -0.0691
  768OD       C 3838   5.090   2.535   1.501  0.1633  0.1313 -0.1290
  768OD       C 3839   4.802   2.886   1.611  0.0381  0.1301  0.3261
  768OD       C 3840   4.669   3.266   1.658 -0.1250  0.0864 -0.0429
  769OD       C 3841   8.444   4.319   5.707  0.0278  0.0689  0.4214
  769OD       C 3842   8.698   4.112   5.279 -0.3135 -0.3740 -0.0145
  769OD       C 3843   9.142   3.965   5.320 -0.1834 -0.0891  0.0989
  769OD       C 3844   9.410   3.983   5.718  0.0638 -0.0291  0.1064
  769OD       C 3845   9.790   3.812   5.837 -0.0195 -0.1245  0.1443
  770OD       C 3846   5.842   4.838   4.878 -0.2087  0.0043  0.0653
  770OD       C 3847   6.214   4.795   4.882 -0.1547 -0.2311 -0.2194
  770OD       C 3848   6.402   4.409   4.933  0.3158  0.2065  0.0965
  770OD       C 3849   6.634   4.130   4.753  0.1236  0.0120  0.0031
  770OD       C 3850   6.930   3.894   4.406  0.1204 -0.0086  0.0093
  771OD       C 3851   5.211   5.848   0.663  0.1825 -0.0267 -0.1274
  771OD       C 3852   5.075   5.344   0.752  0.0874  0.0622 -0.0927
  771OD       C 3853   4.959   5.015   0.687 -0.0654 -0.1518 -0.2377
  771OD       C 3854   4.716   4.642   0.752  0.0347  0.0820  0.1020
  771OD       C 3855   4.787   4.156   0.816 -0.0481 -0.0275 -0.1166
  772OD       C 3856   4.449   4.926   2.768  0.1112  0.0564 -0.0776
  772OD       C 3857   4.115   5.163   2.556  0.3279  0.0716  0.0692
  772OD       C 3858   3.809   5.440   2.367  0.0212 -0.4154  0.1077
  772OD       C 3859   3.656   5.360   1.932 -0.0677  0.2801  0.1426
  772OD       C 3860   3.288   5.442   1.681  0.1733  0.2668 -0.3205
  773OD       C 3861   7.575   2.767   1.647  0.0971 -0.2051  0.0328
  773OD       C 3862   7.320   2.331   1.529  0.0063 -0.0347  0.0384
  773OD       C 3863   7.004   1.974   1.476 -0.1660  0.0024  0.1904
  773OD       C 3864   6.833   1.597   1.596 -0.1840 -0.3141  0.1095
  773OD       C 3865   6.534   1.220   1.678  0.2972 -0.2527 -0.0462
  774OD       C 3866   2.634   0.592   2.403  0.0303 -0.0588  0.2087
  774OD       C 3867   2.440   0.327   2.743 -0.2921  0.1047  0.0553
  774OD       C 3868   2.658   0.080   3.046 -0.2451 -0.1548  0.1112
  774OD       C 3869   2.616  -0.081   3.524  0.2422 -0.1977 -0.0140
  774OD       C 3870   2.840  -0.285   3.840  0.3151 -0.2606 -0.3176
  775OD       C 3871   9.288   2.931   1.420  0.1363 -0.0882 -0.0751
  775OD       C 3872   8.899   2.695   1.373 -0.1484  0.3393  0.1278
  775OD       C 3873   8.840   2.292   1.297  0.1381 -0.4986  0.0302
  775OD       C 3874   9.046   1.829   1.426 -0.1558 -0.0259 -0.0971
  775OD       C 3875   9.340   1.600   1.267  0.2073  0.0971 -0.0064
  776OD       C 3876   2.362   2.556   2.505 -0.0974 -0.2931 -0.3385
  776OD       C 3877   2.517   2.105   2.501 -0.3438 -0.0092  0.1857
  776OD       C 3878   2.607   1.661   2.241 -0.2629 -0.0385 -0.1809
  776OD       C 3879   3.000   1.450   2.173 -0.2606 -0.1414 -0.1474
  776OD       C 3880   3.284   1.232   2.057  0.1098  0.0664  0.2028
  777OD       C 3881   0.715   2.856   6.254  0.0232 -0.4475 -0.0768
  777OD       C 3882   1.131   2.658   6.498 -0.2313 -0.0690 -0.1765
  777OD       C 3883   1.319   2.259   6.407 -0.1227 -0.1178 -0.0043
  777OD       C 3884   1.286   1.771   6.600  0.2009 -0.0674 -0.2051
  777OD       C 3885   1.417   1.338   6.842 -0.3504 -0.1822  0.1317
  778OD       C 3886   2.912   5.022   0.652 -0.0578  0.4590  0.2725
  778OD       C 3887   2.900   5.411   0.277  0.1678  0.3480 -0.1199
  778OD       C 3888   2.966   5.811   0.151  0.3651  0.0312  0.1399
  778OD       C 3889   3.156   5.990  -0.123  0.0142  0.3997 -0.1655
  778OD       C 3890   3.470   6.154  -0.372 -0.3909  0.0241  0.0945
  779OD       C 3891   8.658   5.069   1.380 -0.4488  0.1305  0.3352
  779OD       C 3892   9.073   5.107   1.624  0.0798  0.0208  0.2493
  779OD       C 3893   9.294   4.868   1.924 -0.0138  0.0436  0.1275
  779OD       C 3894   9.677   4.639   1.903 -0.0868 -0.0701 -0.2961
  779OD       C 3895   9.744   4.260   1.984 -0.0132  0.2969 -0.0534
  780OD       C 3896   4.712   1.227   5.209  0.1330  0.1564 -0.0930
  780OD       C 3897   4.377   1.332   5.184 -0.2208  0.0048 -0.0447
  780OD       C 3898   4.067   1.656   5.113 -0.2298  0.2536  0.1228
  780OD       C 3899   3.651   1.602   5.248  0.4920  0.2034  0.3230
  780OD       C 3900   3.285   1.451   5.135  0.2416 -0.0701 -0.1360
  781OD       C 3901   8.149   5.433   2.767 -0.2670 -0.1890  0.2407
  781OD       C 3902   8.271   5.503   3.220  0.1284  0.0853 -0.1070
  781OD       C 3903   8.429   5.707   3.620 -0.0346  0.0475 -0.2045
  781OD       C 3904   8.618   5.857   3.950 -0.0614  0.1146  0.4199
  781OD       C 3905   8.827   5.731   4.241 -0.1441  0.0006  0.0063
  782OD       C 3906   6.232   5.092   1.520  0.0789 -0.2500  0.0938
  782OD       C 3907   6.413   5.287   1.798  0.0723 -0.2676  0.0763
  782OD       C 3908   6.701   5.240   2.172  0.2132 -0.1924 -0.0710
  782OD       C 3909   6.857   4.878   2.443 -0.4296  0.0738  0.0990
  782OD       C 3910   6.890   4.656   2.778 -0.3282 -0.1640  0.1166
  783OD       C 3911   3.552   0.177   6.813 -0.2163  0.0244 -0.0142
  783OD       C 3912   3.496   0.363   6.318 -0.3095  0.0123  0.1736
  783OD       C 3913   3.163   0.394   5.996  0.3617  0.3535  0.2452
  783OD       C 3914   2.909   0.511   5.795  0.0109  0.3472  0.0403
  783OD       C 3915   2.665   0.268   5.575 -0.2667  0.1570 -0.0599
  784OD       C 3916   5.756   2.316   4.634  0.0924  0.0778  0.0924
  784OD       C 3917   6.020   2.629   4.945 -0.0309 -0.3396 -0.0368
  784OD       C 3918   6.049   3.089   4.965  0.0478  0.0781 -0.2239
  784OD       C 3919   5.920   3.436   4.703 -0.0261 -0.0896  0.0337
  784OD       C 3920   5.736   3.822   4.523 -0.0234  0.3145  0.0209
  785OD       C 3921   4.534   5.688   6.646 -0.1232 -0.1493  0.1079
  785OD       C 3922   4.366   5.997   6.862  0.0022  0.1462 -0.1356
  785OD       C 3923   4.481   6.262   7.183 -0.1107 -0.2881  0.0999
  785OD       C 3924   4.293   6.365   7.616  0.0014 -0.1665  0.3783
  785OD       C 3925   4.540   6.648   7.950 -0.1147  0.1127  0.2379
  786OD       C 3926   7.746   2.912   0.496 -0.1440 -0.1866 -0.2859
  786OD       C 3927   7.733   3.292   0.165 -0.1555 -0.2470  0.0573
  786OD       C 3928   7.452   3.279  -0.166 -0.0189  0.0110  0.1715
  786OD       C 3929   7.144   3.481  -0.074  0.0203  0.1075  0.0123
  786OD       C 3930   6.825   3.466   0.310  0.3246  0.0213 -0.0407
  787OD       C 3931   2.115   3.682   2.264  0.1581  0.0782  0.0655
  787OD       C 3932   2.178   3.267   2.320  0.2875  0.1233 -0.1547
  787OD       C 3933   1.939   3.062   2.502  0.2546  0.2383 -0.0066
  787OD       C 3934   1.903   2.601   2.350  0.0402  0.2186 -0.1973
  787OD       C 3935   2.007   2.254   2.215  0.0001  0.2421  0.0909
  788OD       C 3936   1.868   2.463   4.214  0.0284 -0.2264  0.1327
  788OD       C 3937   1.709   2.686   4.542  0.0070  0.0749  0.3169
  788OD       C 3938   1.266   2.914   4.497  0.0226 -0.2688 -0.1199
  788OD       C 3939   0.942   3.164   4.711  0.3490 -0.0940 -0.0834
  788OD       C 3940   0.498   3.018   4.747 -0.1220 -0.0075 -0.0202
  789OD       C 3941   9.170   3.142   6.120 -0.0269  0.0781  0.0651
  789OD       C 3942   8.865   3.206   6.450  0.0720  0.2149 -0.2175
  789OD       C 3943   8.646   3.649   6.570  0.1421  0.0657 -0.1177
  789OD       C 3944   8.519   3.777   7.035 -0.0227 -0.1011 -0.1564
  789OD       C 3945   8.341   3.369   7.382 -0.3003  0.0812 -0.0033
  790OD       C 3946   0.503   3.033   5.586 -0.0993 -0.0395 -0.1942
  790OD       C 3947   0.597   3.431   5.655 -0.1503 -0.0429  0.0012
  790OD       C 3948   0.587   3.791   5.394  0.2049  0.1746  0.0018
  790OD       C 3949   0.295   4.145   5.309  0.2551 -0.0488 -0.0282
  790OD       C 3950  -0.095   4.405   5.341  0.0089  0.0175  0.1716
  791OD       C 3951   1.903   4.449   6.750 -0.3031  0.0400  0.0810
  791OD       C 3952   2.252   4.630   6.635  0.0758 -0.0403 -0.1869
  791OD       C 3953   2.575   4.860   6.801 -0.1830 -0.1269 -0.2973
  791OD       C 3954   2.823   5.171   6.814  0.1847  0.2182 -0.1491
  791OD       C 3955   3.114   5.361   6.996  0.4202  0.1122  0.0292
  792OD       C 3956   8.226   2.526   6.740  0.0983 -0.0043 -0.1310
  792OD       C 3957   7.972   2.428   6.443  0.0582  0.0130 -0.1212
  792OD       C 3958   7.949   2.412   6.043  0.2368  0.0516 -0.2610
  792OD       C 3959   7.687   2.271   5.690 -0.0269 -0.0425 -0.1226
  792OD       C 3960   7.801   2.020   5.263  0.4815 -0.1056  0.2345
  793OD       C 3961   9.328   5.962   2.656  0.1583 -0.0077 -0.0194
  793OD       C 3962   9.661   6.011   2.835 -0.2377 -0.0822  0.2297
  793OD       C 3963  10.029   6.228   2.677  0.1580 -0.2335 -0.0765
  793OD       C 3964  10.335   6.389   2.741 -0.0476 -0.0331 -0.3179
  793OD       C 3965  10.400   6.819   2.937  0.0219  0.0959 -0.2016
  794OD       C 3966   5.442   5.869   2.435 -0.1309 -0.4949  0.2944
  794OD       C 3967   5.789   5.637   2.247 -0.3724 -0.1865  0.0300
  794OD       C 3968   6.003   5.302   2.479 -0.2890  0.0447 -0.3459
  794OD       C 3969   6.344   5.049   2.399  0.1882 -0.0299 -0.0870
  794OD       C 3970   6.474   4.509   2.433  0.1541  0.1594  0.0351
  795OD       C 3971   7.324   0.416   6.621  0.1357  0.1634 -0.1792
  795OD       C 3972   7.219   0.024   6.853  0.5460  0.1106 -0.0558
  795OD       C 3973   7.207  -0.339   6.511 -0.2094  0.1284 -0.4857
  795OD       C 3974   7.388  -0.529   6.148 -0.2400 -0.0253  0.1205
  795OD       C 3975   7.506  -0.232   5.799  0.1197 -0.0568 -0.0400
  796OD       C 3976   7.964   2.139   6.899  0.0442 -0.1759 -0.0416
  796OD       C 3977   7.707   2.301   7.128  0.0693  0.2177  0.0900
  796OD       C 3978   7.669   2.498   7.496 -0.1123 -0.1924 -0.0095
  796OD       C 3979   7.573   2.473   7.950 -0.0154  0.3621  0.1144
  796OD       C 3980   7.464   2.668   8.385 -0.3850 -0.1015  0.0307
  797OD       C 3981   5.276   1.336   1.785 -0.1936  0.1043 -0.3147
  797OD       C 3982   4.911   1.329   1.519 -0.1034 -0.1298  0.1339
  797OD       C 3983   4.447   1.234   1.580  0.2000 -0.1628 -0.0227
  797OD       C 3984   3.999   1.211   1.605 -0.1185  0.0441 -0.1896
  797OD       C 3985   3.699   1.349   1.274  0.0679  0.2332  0.0384
  798OD       C 3986   1.077   2.652   5.932  0.1121  0.0510  0.1050
  798OD       C 3987   0.955   2.282   6.077 -0.0729 -0.0093  0.0017
  798OD       C 3988   0.930   1.943   6.305  0.0429 -0.2218  0.0152
  798OD       C 3989   0.817   1.503   6.355  0.0915  0.1884 -0.0867
  798OD       C 3990   0.542   1.336   6.325 -0.0356 -0.1669  0.1276
  799OD       C 3991   7.558   4.459   0.979  0.0188 -0.1826 -0.1233
  799OD       C 3992   7.633   4.157   0.724  0.1414 -0.0103  0.3745
  799OD       C 3993   7.837   4.100   0.342 -0.2994 -0.0184  0.2433
  799OD       C 3994   8.219   4.268   0.063 -0.1618 -0.0916 -0.1420
  799OD       C 3995   8.436   4.263  -0.328  0.0871 -0.0536 -0.2653
  800OD       C 3996   1.812   2.022   1.800 -0.0028  0.0486  0.3550
  800OD       C 3997   1.818   1.609   1.921  0.4114  0.4469 -0.1634
  800OD       C 3998   1.950   1.340   2.297 -0.2777  0.1255  0.2403
  800OD       C 3999   1.840   1.184   2.744  0.0422  0.3199  0.0264
  800OD       C 4000   2.008   1.454   3.051  0.3783 -0.1575 -0.0283
  801OD       C 4001   8.449   2.340   4.365 -0.2535  0.3760 -0.1111
  801OD       C 4002   8.067   2.374   4.584  0.0845  0.1377 -0.0729
  801OD       C 4003   7.876   2.008   4.692 -0.1019 -0.0454 -0.0879
  801OD       C 4004   7.775   1.608   4.483  0.0569 -0.0426  0.1189
  801OD       C 4005   7.679   1.261   4.080  0.1354 -0.0075  0.1594
  802OD       C 4006   5.218   3.621   2.604  0.1369  0.1998  0.0804
  802OD       C 4007   5.392   3.969   2.705 -0.2152  0.0487 -0.0472
  802OD       C 4008   5.660   4.263   2.597 -0.0675  0.2142 -0.0633
  802OD       C 4009   6.048   4.439   2.816 -0.0939 -0.2237 -0.3612
  802OD       C 4010   6.229   4.691   3.166  0.0534 -0.1276  0.4494
  803OD       C 4011   6.647   3.819   5.174 -0.0245 -0.3395  0.1112
  803OD       C 4012   6.472   3.789   5.557  0.2146 -0.5254  0.0993
  803OD       C 4013   6.237   3.668   5.924 -0.0436  0.2617 -0.2789
  803OD       C 4014   6.107   3.903   6.227  0.2573 -0.0615  0.1292
  803OD       C 4015   5.841   3.934   6.480 -0.1633  0.3257 -0.1084
  804OD       C 4016   6.728   2.764   5.617 -0.0027 -0.2693  0.0935
  804OD       C 4017   6.588   2.761   6.005  0.0680  0.2024 -0.1355
  804OD       C 4018   6.562   2.648   6.479  0.1369 -0.1291 -0.1760
  804OD       C 4019   6.350   2.411   6.701 -0.3028 -0.0495 -0.0050
  804OD       C 4020   5.960   2.059   6.702  0.0258 -0.2950 -0.0224
  805OD       C 4021   4.511   5.099   0.556  0.0380 -0.1678  0.1467
  805OD       C 4022   4.345   4.890   0.865  0.2002  0.0375 -0.0815
  805OD       C 4023   4.156   4.522   1.046  0.1473 -0.1383  0.3869
  805OD       C 4024   3.994   4.388   1.453 -0.2117  0.2254  0.0707
  805OD       C 4025   4.046   4.007   1.740  0.1234 -0.2438 -0.1173
  806OD       C 4026   2.738   7.170   1.306  0.1186 -0.0403  0.2189
  806OD       C 4027   2.999   7.360   1.535 -0.0047 -0.2635 -0.1898
  806OD       C 4028   3.290   7.635   1.754  0.3753 -0.0102  0.4577
  806OD       C 4029   3.387   7.932   1.958 -0.3883  0.1984  0.2633
  806OD       C 4030   3.695   8.163   1.938 -0.1940 -0.1946 -0.1074
  807OD       C 4031   9.268   5.660   1.581 -0.1197 -0.0354 -0.0347
  807OD       C 4032   9.594   5.497   1.303  0.0451 -0.1224 -0.4073
  807OD       C 4033   9.744   5.247   1.010  0.1623 -0.0395 -0.5308
  807OD       C 4034   9.854   4.868   0.915  0.0577 -0.0169 -0.0411
  807OD       C 4035   9.799   4.368   0.886 -0.0401 -0.1506  0.2957
  808OD       C 4036   2.234   7.197   6.305  0.2429  0.0591 -0.1639
  808OD       C 4037   2.509   7.033   5.911 -0.0584  0.0266 -0.1086
  808OD       C 4038   2.763   6.930   5.513 -0.0794 -0.0045 -0.1516
  808OD       C 4039   2.681   6.716   5.095  0.0337  0.0520 -0.2068
  808OD       C 4040   2.909   6.361   5.019  0.0569 -0.3887 -0.0779
  809OD       C 4041   7.851   3.692   4.286  0.1387 -0.0656  0.1616
  809OD       C 4042   7.640   3.339   4.301 -0.0705  0.0006  0.0532
  809OD       C 4043   7.327   2.983   4.322 -0.1545 -0.0336  0.1172
  809OD       C 4044   7.340   2.618   4.162 -0.0881 -0.1527 -0.1440
  809OD       C 4045   7.463   2.174   4.362  0.1574 -0.1438  0.0399
  810OD       C 4046   2.563   2.208   3.668 -0.2134  0.1615 -0.0911
  810OD       C 4047   2.263   2.409   3.415  0.1674  0.1049  0.1230
  810OD       C 4048   2.012   2.831   3.316 -0.0965  0.3555  0.3319
  810OD       C 4049   1.760   3.131   3.382  0.0456  0.0375  0.0861
  810OD       C 4050   1.672   3.582   3.411 -0.0972  0.1277 -0.2991
  811OD       C 4051   3.844   3.259   3.237 -0.1276 -0.3139  0.0129
  811OD       C 4052   3.864   3.535   3.558  0.3574 -0.2489  0.1026
  811OD       C 4053   3.846   3.910   3.890 -0.0002 -0.0917  0.1188
  811OD       C 4054   3.576   4.308   3.889 -0.5540  0.2025  0.0517
  811OD       C 4055   3.182   4.459   3.785 -0.1380 -0.0713 -0.0920
  812OD       C 4056   8.260   5.285   1.602  0.0839  0.3652  0.0036
  812OD       C 4057   8.114   5.652   1.875 -0.0736  0.1873  0.0958
  812OD       C 4058   8.243   6.083   1.966 -0.0476  0.0949  0.0697
  812OD       C 4059   8.465   6.272   1.649 -0.0936  0.0023  0.1597
  812OD       C 4060   8.676   6.593   1.422 -0.3038  0.2278 -0.0565
  813OD       C 4061   8.586   7.167   5.425  0.3171  0.0002  0.0996
  813OD       C 4062   8.226   7.228   5.171 -0.0876 -0.1889  0.1939
  813OD       C 4063   8.158   7.518   4.861  0.0356  0.0879 -0.2454
  813OD       C 4064   8.142   7.709   4.425  0.0377 -0.1048  0.1801
  813OD       C 4065   8.290   7.965   4.038  0.1639 -0.2611  0.2545
  814OD       C 4066   0.479   5.542   3.776  0.0896  0.1758 -0.0178
  814OD       C 4067   0.444   5.294   3.505  0.0712  0.3800 -0.0491
  814OD       C 4068   0.068   5.237   3.295  0.2163  0.0279  0.1220
  814OD       C 4069  -0.336   5.189   3.200 -0.1963 -0.1031 -0.3137
  814OD       C 4070  -0.440   5.000   2.802  0.1797  0.0317  0.0570
  815OD       C 4071   3.168   4.813   4.128  0.0046 -0.2188 -0.1033
  815OD       C 4072   3.247   4.982   3.717  0.4177  0.0414  0.0388
  815OD       C 4073   3.554   5.328   3.635  0.1775 -0.0777  0.2014
  815OD       C 4074   3.709   5.764   3.878  0.0996  0.2552 -0.1372
  815OD       C 4075   4.188   5.890   3.888  0.0349 -0.0824 -0.0271
  816OD       C 4076   0.787   5.978   0.073 -0.2186 -0.0776  0.2263
  816OD       C 4077   0.770   5.544   0.007 -0.2530 -0.0797 -0.3072
  816OD       C 4078   0.518   5.230  -0.223  0.0779 -0.1852 -0.2121
  816OD       C 4079   0.635   5.003  -0.570  0.0206  0.2510 -0.1111
  816OD       C 4080   0.514   4.943  -0.994 -0.0633  0.1411  0.1755
  817OD       C 4081   7.144   0.592   7.049  0.0323 -0.1547  0.0647
  817OD       C 4082   7.294   0.539   7.495 -0.3965  0.2304 -0.0873
  817OD       C 4083   7.772   0.520   7.624 -0.2811 -0.0203  0.1078
  817OD       C 4084   8.009   0.447   7.956 -0.1442  0.0320 -0.0189
  817OD       C 4085   8.175   0.553   8.393  0.2510 -0.3183 -0.2489
  818OD       C 4086   4.372   1.390   3.190  0.2503 -0.2081 -0.0506
  818OD       C 4087   4.018   1.302   3.519  0.0893  0.0085 -0.0034
  818OD       C 4088   3.573   1.546   3.513  0.0638  0.3716 -0.0215
  818OD       C 4089   3.411   1.877   3.333 -0.2477  0.3131 -0.0474
  818OD       C 4090   3.166   1.927   2.987  0.1047 -0.0346  0.0954
  819OD       C 4091   5.621   6.311   3.118 -0.0121  0.0437 -0.0550
  819OD       C 4092   5.989   6.500   3.254 -0.1055  0.2196  0.0980
  819OD       C 4093   6.360   6.628   3.076  0.1297  0.0324  0.1627
  819OD       C 4094   6.574   6.514   2.759 -0.2454 -0.1063  0.0160
  819OD       C 4095   6.685   6.484   2.349  0.0095  0.0268 -0.1512
  820OD       C 4096   2.080   2.029   7.066 -0.0045  0.1125 -0.0492
  820OD       C 4097   1.703   1.978   7.219  0.2946  0.4244 -0.0203
  820OD       C 4098   1.267   1.746   7.137  0.0496 -0.0745  0.0249
  820OD       C 4099   0.820   1.752   7.366 -0.2289 -0.1785  0.1907
  820OD       C 4100   0.366   1.543   7.321 -0.0514  0.2241 -0.2197
  821OD       C 4101   2.072   3.535   1.746 -0.1732  0.1067 -0.1654
  821OD       C 4102   2.039   3.328   1.360  0.0471  0.1032 -0.1182
  821OD       C 4103   2.171   3.174   0.987 -0.0102  0.6719 -0.1669
  821OD       C 4104   2.202   2.978   0.619 -0.2711  0.0037  0.4355
  821OD       C 4105   2.360   2.829   0.213  0.1338  0.3316  0.1216
  822OD       C 4106   5.378   2.569   4.809  0.2109 -0.1136  0.0367
  822OD       C 4107   5.242   2.146   4.595  0.0512  0.2356 -0.2579
  822OD       C 4108   5.337   1.751   4.546 -0.2861 -0.0452 -0.0553
  822OD       C 4109   5.509   1.396   4.666  0.2707 -0.0312 -0.0246
  822OD       C 4110   5.340   0.970   4.951 -0.1598  0.2357  0.1988
  823OD       C 4111   3.267   2.067   1.775  0.3934  0.1073 -0.1496
  823OD       C 4112   3.060   1.948   2.084 -0.0697 -0.3797 -0.1429
  823OD       C 4113   2.985   1.891   2.510  0.0217 -0.1436  0.2506
  823OD       C 4114   2.690   1.801   2.835 -0.3909  0.1890  0.1668
  823OD       C 4115   2.354   1.952   3.047  0.0302  0.3467  0.0280
  824OD       C 4116   6.520   2.471   4.937 -0.0378 -0.2576  0.3153
  824OD       C 4117   6.332   2.577   5.314 -0.0347  0.1494  0.0164
  824OD       C 4118   5.980   2.815   5.485 -0.0921 -0.3516  0.0205
  824OD       C 4119   5.804   2.915   5.898 -0.0379  0.1007  0.0708
  824OD       C 4120   6.077   3.037   6.035  0.1181 -0.1390  0.1472
  825OD       C 4121   1.245   6.208   6.164 -0.4184 -0.1285  0.3723
  825OD       C 4122   1.242   5.887   5.792 -0.0022 -0.2516  0.0741
  825OD       C 4123   1.317   5.846   5.263  0.0758  0.1502  0.5992
  825OD       C 4124   1.525   5.797   4.893 -0.0513  0.1927  0.0520
  825OD       C 4125   1.534   5.863   4.459  0.3063  0.1729 -0.1500
  826OD       C 4126   4.603   6.941   4.961 -0.2315  0.1876 -0.2907
  826OD       C 4127   4.150   6.829   4.806  0.0583 -0.0187 -0.0277
  826OD       C 4128   4.035   6.742   4.393  0.1397  0.1314  0.4506
  826OD       C 4129   3.765   6.630   4.072 -0.0824  0.2704 -0.0091
  826OD       C 4130   3.804   6.731   3.604 -0.0020  0.1902  0.1535
  827OD       C 4131   7.236   0.916   0.952 -0.1689  0.0332  0.0021
  827OD       C 4132   7.462   0.670   0.774 -0.1583  0.0099  0.3156
  827OD       C 4133   7.416   0.218   0.602  0.0869  0.0818 -0.1718
  827OD       C 4134   7.859  -0.044   0.647 -0.1525 -0.1266  0.0629
  827OD       C 4135   8.250   0.084   0.989 -0.4179  0.0456  0.2119
  828OD       C 4136   3.406   4.196   2.665 -0.0336  0.1483  0.1394
  828OD       C 4137   3.425   3.859   2.952  0.0558  0.4765 -0.0214
  828OD       C 4138   3.754   3.823   3.136 -0.1885  0.1961 -0.1551
  828OD       C 4139   4.055   4.028   3.423  0.0173 -0.0735  0.0418
  828OD       C 4140   4.519   4.013   3.450 -0.4082 -0.0074 -0.1975
  829OD       C 4141   3.497   5.204   4.717 -0.1707 -0.1414 -0.1269
  829OD       C 4142   3.485   5.268   4.196 -0.0671  0.2655 -0.2461
  829OD       C 4143   3.718   4.904   3.911 -0.2253  0.0162 -0.0209
  829OD       C 4144   4.006   4.517   3.752  0.0463  0.0299 -0.0265
  829OD       C 4145   4.347   4.312   3.830  0.1543  0.3782  0.0329
  830OD       C 4146   0.823   3.197   0.412  0.0601  0.4755 -0.0015
  830OD       C 4147   0.677   3.516   0.341  0.2615 -0.0497 -0.0595
  830OD       C 4148   0.783   3.943   0.228  0.2580  0.2892  0.0073
  830OD       C 4149   0.940   4.258   0.009 -0.2069 -0.0102  0.3861
  830OD       C 4150   1.175   4.349  -0.469  0.1475 -0.1355 -0.2227
  831OD       C 4151   5.009   4.502   5.299  0.1679  0.1641  0.0394
  831OD       C 4152   4.753   4.293   5.655 -0.0726 -0.1255 -0.0902
  831OD       C 4153   4.560   4.190   6.076  0.1121  0.0652  0.2462
  831OD       C 4154   4.171   3.893   6.148  0.0688 -0.4155  0.1151
  831OD       C 4155   3.807   3.815   6.073 -0.1290  0.0022 -0.0342
  832OD       C 4156   8.708   2.860   1.852 -0.0121  0.1208 -0.0688
  832OD       C 4157   9.166   3.038   1.843  0.0578 -0.0476 -0.2457
  832OD       C 4158   9.570   3.015   2.126  0.1166  0.4212  0.1740
  832OD       C 4159   9.788   3.223   2.366 -0.1443  0.2398  0.2067
  832OD       C 4160   9.783   3.745   2.409  0.2570  0.0972  0.2280
  833OD       C 4161   4.725   0.418   0.424  0.0229 -0.5337 -0.1718
  833OD       C 4162   5.132   0.461   0.619 -0.2151 -0.1827  0.0214
  833OD       C 4163   5.526   0.333   0.735  0.0433 -0.0760 -0.0544
  833OD       C 4164   5.828   0.505   0.429  0.1848 -0.0945  0.3281
  833OD       C 4165   5.876   0.637   0.111 -0.3897 -0.0321  0.2205
  834OD       C 4166   3.402   4.904   0.889  0.0275  0.2355  0.1451
  834OD       C 4167   3.112   4.621   1.112 -0.0622  0.0796  0.3134
  834OD       C 4168   3.225   4.169   1.057 -0.0623 -0.3006 -0.1260
  834OD       C 4169   3.252   3.744   1.189 -0.0419 -0.0634  0.1235
  834OD       C 4170   2.991   3.457   1.479  0.1395 -0.1654  0.1789
  835OD       C 4171   6.866   1.507   0.145 -0.0260  0.0124  0.4071
  835OD       C 4172   7.311   1.522   0.164 -0.2679  0.2155 -0.0903
  835OD       C 4173   7.733   1.477   0.233  0.1475  0.3248  0.2557
  835OD       C 4174   8.081   1.241  -0.043 -0.2339  0.0031 -0.0835
  835OD       C 4175   8.495   1.095  -0.024 -0.3200 -0.1352 -0.0234
  836OD       C 4176   3.290   3.008   4.744 -0.0390 -0.2078  0.0356
  836OD       C 4177   3.615   2.748   4.685 -0.1499  0.0752  0.5712
  836OD       C 4178   3.667   2.346   4.837 -0.2809 -0.0117  0.0061
  836OD       C 4179   3.671   1.912   4.814 -0.1596  0.1631 -0.2247
  836OD       C 4180   3.946   1.685   4.609  0.0183 -0.0939 -0.0135
  837OD       C 4181   8.305   1.513   5.798  0.2798 -0.0793  0.0816
  837OD       C 4182   8.291   1.528   6.197 -0.1635  0.3174 -0.0692
  837OD       C 4183   8.476   1.327   6.724 -0.2618  0.0875  0.0547
  837OD       C 4184   8.739   1.582   7.002 -0.1826  0.0223  0.1050
  837OD       C 4185   8.829   1.948   7.325  0.1610  0.3537  0.1819
  838OD       C 4186   0.343   0.413   4.416  0.0682 -0.4808 -0.1354
  838OD       C 4187  -0.016   0.235   4.255  0.2008 -0.2131  0.0554
  838OD       C 4188  -0.445   0.078   4.147  0.3757  0.0611 -0.0929
  838OD       C 4189  -0.861  -0.024   4.285  0.1772 -0.0085  0.0549
  838OD       C 4190  -1.134  -0.452   4.305 -0.2023 -0.1732 -0.0157
  839OD       C 4191   8.481   2.193   3.454 -0.2032 -0.1673  0.0291
  839OD       C 4192   8.545   2.547   3.736  0.5490 -0.2267 -0.0173
  839OD       C 4193   8.416   2.892   3.857  0.0240 -0.4225  0.0566
  839OD       C 4194   8.643   3.223   4.023 -0.2085 -0.2274 -0.1626
  839OD       C 4195   8.710   3.593   3.746  0.0415 -0.0691 -0.1456
  840OD       C 4196   8.859   2.995   0.899  0.2580  0.2369 -0.2579
  840OD       C 4197   9.204   2.639   0.970 -0.0545 -0.3499 -0.0012
  840OD       C 4198   9.189   2.164   1.014 -0.4273  0.1529  0.4008
  840OD       C 4199   9.179   1.889   0.665 -0.4346 -0.2634  0.0685
  840OD       C 4200   9.110   1.528   0.812 -0.0596  0.1941 -0.1580
  841OD       C 4201   4.968   0.805   4.645  0.1197 -0.1072  0.3358
  841OD       C 4202   5.077   0.358   4.324 -0.1163  0.1066 -0.3005
  841OD       C 4203   5.015   0.249   3.816  0.1914 -0.0537  0.1529
  841OD       C 4204   4.883   0.111   3.332  0.0667  0.0860  0.1863
  841OD       C 4205   5.028   0.312   2.917  0.4612  0.1579  0.1026
  842OD       C 4206   3.639   7.154   4.080  0.0441  0.4476  0.1329
  842OD       C 4207   3.752   7.208   3.619  0.0410 -0.1069 -0.1513
  842OD       C 4208   3.549   7.274   3.205 -0.0644 -0.0866  0.0944
  842OD       C 4209   3.321   7.569   3.062 -0.3374 -0.0447 -0.2328
  842OD       C 4210   2.874   7.791   2.828 -0.3304  0.0641  0.0683
  843OD       C 4211   8.869   3.912   4.719  0.4671  0.0724  0.1496
  843OD       C 4212   8.694   3.638   4.944 -0.0154 -0.1709  0.1200
  843OD       C 4213   8.678   3.362   5.360 -0.0998  0.2369 -0.1243
  843OD       C 4214   8.571   3.054   5.602 -0.0817  0.1266  0.2668
  843OD       C 4215   8.350   2.667   5.697 -0.3106  0.0096  0.0587
  844OD       C 4216   0.044   0.525   3.244  0.1429  0.1121 -0.1015
  844OD       C 4217   0.287   0.094   3.306  0.0554  0.1714 -0.0992
  844OD       C 4218   0.581  -0.249   3.476  0.2428 -0.0588 -0.0099
  844OD       C 4219   0.531  -0.635   3.627 -0.2071 -0.2172  0.1156
  844OD       C 4220   0.243  -1.004   3.709  0.0280 -0.0237 -0.3443
  845OD       C 4221   3.878   2.547   6.507  0.0919 -0.2808  0.2561
  845OD       C 4222   3.944   2.209   6.752 -0.0913  0.0480  0.0467
  845OD       C 4223   3.984   1.832   6.860  0.0941 -0.0862 -0.0705
  845OD       C 4224   3.792   1.594   7.118  0.0244  0.3060 -0.2354
  845OD       C 4225   3.510   1.350   7.301  0.0668 -0.0852 -0.0079
  846OD       C 4226   4.928   6.646   1.905 -0.0540  0.0296 -0.1661
  846OD       C 4227   4.564   6.363   1.709  0.0385 -0.1835 -0.2567
  846OD       C 4228   4.204   6.290   1.513 -0.0611  0.1846  0.0069
  846OD       C 4229   3.796   6.225   1.261  0.2277  0.0679 -0.2499
  846OD       C 4230   3.312   6.329   1.313 -0.0996  0.0123  0.0239
  847OD       C 4231   0.619   0.255   5.914  0.4129 -0.1366  0.2364
  847OD       C 4232   0.346  -0.058   5.527 -0.1381 -0.1875  0.1550
  847OD       C 4233   0.100  -0.461   5.477  0.1192  0.3503  0.0866
  847OD       C 4234  -0.214  -0.674   5.283  0.0503  0.0152 -0.1432
  847OD       C 4235  -0.567  -0.627   4.920  0.3195  0.0552  0.1776
  848OD       C 4236   6.369   6.965   6.315 -0.0248  0.1341  0.0990
  848OD       C 4237   6.408   7.318   6.039 -0.0322 -0.0620 -0.4759
  848OD       C 4238   6.154   7.389   5.710  0.1289  0.2042 -0.1232
  848OD       C 4239   6.005   7.616   5.334 -0.0736  0.2522 -0.0976
  848OD       C 4240   5.770   7.501   5.014  0.0435 -0.2468  0.1588
  849OD       C 4241   6.467   1.481   7.003 -0.0793 -0.2480  0.2412
  849OD       C 4242   6.342   1.828   7.095 -0.1729  0.1988  0.1239
  849OD       C 4243   5.930   1.960   7.282 -0.4678 -0.0303 -0.1391
  849OD       C 4244   5.730   2.312   7.469 -0.0464  0.2011 -0.0228
  849OD       C 4245   5.793   2.740   7.684 -0.1765  0.1025  0.2090
  850OD       C 4246   9.051   7.001   4.569  0.2993  0.3834 -0.1747
  850OD       C 4247   9.209   7.403   4.738 -0.4048 -0.1133  0.0103
  850OD       C 4248   9.563   7.686   4.905 -0.1303  0.1055  0.1621
  850OD       C 4249   9.887   7.608   5.123 -0.0420 -0.0655  0.0970
  850OD       C 4250  10.153   7.586   5.439 -0.0468 -0.0170 -0.0222
  851OD       C 4251   8.821   0.157   2.384  0.0206  0.3663  0.1815
  851OD       C 4252   9.116  -0.073   2.093 -0.4141 -0.1775  0.0942
  851OD       C 4253   9.253  -0.092   1.560 -0.2044  0.0262 -0.2234
  851OD       C 4254   9.354  -0.335   1.169  0.3213 -0.1052  0.0004
  851OD       C 4255   9.161  -0.824   1.049  0.2884 -0.0380 -0.2311
  852OD       C 4256   6.231   6.917   7.194 -0.0951  0.2020 -0.0605
  852OD       C 4257   6.410   6.545   7.257 -0.0405  0.0549 -0.1159
  852OD       C 4258   6.478   6.171   7.069  0.1096 -0.3731 -0.2549
  852OD       C 4259   6.192   6.072   6.700  0.0207 -0.2571 -0.3387
  852OD       C 4260   6.133   5.985   6.258 -0.1286 -0.2231  0.0101
  853OD       C 4261   0.620   4.472   3.116  0.0134  0.1742 -0.0868
  853OD       C 4262   0.771   4.567   2.702  0.0980 -0.0605 -0.2084
  853OD       C 4263   0.818   4.817   2.357  0.0869 -0.1649 -0.1210
  853OD       C 4264   0.866   5.193   2.111 -0.4940 -0.0494  0.2953
  853OD       C 4265   0.858   5.666   2.109  0.0923 -0.0129 -0.1119
  854OD       C 4266   6.739   4.159   1.567  0.0454 -0.0886 -0.1379
  854OD       C 4267   6.942   4.532   1.722 -0.1011  0.1488 -0.0008
  854OD       C 4268   6.943   4.454   2.207 -0.3723 -0.0773  0.1263
  854OD       C 4269   7.180   4.347   2.535  0.2241 -0.0495  0.1215
  854OD       C 4270   7.557   4.433   2.748  0.0725  0.1282  0.2713
  855OD       C 4271   9.010   4.576   5.504  0.1550  0.0589 -0.1285
  855OD       C 4272   9.401   4.909   5.487 -0.1912  0.2149 -0.0539
  855OD       C 4273   9.601   5.277   5.302  0.3586  0.0577 -0.1474
  855OD       C 4274   9.872   5.588   5.293 -0.2017 -0.1043 -0.1862
  855OD       C 4275   9.887   5.933   5.009  0.0825  0.2552  0.3941
  856OD       C 4276   5.038   5.222   5.390  0.0664  0.0047 -0.0618
  856OD       C 4277   5.360   5.264   5.027  0.3577 -0.1275  0.1967
  856OD       C 4278   5.835   5.283   5.223 -0.1937  0.1695 -0.0657
  856OD       C 4279   6.269   5.024   5.387 -0.0026 -0.1413 -0.2228
  856OD       C 4280   6.274   4.664   5.679  0.1844 -0.2860 -0.0823
  857OD       C 4281   1.829   6.320   6.191  0.2660 -0.1029  0.2080
  857OD       C 4282   1.562   6.289   5.743  0.1153  0.0014  0.1719
  857OD       C 4283   1.500   6.464   5.450  0.2593  0.1812 -0.1823
  857OD       C 4284   1.384   6.311   5.068 -0.2581  0.0384  0.0074
  857OD       C 4285   1.186   6.144   4.759 -0.0355 -0.0259 -0.0374
  858OD       C 4286   0.793   0.400   6.944 -0.1615  0.0481 -0.1328
  858OD       C 4287   0.620   0.206   7.228 -0.1588 -0.1180 -0.0818
  858OD       C 4288   0.574   0.162   7.622  0.0762 -0.0020 -0.1412
  858OD       C 4289   0.634   0.172   8.079 -0.3207  0.0547 -0.0365
  858OD       C 4290   0.593   0.300   8.488  0.0777  0.1989 -0.2043
  859OD       C 4291   1.933   3.134   4.780  0.2236  0.0035 -0.1607
  859OD       C 4292   1.906   3.457   5.136 -0.1651 -0.0559 -0.2008
  859OD       C 4293   1.531   3.581   5.357 -0.2321 -0.1453 -0.2924
  859OD       C 4294   1.462   3.868   5.713  0.0288 -0.0560  0.3611
  859OD       C 4295   1.704   4.187   5.983  0.1142  0.2702  0.3327
  860OD       C 4296   2.287   0.471   3.672 -0.2206  0.1343  0.0107
  860OD       C 4297   2.010   0.177   3.622  0.0120  0.1631  0.3369
  860OD       C 4298   1.869   0.014   4.041  0.3574 -0.1438 -0.1552
  860OD       C 4299   1.438  -0.273   4.311 -0.0725 -0.1160 -0.0387
  860OD       C 4300   0.988  -0.242   4.474  0.3060  0.0161  0.1304
  861OD       C 4301   6.434   7.086   6.779 -0.0854  0.0885  0.4121
  861OD       C 4302   6.778   7.066   6.594 -0.5382 -0.2643 -0.1140
  861OD       C 4303   6.893   7.220   6.242 -0.2223  0.2859 -0.0800
  861OD       C 4304   6.938   6.926   6.035  0.1558 -0.6229  0.0870
  861OD       C 4305   7.022   6.407   5.877 -0.1095  0.1062  0.0983
  862OD       C 4306   2.586   1.480   3.206  0.0024  0.2633  0.4373
  862OD       C 4307   3.096   1.385   3.156  0.2840  0.3865  0.1220
  862OD       C 4308   3.459   1.433   2.785 -0.0400  0.3721  0.2007
  862OD       C 4309   3.465   1.653   2.375 -0.4262 -0.2233 -0.1584
  862OD       C 4310   3.702   1.536   2.034 -0.0225  0.2250 -0.0111
  863OD       C 4311   3.070   2.738   7.061 -0.0624  0.1952  0.0131
  863OD       C 4312   3.323   2.417   7.073 -0.2548 -0.1195 -0.1683
  863OD       C 4313   3.435   1.989   7.154  0.2230  0.0339  0.3167
  863OD       C 4314   3.528   1.837   7.456 -0.1598  0.1942 -0.0699
  863OD       C 4315   3.667   1.974   7.881 -0.5753 -0.4003  0.2202
  864OD       C 4316   8.035   3.896   0.971 -0.0070 -0.1345  0.0020
  864OD       C 4317   7.757   4.085   1.315 -0.2535 -0.0791 -0.1594
  864OD       C 4318   7.491   4.174   1.716  0.0553  0.0829 -0.1462
  864OD       C 4319   7.302   4.036   2.049 -0.0780  0.2034  0.1005
  864OD       C 4320   7.119   3.804   2.346 -0.2050 -0.1418 -0.0648
  865OD       C 4321   5.680   5.882   0.891  0.0398  0.0890  0.2431
  865OD       C 4322   5.527   6.369   0.833 -0.1436 -0.2133  0.0098
  865OD       C 4323   5.585   6.833   0.954 -0.0636 -0.1548  0.3941
  865OD       C 4324   5.854   7.210   0.877 -0.4443  0.1305 -0.1995
  865OD       C 4325   6.137   7.406   1.251 -0.1245 -0.2614 -0.0063
  866OD       C 4326   5.014   5.494   1.715  0.1816  0.1411 -0.0485
  866OD       C 4327   4.859   5.561   1.241 -0.0149 -0.0869 -0.0846
  866OD       C 4328   4.742   5.851   0.967 -0.2594  0.2384 -0.0294
  866OD       C 4329   4.940   6.244   0.880 -0.2562  0.2150 -0.1795
  866OD       C 4330   5.128   6.550   1.071  0.0578 -0.2187 -0.1483
  867OD       C 4331   4.523   5.705   4.182  0.1304  0.3044 -0.1472
  867OD       C 4332   4.535   5.518   3.862 -0.0887  0.1544  0.2168
  867OD       C 4333   4.516   5.380   3.474 -0.0983 -0.2116  0.4787
  867OD       C 4334   4.195   5.296   3.064 -0.0987  0.1806  0.0673
  867OD       C 4335   4.182   5.607   2.746 -0.2736 -0.1397  0.1743
  868OD       C 4336   7.017   6.666   4.120 -0.1094  0.1840 -0.2343
  868OD       C 4337   7.193   6.470   4.534 -0.1485  0.1427  0.3246
  868OD       C 4338   7.537   6.305   4.721  0.2236 -0.0446  0.2060
  868OD       C 4339   7.920   6.091   4.671  0.4040  0.2595  0.0115
  868OD       C 4340   8.290   5.910   4.912 -0.3069 -0.1085 -0.0995
  869OD       C 4341   3.388   4.960   5.647  0.0431 -0.2892 -0.0094
  869OD       C 4342   3.255   5.346   5.658  0.3344 -0.2884  0.1706
  869OD       C 4343   3.091   5.644   5.980 -0.1073 -0.0098 -0.0629
  869OD       C 4344   2.772   5.748   6.292 -0.0689  0.2237 -0.0521
  869OD       C 4345   2.678   5.653   6.783  0.0442 -0.0579  0.2572
  870OD       C 4346   5.191   6.947   2.593 -0.1318  0.3512 -0.0919
  870OD       C 4347   5.203   6.920   2.215  0.0846  0.2108  0.2158
  870OD       C 4348   5.091   7.098   1.866 -0.0070 -0.4080 -0.0327
  870OD       C 4349   4.624   7.211   1.563 -0.0944  0.0195 -0.0572
  870OD       C 4350   4.298   7.359   1.663  0.1007 -0.0360  0.2321
  871OD       C 4351   6.684   3.018   2.700  0.2798  0.0819  0.0706
  871OD       C 4352   6.986   2.796   2.449 -0.0884  0.0301 -0.4146
  871OD       C 4353   6.980   2.293   2.383  0.2167  0.0436 -0.0097
  871OD       C 4354   7.081   2.049   2.035 -0.2964 -0.0790  0.0208
  871OD       C 4355   7.301   1.743   1.766  0.0235  0.2931  0.0804
  872OD       C 4356   5.513   2.221   0.664  0.1346 -0.0979 -0.1175
  872OD       C 4357   5.390   2.619   0.721  0.1459 -0.0344 -0.1111
  872OD       C 4358   5.223   3.023   0.478 -0.0152  0.1159  0.1538
  872OD       C 4359   5.247   3.404   0.267  0.3447 -0.2105  0.2419
  872OD       C 4360   5.194   3.520  -0.124  0.1542 -0.0999  0.2060
  873OD       C 4361   0.670   2.600   3.928 -0.2318  0.1174 -0.0264
  873OD       C 4362   0.974   2.650   3.618  0.1404  0.0473 -0.2614
  873OD       C 4363   1.359   2.747   3.467 -0.2288 -0.3549 -0.1599
  873OD       C 4364   1.730   2.697   3.665 -0.0331  0.2190  0.2309
  873OD       C 4365   1.849   2.304   3.649  0.2392 -0.2421 -0.1375
  874OD       C 4366   0.523   6.691   4.678 -0.0967  0.0627 -0.1387
  874OD       C 4367   0.877   6.456   4.404 -0.2387  0.1233  0.1416
  874OD       C 4368   1.052   6.011   4.310  0.0963 -0.1764  0.0913
  874OD       C 4369   0.916   5.666   4.076 -0.0615 -0.0444  0.4329
  874OD       C 4370   0.964   5.327   3.763 -0.2292 -0.0260  0.2044
  875OD       C 4371   8.881   2.548   0.013 -0.1707  0.0907 -0.0523
  875OD       C 4372   9.279   2.241  -0.022  0.2038  0.1140  0.2144
  875OD       C 4373   9.510   1.876   0.145  0.3581  0.3466  0.1895
  875OD       C 4374   9.516   1.547   0.478 -0.1868  0.2205 -0.1162
  875OD       C 4375   9.621   1.659   0.848  0.2153  0.2348 -0.0922
  876OD       C 4376   3.098   2.452   4.880 -0.0381 -0.0834 -0.2309
  876OD       C 4377   3.177   1.952   4.786  0.1989  0.0576 -0.1461
  876OD       C 4378   2.871   1.799   4.462 -0.0068 -0.1822 -0.0451
  876OD       C 4379   2.525   2.106   4.279  0.1516  0.0971 -0.0470
  876OD       C 4380   2.259   2.106   4.039  0.1952  0.2731 -0.2068
  877OD       C 4381   3.793   1.593   6.444 -0.4637  0.0413 -0.0808
  877OD       C 4382   4.047   1.597   6.108  0.0307  0.2961 -0.1493
  877OD       C 4383   4.416   1.578   5.977  0.1965  0.1250 -0.0725
  877OD       C 4384   4.562   1.686   5.639  0.0778  0.0573  0.2491
  877OD       C 4385   4.465   1.880   5.299 -0.1037  0.0164  0.1995
  878OD       C 4386   7.582   1.425   2.917 -0.0204  0.3945 -0.0252
  878OD       C 4387   7.416   1.188   3.162  0.1291  0.0869  0.1903
  878OD       C 4388   7.410   0.725   3.424 -0.0146 -0.2076 -0.1901
  878OD       C 4389   7.329   0.348   3.688 -0.1042 -0.1754  0.1486
  878OD       C 4390   7.269   0.268   4.051  0.0529 -0.4445  0.0074
  879OD       C 4391   1.834   0.709   4.598 -0.3120  0.2674  0.0597
  879OD       C 4392   1.623   1.055   4.645  0.0098 -0.0645  0.1989
  879OD       C 4393   1.420   1.502   4.831 -0.3073  0.3446  0.1256
  879OD       C 4394   1.336   1.851   4.911 -0.2226 -0.0446  0.3267
  879OD       C 4395   1.089   2.120   5.235  0.0133  0.0259  0.1003
  880OD       C 4396   0.085   4.215   4.070  0.1391 -0.1439  0.1942
  880OD       C 4397   0.015   4.067   3.634  0.1397 -0.1034 -0.0154
  880OD       C 4398  -0.468   3.873   3.407  0.0188 -0.1058  0.1138
  880OD       C 4399  -0.669   3.578   3.260  0.2875  0.2848  0.0152
  880OD       C 4400  -0.687   3.260   3.014  0.2680 -0.1515 -0.0481
  881OD       C 4401   5.834   5.259   0.117  0.0803 -0.0288  0.0221
  881OD       C 4402   6.249   5.282   0.382  0.1226 -0.0842 -0.1173
  881OD       C 4403   6.687   5.272   0.409 -0.0587  0.0003  0.1453
  881OD       C 4404   7.055   5.271   0.055 -0.0600  0.0431 -0.0074
  881OD       C 4405   7.460   5.440   0.111 -0.0850 -0.0184  0.3078
  882OD       C 4406   2.867   0.667   1.409 -0.0637  0.0698 -0.1072
  882OD       C 4407   2.602   1.001   1.387  0.3149  0.0595 -0.1777
  882OD       C 4408   2.342   1.251   1.095 -0.0618 -0.1122  0.0521
  882OD       C 4409   2.254   1.552   0.799 -0.0735  0.0567 -0.0523
  882OD       C 4410   2.262   1.757   0.401 -0.1496  0.3481 -0.2225
  883OD       C 4411   1.071   3.346   7.204 -0.1725 -0.0917  0.2338
  883OD       C 4412   1.153   3.641   7.622 -0.1148  0.1082  0.0539
  883OD       C 4413   1.430   3.774   7.839 -0.1276  0.0232 -0.1905
  883OD       C 4414   1.583   4.106   7.797 -0.0543 -0.0847  0.0584
  883OD       C 4415   1.480   4.464   7.701 -0.2594  0.2272  0.1480
  884OD       C 4416   3.329   1.639   6.344  0.2618  0.0143 -0.1972
  884OD       C 4417   3.072   2.048   6.188 -0.2887  0.1086  0.0791
  884OD       C 4418   2.930   2.428   5.976 -0.0711  0.2240 -0.0409
  884OD       C 4419   2.868   2.902   5.763 -0.1432 -0.1253  0.2425
  884OD       C 4420   2.691   3.177   5.424 -0.1337 -0.0447 -0.2639
  885OD       C 4421   8.420   4.768   0.864 -0.1260 -0.0076  0.0705
  885OD       C 4422   8.631   4.574   1.181  0.4360  0.5995 -0.0757
  885OD       C 4423   8.781   4.269   1.503 -0.1551  0.1703 -0.1673
  885OD       C 4424   9.053   4.312   1.821  0.1198  0.3548 -0.4557
  885OD       C 4425   9.415   3.849   1.961 -0.1624  0.0305 -0.1236
  886OD       C 4426   6.730   3.983   6.139  0.0406  0.0286 -0.0656
  886OD       C 4427   6.448   4.190   5.921  0.0271 -0.3672 -0.0506
  886OD       C 4428   6.069   4.290   5.864  0.1388  0.3588 -0.1212
  886OD       C 4429   5.663   4.009   5.936 -0.2325 -0.2181  0.0593
  886OD       C 4430   5.733   3.547   6.070  0.1043 -0.1941  0.2264
  887OD       C 4431   2.930   2.159   6.972  0.0221  0.2853  0.0239
  887OD       C 4432   2.535   2.067   7.088 -0.1139 -0.0338 -0.0389
  887OD       C 4433   2.556   2.143   7.509  0.0827  0.0004  0.2720
  887OD       C 4434   2.363   2.481   7.829 -0.0507  0.2228 -0.1032
  887OD       C 4435   2.015   2.577   8.109  0.1243 -0.1919  0.0959
  888OD       C 4436   6.401   3.737   1.547  0.0274  0.1935 -0.4725
  888OD       C 4437   6.841   3.696   1.320 -0.0577  0.0315  0.0825
  888OD       C 4438   7.144   3.887   1.458  0.0947  0.0596 -0.0044
  888OD       C 4439   7.559   3.670   1.545 -0.1048  0.0411  0.1446
  888OD       C 4440   7.674   3.257   1.600  0.0374 -0.1811  0.1857
  889OD       C 4441   6.104   3.800   1.151  0.1090  0.0610 -0.1258
  889OD       C 4442   5.948   3.565   1.539  0.1958  0.2052  0.0409
  889OD       C 4443   5.692   3.340   1.881  0.2356 -0.0012  0.5019
  889OD       C 4444   5.667   3.006   2.072 -0.2127 -0.3821  0.2459
  889OD       C 4445   5.971   2.764   2.133 -0.1681  0.0161  0.2940
  890OD       C 4446   5.815   1.842   4.287 -0.1366 -0.1493 -0.1019
  890OD       C 4447   5.773   1.789   3.858 -0.0134 -0.2518  0.2056
  890OD       C 4448   5.334   1.722   3.575  0.0690  0.1640 -0.0447
  890OD       C 4449   5.355   1.511   3.205 -0.0003 -0.2294  0.4829
  890OD       C 4450   5.776   1.244   3.147 -0.1461  0.1684  0.1037
  891OD       C 4451   6.191   3.626   0.138 -0.0965  0.1194  0.0069
  891OD       C 4452   6.349   3.936   0.330 -0.1281  0.0478  0.0648
  891OD       C 4453   6.554   4.305   0.616  0.1419 -0.1980 -0.1314
  891OD       C 4454   6.673   4.508   0.978  0.1740 -0.1354 -0.1593
  891OD       C 4455   6.718   4.727   1.328  0.3506  0.0170  0.0177
  892OD       C 4456   5.037   4.211   4.073 -0.1607 -0.0965  0.4061
  892OD       C 4457   4.868   3.903   3.845  0.3443  0.0091  0.1297
  892OD       C 4458   4.820   3.586   3.630  0.2284  0.0762 -0.0106
  892OD       C 4459   4.870   3.208   3.732 -0.0988  0.2852 -0.1583
  892OD       C 4460   4.778   2.907   4.171  0.0808 -0.1957  0.1032
  893OD       C 4461   2.276   1.408   3.911  0.2120 -0.0085  0.3635
  893OD       C 4462   2.341   1.625   4.359 -0.2169  0.2564  0.5088
  893OD       C 4463   2.558   1.257   4.646  0.1274  0.2050  0.2010
  893OD       C 4464   2.570   1.047   4.996  0.3117  0.2661 -0.2391
  893OD       C 4465   2.922   0.866   5.292  0.3582 -0.0144 -0.2402
  894OD       C 4466   0.605   2.670   3.209 -0.1463  0.2292 -0.2377
  894OD       C 4467   0.288   2.958   3.291 -0.2561 -0.0638 -0.0950
  894OD       C 4468   0.228   3.186   3.660  0.0910  0.3344 -0.2886
  894OD       C 4469   0.312   3.540   3.838  0.0149  0.1696 -0.0022
  894OD       C 4470   0.456   3.925   4.123 -0.1155 -0.2153  0.0758
  895OD       C 4471   3.690   0.782   1.401 -0.2422  0.0956  0.3042
  895OD       C 4472   3.635   0.953   1.009 -0.2401  0.0988 -0.1131
  895OD       C 4473   3.432   0.762   0.672  0.2025 -0.2216  0.1960
  895OD       C 4474   3.202   0.256   0.665 -0.1416  0.0027  0.0581
  895OD       C 4475   2.817  -0.021   0.783 -0.3829  0.3132 -0.0134
  896OD       C 4476   7.482   6.983   4.143  0.3763  0.1042  0.2720
  896OD       C 4477   7.626   7.149   3.796  0.6087 -0.0034 -0.0500
  896OD       C 4478   7.795   7.548   3.882  0.2007 -0.0055 -0.3279
  896OD       C 4479   7.844   7.859   4.133 -0.0977  0.0699 -0.0189
  896OD       C 4480   7.930   8.142   4.391 -0.0713  0.2005  0.0434
  897OD       C 4481   6.581   0.925   5.774 -0.0428 -0.0123 -0.2020
  897OD       C 4482   6.515   1.188   6.160  0.0469  0.0770  0.1419
  897OD       C 4483   6.407   1.007   6.578  0.2800 -0.4854  0.0602
  897OD       C 4484   6.012   1.133   6.710  0.2263 -0.1994  0.0440
  897OD       C 4485   5.963   1.554   6.841 -0.0089 -0.4678 -0.3073
  898OD       C 4486   1.016   3.757   6.462 -0.0572 -0.1495 -0.0532
  898OD       C 4487   1.106   3.384   6.470 -0.2264 -0.1915 -0.0414
  898OD       C 4488   0.908   3.107   6.682 -0.1331  0.2686  0.0300
  898OD       C 4489   1.023   2.804   7.033 -0.2132  0.0973  0.1433
  898OD       C 4490   1.029   2.758   7.475 -0.0319  0.0914  0.1098
  899OD       C 4491   2.983   1.981   3.977 -0.0891 -0.1065  0.2236
  899OD       C 4492   2.694   1.689   3.952  0.1014 -0.2978 -0.2909
  899OD       C 4493   2.386   1.763   3.557  0.2163  0.5198  0.0949
  899OD       C 4494   1.971   1.762   3.422  0.0530  0.3275 -0.0376
  899OD       C 4495   1.538   1.673   3.458 -0.0717  0.2620  0.0230
  900OD       C 4496   5.894   6.953   1.336 -0.0858  0.2032  0.3784
  900OD       C 4497   5.625   6.536   1.335  0.1135  0.1646  0.0822
  900OD       C 4498   5.489   6.156   1.341 -0.1376 -0.1575  0.1546
  900OD       C 4499   5.214   5.914   1.160 -0.0810  0.1350 -0.2730
  900OD       C 4500   5.381   5.477   1.115  0.1543 -0.2849  0.2038
   9.52859   7.21082   7.21082
