Chloroform box
 2197
    1CLF     CX    1   2.551   3.413   5.085  0.1714 -0.4199  0.0669
    2CLF     CX    2   3.680   1.872   0.633 -0.5589 -0.1824 -0.1857
    3CLF     CX    3   4.737   1.353   6.059 -0.1965 -0.2401  0.2016
    4CLF     CX    4   5.691   5.741   5.148  0.2494 -0.3841 -0.2907
    5CLF     CX    5   1.457   0.861   5.131  0.0447 -0.3053  0.0404
    6CLF     CX    6   2.283   3.734   4.792  0.0173 -0.0035 -0.1051
    7CLF     CX    7   1.573   3.078   0.164  0.5143 -0.0595 -0.0027
    8CLF     CX    8   5.718   6.454   3.238 -0.1658  0.1237 -0.0139
    9CLF     CX    9   0.122   6.386   3.624  0.0198  0.2423 -0.1475
   10CLF     CX   10   6.096   6.292   1.241 -0.5990 -0.2134  0.0398
   11CLF     CX   11   2.341   0.807   1.476 -0.0882 -0.1928 -0.2341
   12CLF     CX   12   4.989   2.207   0.225 -0.0698 -0.1300 -0.3598
   13CLF     CX   13   6.387   5.400   3.636 -0.0155  0.3335 -0.0187
   14CLF     CX   14   2.943   1.726   2.221 -0.1306 -0.1342  0.3149
   15CLF     CX   15   6.202   6.311   3.485  0.5085  0.0486 -0.1433
   16CLF     CX   16   2.909   2.402   2.006  0.2002 -0.1245  0.3140
   17CLF     CX   17   5.494   6.102   2.839  0.1910 -0.1781  0.3222
   18CLF     CX   18   5.519   4.257   4.764  0.1470 -0.0118  0.4535
   19CLF     CX   19   2.526   6.555   5.732  0.1828 -0.0581 -0.0476
   20CLF     CX   20   1.358   4.162   3.837  0.3324 -0.1929  0.1113
   21CLF     CX   21   3.390   5.049   4.175 -0.3887 -0.0288 -0.1607
   22CLF     CX   22   1.459   5.143   0.011 -0.1848 -0.0499 -0.0265
   23CLF     CX   23   0.088   0.519   0.971  0.1568  0.1637  0.0004
   24CLF     CX   24   1.167   1.724   0.553 -0.2844 -0.1042  0.1488
   25CLF     CX   25   5.681   0.665   3.943  0.2184  0.0624  0.0500
   26CLF     CX   26   4.891   3.505   0.434  0.0178 -0.0246  0.1786
   27CLF     CX   27   6.551   3.130   0.223  0.2527 -0.1024  0.0103
   28CLF     CX   28   4.602   6.424   0.683 -0.2290 -0.1327  0.2064
   29CLF     CX   29   6.625   1.610   5.653 -0.2572  0.1266 -0.1288
   30CLF     CX   30   4.520   3.247   5.339 -0.1846  0.2242  0.1552
   31CLF     CX   31   0.368   2.763   5.394  0.2804 -0.0179 -0.2048
   32CLF     CX   32   3.558   5.609   2.317  0.0807 -0.3222 -0.0458
   33CLF     CX   33   4.176   2.725   2.039 -0.1157 -0.2608  0.0547
   34CLF     CX   34   5.266   3.961   0.545 -0.0543  0.1270  0.3079
   35CLF     CX   35   3.438   1.954   6.241  0.4108  0.0333  0.2010
   36CLF     CX   36   6.533   2.434   0.549  0.0611 -0.2326  0.1208
   37CLF     CX   37   2.857   0.396   4.296  0.1158 -0.0403  0.3390
   38CLF     CX   38   1.709   1.657   5.562  0.0737 -0.2562 -0.0921
   39CLF     CX   39   1.703   5.740   4.765  0.0413 -0.0134  0.0563
   40CLF     CX   40   5.797   3.276   5.499  0.1081 -0.1825 -0.4764
   41CLF     CX   41   3.056   3.168   3.125  0.0094 -0.2248  0.0375
   42CLF     CX   42   3.362   2.271   2.453  0.1339  0.0395 -0.2094
   43CLF     CX   43   5.428   4.497   5.625 -0.2824 -0.1078  0.3821
   44CLF     CX   44   0.348   5.863   5.333 -0.0146  0.1941  0.1388
   45CLF     CX   45   2.793   1.284   5.601  0.1153 -0.0190 -0.2586
   46CLF     CX   46   2.529   3.537   3.451  0.0698 -0.2150  0.2044
   47CLF     CX   47   5.181   0.943   2.950 -0.0871 -0.4934 -0.0169
   48CLF     CX   48   4.686   1.628   2.807  0.2525 -0.0055 -0.0043
   49CLF     CX   49   6.001   3.920   6.588  0.2948 -0.3068  0.0903
   50CLF     CX   50   1.321   1.428   3.031 -0.0145 -0.4063  0.0129
   51CLF     CX   51   2.080   4.011   1.546  0.1425  0.1543 -0.0458
   52CLF     CX   52   2.933   4.241   4.447  0.0512  0.0966 -0.1313
   53CLF     CX   53   2.868   4.494   0.367 -0.3196  0.2887 -0.2782
   54CLF     CX   54   0.314   1.734   3.107 -0.1776  0.0412 -0.0766
   55CLF     CX   55   3.028   1.104   0.452  0.2728  0.0718  0.2581
   56CLF     CX   56   1.393   4.151   5.370 -0.0041 -0.0950 -0.1480
   57CLF     CX   57   5.270   5.691   2.774 -0.0236  0.0328  0.1165
   58CLF     CX   58   0.985   1.779   4.422 -0.3014  0.3918 -0.0563
   59CLF     CX   59   1.110   1.781   2.601 -0.0192  0.0449  0.3565
   60CLF     CX   60   1.379   1.287   6.533  0.4025 -0.1547  0.0334
   61CLF     CX   61   3.777   4.622   3.433 -0.1168 -0.0859 -0.0848
   62CLF     CX   62   3.456   4.072   1.498  0.0661  0.3343 -0.0223
   63CLF     CX   63   0.551   3.561   0.013 -0.3269 -0.0406  0.0576
   64CLF     CX   64   2.838   2.434   2.908 -0.0221 -0.1915  0.1251
   65CLF     CX   65   3.059   5.515   5.159 -0.1419  0.1187 -0.0017
   66CLF     CX   66   3.575   1.166   3.103 -0.2878 -0.1262 -0.0925
   67CLF     CX   67   2.668   6.206   3.986  0.0886  0.1563 -0.1080
   68CLF     CX   68   3.487   6.331   0.582 -0.2688  0.0148  0.1249
   69CLF     CX   69   4.925   2.091   5.453  0.2632 -0.0617  0.1919
   70CLF     CX   70   5.261   1.994   6.491 -0.4720  0.0742  0.4780
   71CLF     CX   71   5.874   5.660   0.921 -0.0422  0.2464 -0.0546
   72CLF     CX   72   2.282   6.199   0.392  0.2041  0.2504 -0.2584
   73CLF     CX   73   5.674   6.068   4.190  0.5628  0.1487 -0.0768
   74CLF     CX   74   3.012   1.812   1.479  0.1281  0.0211  0.0378
   75CLF     CX   75   5.745   1.789   6.369  0.0286 -0.2092 -0.0896
   76CLF     CX   76   1.316   4.441   1.228 -0.0983 -0.0537 -0.1225
   77CLF     CX   77   1.913   5.986   5.141 -0.0448  0.3635 -0.0587
   78CLF     CX   78   5.897   4.482   4.559 -0.1753  0.1781 -0.0312
   79CLF     CX   79   4.439   0.479   1.998 -0.0627 -0.2208  0.0535
   80CLF     CX   80   3.931   2.020   2.165  0.1173 -0.0390  0.2235
   81CLF     CX   81   4.084   5.192   2.212  0.0929  0.1665  0.0349
   82CLF     CX   82   1.487   6.619   0.219  0.0598 -0.2968  0.3833
   83CLF     CX   83   2.150   4.555   4.753  0.1666  0.0376  0.2277
   84CLF     CX   84   2.138   3.590   5.351  0.2050  0.1654 -0.0297
   85CLF     CX   85   6.494   2.992   4.944  0.1021  0.1471  0.2887
   86CLF     CX   86   1.957   0.705   1.716 -0.4971  0.3247 -0.0589
   87CLF     CX   87   3.467   3.248   5.392  0.0004  0.1354 -0.0362
   88CLF     CX   88   5.392   0.852   0.045 -0.0695  0.1144 -0.4253
   89CLF     CX   89   2.486   0.058   2.745  0.2078 -0.0909 -0.2663
   90CLF     CX   90   2.493   5.333   5.263  0.2318  0.0046  0.2357
   91CLF     CX   91   5.473   3.157   5.875 -0.1689 -0.1228 -0.2808
   92CLF     CX   92   5.684   1.076   2.943 -0.0642 -0.0213 -0.2865
   93CLF     CX   93   6.271   5.179   2.063  0.4142  0.2728  0.1436
   94CLF     CX   94   2.579   1.557   2.576 -0.2813 -0.1184  0.1239
   95CLF     CX   95   1.203   5.486   5.483  0.0963 -0.4275 -0.0679
   96CLF     CX   96   3.530   0.322   6.397 -0.2367 -0.1765  0.0168
   97CLF     CX   97   2.940   2.553   0.697 -0.1012 -0.0802 -0.0965
   98CLF     CX   98   4.534   1.261   1.236  0.2350  0.1286  0.0387
   99CLF     CX   99   2.410   4.960   2.564 -0.0566 -0.0223  0.2136
  100CLF     CX  100   6.380   6.358   0.152 -0.1067 -0.0167 -0.0077
  101CLF     CX  101   5.853   2.236   4.042 -0.0549 -0.1235  0.2036
  102CLF     CX  102   6.432   4.536   5.811 -0.0594  0.1019  0.1811
  103CLF     CX  103   4.450   2.223   5.215  0.1605 -0.0781  0.0752
  104CLF     CX  104   0.661   3.607   4.665  0.0525  0.1532 -0.0855
  105CLF     CX  105   2.030   6.548   5.722  0.1107  0.0961  0.2417
  106CLF     CX  106   5.180   6.485   3.723 -0.0365  0.0574  0.0778
  107CLF     CX  107   0.692   5.965   0.029  0.0808 -0.1284 -0.0692
  108CLF     CX  108   0.355   4.030   0.022  0.0208  0.3084  0.0596
  109CLF     CX  109   2.652   1.129   3.487  0.0335 -0.1710 -0.0531
  110CLF     CX  110   3.873   3.932   0.103  0.0753  0.2512  0.2851
  111CLF     CX  111   2.512   2.500   2.361 -0.4518 -0.1249 -0.0120
  112CLF     CX  112   1.555   3.295   1.937 -0.0339 -0.0998  0.0625
  113CLF     CX  113   1.574   2.137   6.015  0.0594 -0.0809 -0.0137
  114CLF     CX  114   4.372   0.516   4.247  0.0328  0.0645  0.1662
  115CLF     CX  115   3.167   6.516   3.477  0.0094  0.1984  0.3701
  116CLF     CX  116   2.406   5.715   1.969  0.0807 -0.2514 -0.0927
  117CLF     CX  117   5.057   6.450   0.403 -0.0551 -0.0918 -0.0501
  118CLF     CX  118   4.702   4.067   5.570  0.1818 -0.0171  0.2080
  119CLF     CX  119   1.534   3.531   4.604 -0.2079 -0.0447 -0.0090
  120CLF     CX  120   1.291   0.599   4.180 -0.1016  0.1897 -0.1999
  121CLF     CX  121   6.314   6.477   5.648 -0.0377  0.1939 -0.1794
  122CLF     CX  122   6.138   2.430   1.293 -0.2163 -0.0723 -0.1355
  123CLF     CX  123   1.784   1.644   4.430  0.0329  0.0340 -0.1953
  124CLF     CX  124   2.578   5.938   3.461 -0.0994  0.0926  0.1931
  125CLF     CX  125   5.101   1.324   1.593  0.0502  0.1486 -0.1215
  126CLF     CX  126   2.968   4.215   2.896  0.3848  0.1988 -0.4883
  127CLF     CX  127   4.029   3.298   5.080  0.0531 -0.1279 -0.3669
  128CLF     CX  128   4.713   0.041   3.565  0.2092  0.2406 -0.0369
  129CLF     CX  129   4.763   1.426   0.642 -0.0601 -0.0719  0.4555
  130CLF     CX  130   1.926   2.740   3.147 -0.1662  0.0842 -0.0369
  131CLF     CX  131   4.120   2.478   6.297  0.1651  0.1392 -0.1416
  132CLF     CX  132   4.130   6.289   4.579  0.3546  0.0965 -0.1251
  133CLF     CX  133   2.412   3.451   3.997 -0.0531 -0.1770 -0.1979
  134CLF     CX  134   0.978   5.030   0.067  0.0732 -0.0180  0.0803
  135CLF     CX  135   0.762   3.151   5.108  0.3189 -0.0708 -0.2468
  136CLF     CX  136   6.541   6.538   5.132 -0.2093 -0.0871 -0.1808
  137CLF     CX  137   5.574   0.691   4.539  0.0344 -0.0059 -0.1590
  138CLF     CX  138   5.827   5.322   5.982 -0.0203 -0.2910 -0.0990
  139CLF     CX  139   5.200   0.033   6.053  0.0880 -0.1718  0.1161
  140CLF     CX  140   1.555   4.629   2.603 -0.3356 -0.2805 -0.1949
  141CLF     CX  141   2.863   2.174   2.481 -0.1067 -0.0343 -0.0417
  142CLF     CX  142   4.643   3.222   3.251  0.2911  0.3470  0.1366
  143CLF     CX  143   4.976   4.459   0.007 -0.5611 -0.2947 -0.0169
  144CLF     CX  144   1.809   1.213   6.375  0.0836 -0.3635  0.2908
  145CLF     CX  145   5.654   1.831   5.150 -0.0738  0.1457 -0.0136
  146CLF     CX  146   1.053   5.686   2.140  0.1407 -0.1598 -0.1481
  147CLF     CX  147   0.944   5.030   5.457  0.2899  0.0309  0.0226
  148CLF     CX  148   1.639   0.261   4.018  0.0134 -0.1258  0.2308
  149CLF     CX  149   4.730   3.150   3.893 -0.2321  0.0166  0.0510
  150CLF     CX  150   5.707   2.492   1.068  0.0543 -0.0220 -0.1577
  151CLF     CX  151   0.814   4.684   1.966 -0.2481  0.2432  0.0371
  152CLF     CX  152   3.701   1.744   4.752  0.1973  0.0562 -0.0376
  153CLF     CX  153   3.917   6.501   0.422  0.1463  0.2796 -0.1128
  154CLF     CX  154   2.413   3.315   4.565  0.0957  0.0295 -0.0763
  155CLF     CX  155   0.801   2.400   1.954 -0.1428  0.0298  0.0991
  156CLF     CX  156   4.549   3.990   2.725  0.1874  0.2674  0.0288
  157CLF     CX  157   5.356   5.891   3.814  0.1285 -0.1100  0.2447
  158CLF     CX  158   3.833   0.554   3.470  0.2643  0.1895  0.1896
  159CLF     CX  159   0.542   4.005   5.673  0.0210 -0.1054  0.1136
  160CLF     CX  160   5.986   1.444   1.826  0.0930  0.3264  0.1092
  161CLF     CX  161   2.027   6.542   0.173 -0.1855  0.0160 -0.1721
  162CLF     CX  162   0.470   0.841   2.274  0.0964 -0.0956 -0.1855
  163CLF     CX  163   2.772   0.933   1.855 -0.2151 -0.1329 -0.1276
  164CLF     CX  164   4.840   5.862   2.496 -0.0819 -0.0205  0.0970
  165CLF     CX  165   6.433   4.956   1.386  0.0232 -0.2304 -0.0551
  166CLF     CX  166   3.533   1.537   0.079 -0.4172  0.0051  0.1669
  167CLF     CX  167   0.821   4.442   5.621 -0.1355 -0.0420  0.0903
  168CLF     CX  168   1.910   3.314   0.823  0.3667  0.4147  0.0416
  169CLF     CX  169   3.903   5.939   1.545  0.0260  0.2685 -0.2215
  170CLF     CX  170   5.853   2.392   3.556  0.0697 -0.0697  0.0039
  171CLF     CX  171   5.496   3.014   1.503 -0.3615 -0.2639  0.1524
  172CLF     CX  172   4.842   2.671   4.532  0.0374 -0.0126 -0.3499
  173CLF     CX  173   2.793   1.518   1.779 -0.2904  0.2134 -0.0340
  174CLF     CX  174   5.197   0.732   5.893 -0.3372  0.0546 -0.0916
  175CLF     CX  175   5.454   6.210   1.574  0.5021 -0.1612 -0.0975
  176CLF     CX  176   3.599   2.022   5.728  0.2733 -0.1956 -0.0147
  177CLF     CX  177   3.372   4.002   5.958 -0.2927  0.2725  0.3070
  178CLF     CX  178   0.703   6.334   0.515  0.0186 -0.2014 -0.0233
  179CLF     CX  179   3.624   3.479   0.051 -0.0250 -0.0391  0.0057
  180CLF     CX  180   6.154   1.214   4.091 -0.1860 -0.0017 -0.3227
  181CLF     CX  181   6.090   0.908   6.220 -0.1801  0.1212  0.1619
  182CLF     CX  182   4.500   1.769   0.374  0.0012  0.2419  0.2146
  183CLF     CX  183   1.133   6.342   4.584 -0.1711  0.0484 -0.0876
  184CLF     CX  184   1.290   5.942   5.148 -0.0717  0.1040  0.2796
  185CLF     CX  185   4.973   0.691   0.211 -0.1054  0.5024 -0.1679
  186CLF     CX  186   2.615   5.847   4.403 -0.0783  0.1013  0.0132
  187CLF     CX  187   2.854   6.334   4.425  0.0137  0.0573  0.1184
  188CLF     CX  188   0.371   1.178   5.500 -0.1668  0.1755  0.3197
  189CLF     CX  189   3.103   4.020   6.452 -0.0707 -0.0218  0.0903
  190CLF     CX  190   3.236   5.082   1.624  0.0091 -0.1782 -0.2369
  191CLF     CX  191   3.799   0.411   4.860  0.2435 -0.0563 -0.0635
  192CLF     CX  192   3.134   2.263   4.919  0.1686 -0.0119 -0.3207
  193CLF     CX  193   1.640   0.394   6.432 -0.0377 -0.0380 -0.4936
  194CLF     CX  194   6.078   3.458   4.613  0.3147 -0.2440  0.0758
  195CLF     CX  195   0.583   5.701   5.754  0.1057  0.2567  0.0674
  196CLF     CX  196   1.990   4.849   3.764 -0.0473 -0.1533 -0.0961
  197CLF     CX  197   6.261   0.626   2.307 -0.0853  0.2384 -0.1681
  198CLF     CX  198   3.839   2.451   2.420  0.1510 -0.1904 -0.0533
  199CLF     CX  199   2.236   6.244   3.764 -0.2132  0.1665  0.2523
  200CLF     CX  200   0.713   5.692   3.816 -0.0081 -0.0436  0.1241
  201CLF     CX  201   2.305   3.610   1.488 -0.0567 -0.0743  0.0387
  202CLF     CX  202   4.781   1.411   3.391 -0.1007 -0.2241 -0.0743
  203CLF     CX  203   0.615   1.052   0.781  0.0383 -0.0907 -0.0780
  204CLF     CX  204   6.525   3.225   4.034 -0.0127  0.2870 -0.0066
  205CLF     CX  205   1.035   1.724   5.330  0.0448  0.2185  0.0207
  206CLF     CX  206   1.516   0.953   4.573 -0.3150  0.2803  0.1196
  207CLF     CX  207   2.274   1.255   1.020  0.1637  0.0503 -0.0267
  208CLF     CX  208   5.194   0.404   4.510 -0.3217  0.5843 -0.1897
  209CLF     CX  209   2.798   1.970   0.476  0.1966  0.2329  0.2264
  210CLF     CX  210   1.119   1.692   3.432 -0.1934 -0.1428  0.2636
  211CLF     CX  211   1.261   2.235   5.656 -0.0767  0.1471  0.1004
  212CLF     CX  212   5.912   1.960   1.864 -0.1095 -0.2915  0.2102
  213CLF     CX  213   6.522   3.219   2.488 -0.2499 -0.0927  0.0591
  214CLF     CX  214   5.271   1.037   4.694  0.0150  0.0897  0.1312
  215CLF     CX  215   4.654   2.007   3.337  0.0589  0.0832  0.1481
  216CLF     CX  216   4.859   2.927   1.344  0.2100  0.0098  0.1355
  217CLF     CX  217   0.828   2.581   5.475  0.0136  0.1153  0.0157
  218CLF     CX  218   6.588   5.722   1.959  0.1603 -0.1109 -0.1093
  219CLF     CX  219   4.420   4.135   6.597 -0.0738 -0.0322  0.0105
  220CLF     CX  220   2.176   4.331   1.102  0.1876 -0.2031 -0.0565
  221CLF     CX  221   4.861   5.657   4.622  0.0686 -0.0576  0.1217
  222CLF     CX  222   0.699   1.208   1.256 -0.1597 -0.0798  0.3863
  223CLF     CX  223   1.517   3.508   3.380 -0.5191 -0.1100  0.1617
  224CLF     CX  224   1.668   0.190   5.885  0.1378  0.2222  0.0525
  225CLF     CX  225   2.905   0.718   1.362  0.2402  0.0833  0.1533
  226CLF     CX  226   6.048   0.799   3.306  0.1998  0.0813  0.2579
  227CLF     CX  227   2.856   4.675   2.590  0.0523  0.0977 -0.1858
  228CLF     CX  228   6.470   0.388   1.915 -0.1201  0.1697  0.1926
  229CLF     CX  229   2.251   1.511   2.156  0.2534  0.0255  0.1000
  230CLF     CX  230   1.482   3.839   4.174  0.0043  0.1098 -0.0301
  231CLF     CX  231   3.684   3.914   4.800  0.2933 -0.2766 -0.3441
  232CLF     CX  232   0.331   3.442   2.380 -0.2427  0.1621  0.0580
  233CLF     CX  233   2.009   0.876   4.467  0.0247 -0.1428  0.0988
  234CLF     CX  234   2.469   3.337   2.927  0.1573  0.4777 -0.0324
  235CLF     CX  235   1.480   3.091   0.933 -0.3397  0.0680 -0.0910
  236CLF     CX  236   1.503   3.101   2.970 -0.0205  0.2000 -0.4401
  237CLF     CX  237   3.026   0.226   0.402  0.2705  0.0399 -0.2514
  238CLF     CX  238   5.928   6.273   4.743  0.0685 -0.0373 -0.2776
  239CLF     CX  239   0.066   3.269   5.330  0.2392  0.2229 -0.1150
  240CLF     CX  240   0.837   5.650   0.893 -0.2316 -0.2408  0.1046
  241CLF     CX  241   6.142   0.140   4.015 -0.1465 -0.1846  0.0645
  242CLF     CX  242   4.802   5.087   3.474  0.0558 -0.1982  0.2148
  243CLF     CX  243   4.555   2.622   2.786 -0.1161 -0.1014  0.0787
  244CLF     CX  244   4.599   5.128   1.528 -0.1243  0.1585  0.0575
  245CLF     CX  245   4.693   2.769   2.351  0.0547 -0.1496 -0.0812
  246CLF     CX  246   2.528   4.005   1.279  0.0644  0.2188 -0.1442
  247CLF     CX  247   0.318   1.214   2.984  0.3020  0.0083 -0.2005
  248CLF     CX  248   1.929   2.376   1.947 -0.0340  0.0062  0.3941
  249CLF     CX  249   3.958   4.122   2.325  0.0411 -0.1616 -0.3423
  250CLF     CX  250   3.505   0.822   6.408  0.1666  0.1519  0.1558
  251CLF     CX  251   2.007   6.293   2.831  0.0004  0.1521  0.3223
  252CLF     CX  252   5.641   4.167   5.321 -0.0022 -0.1726  0.0573
  253CLF     CX  253   3.426   3.534   4.052  0.2429  0.2628  0.0100
  254CLF     CX  254   3.879   3.923   0.712 -0.0629  0.0054  0.1312
  255CLF     CX  255   2.113   5.854   0.753 -0.0712  0.1360 -0.2547
  256CLF     CX  256   4.392   0.025   3.934  0.1493 -0.0341 -0.1096
  257CLF     CX  257   5.943   4.594   0.873 -0.0563 -0.1122 -0.2275
  258CLF     CX  258   5.040   4.121   2.788  0.0499 -0.1527  0.2701
  259CLF     CX  259   3.390   3.187   0.394  0.1483  0.1669 -0.2401
  260CLF     CX  260   6.015   4.437   1.397  0.2636 -0.0048 -0.0270
  261CLF     CX  261   4.787   4.536   5.459 -0.1146 -0.3695 -0.1878
  262CLF     CX  262   4.943   5.608   5.534 -0.0434 -0.1865  0.1160
  263CLF     CX  263   4.092   6.083   0.001 -0.1110  0.1571 -0.0443
  264CLF     CX  264   6.571   5.366   2.789 -0.2383 -0.3334  0.0973
  265CLF     CX  265   1.471   4.523   3.045  0.1228  0.1298  0.2881
  266CLF     CX  266   0.793   3.513   2.120  0.2320 -0.1184 -0.1419
  267CLF     CX  267   0.315   2.443   5.032 -0.0938 -0.1014  0.2906
  268CLF     CX  268   0.584   4.622   0.094  0.1905  0.0327  0.1299
  269CLF     CX  269   1.896   0.806   3.902  0.1868 -0.3670  0.0473
  270CLF     CX  270   3.853   1.821   1.070  0.2789 -0.3565 -0.0278
  271CLF     CX  271   2.616   4.533   4.175  0.0139 -0.0084 -0.3718
  272CLF     CX  272   2.672   5.572   4.804 -0.0414  0.1894  0.0488
  273CLF     CX  273   4.320   1.309   3.107  0.6226  0.0445 -0.0319
  274CLF     CX  274   5.374   5.152   4.842  0.1355  0.1053  0.1369
  275CLF     CX  275   4.344   6.534   0.141  0.0129 -0.0589  0.1923
  276CLF     CX  276   5.413   3.604   2.786  0.4081  0.0291  0.0482
  277CLF     CX  277   2.395   0.312   1.250  0.1813 -0.1990  0.1741
  278CLF     CX  278   0.637   6.169   2.382 -0.0178 -0.1812 -0.1477
  279CLF     CX  279   4.702   2.401   1.295 -0.0965  0.2098 -0.3081
  280CLF     CX  280   1.102   3.436   0.879  0.0854  0.4990  0.0527
  281CLF     CX  281   4.700   0.202   1.351 -0.1490  0.2436 -0.1327
  282CLF     CX  282   1.318   4.776   4.694  0.2072  0.2754 -0.1327
  283CLF     CX  283   2.828   4.816   6.185  0.0581 -0.0194 -0.4744
  284CLF     CX  284   1.784   6.006   1.772 -0.0889 -0.0750 -0.0889
  285CLF     CX  285   4.647   1.912   1.077  0.1730  0.0164 -0.0547
  286CLF     CX  286   1.625   5.659   0.192  0.0819 -0.0492  0.5858
  287CLF     CX  287   4.020   0.311   5.827  0.0041  0.1451 -0.1379
  288CLF     CX  288   5.321   2.614   5.901  0.1121 -0.0778  0.0789
  289CLF     CX  289   4.383   3.740   2.271  0.0796 -0.3070 -0.2795
  290CLF     CX  290   0.055   5.725   0.312  0.2317  0.0499  0.1925
  291CLF     CX  291   3.714   6.591   1.165  0.0799 -0.1817 -0.0343
  292CLF     CX  292   4.478   5.684   6.235  0.2591  0.0658  0.0118
  293CLF     CX  293   2.646   5.697   3.939  0.0640 -0.2961  0.1576
  294CLF     CX  294   6.027   5.833   2.241 -0.2382  0.0037  0.0316
  295CLF     CX  295   1.851   5.756   6.397 -0.0790  0.1371 -0.3173
  296CLF     CX  296   3.706   4.955   5.135  0.0268 -0.0147 -0.0303
  297CLF     CX  297   0.117   1.496   0.746  0.0671  0.3008 -0.0198
  298CLF     CX  298   6.069   5.903   3.898  0.2380 -0.1352 -0.1424
  299CLF     CX  299   3.869   1.743   6.267  0.2013  0.0422  0.0724
  300CLF     CX  300   2.048   1.273   3.696  0.0326 -0.1650 -0.0156
  301CLF     CX  301   2.296   0.373   5.875 -0.1515  0.2851 -0.2311
  302CLF     CX  302   2.333   0.765   2.073 -0.0103  0.0537  0.2481
  303CLF     CX  303   0.267   4.891   2.866  0.0112  0.0337 -0.1647
  304CLF     CX  304   5.700   2.751   6.253  0.3196 -0.0663 -0.1496
  305CLF     CX  305   6.043   6.347   4.313  0.0032 -0.0914 -0.0600
  306CLF     CX  306   4.328   0.816   5.767  0.0852 -0.0065  0.1734
  307CLF     CX  307   6.536   2.273   3.771 -0.0670 -0.0580  0.1797
  308CLF     CX  308   1.849   4.463   1.446 -0.0847 -0.2559 -0.1567
  309CLF     CX  309   5.559   6.586   6.352  0.1300 -0.0637 -0.3711
  310CLF     CX  310   1.963   6.315   0.741 -0.1850  0.0726 -0.2979
  311CLF     CX  311   4.513   0.886   2.914 -0.3019 -0.0709 -0.0423
  312CLF     CX  312   3.615   3.638   2.480  0.0281  0.2379  0.0893
  313CLF     CX  313   5.774   3.974   1.428 -0.1941  0.0166 -0.1649
  314CLF     CX  314   3.227   1.391   2.635  0.1493 -0.1857  0.1473
  315CLF     CX  315   0.734   2.123   5.305  0.0905  0.4524  0.0019
  316CLF     CX  316   0.157   3.366   6.358  0.0125  0.2016  0.0887
  317CLF     CX  317   3.004   5.740   0.008  0.2085 -0.1380  0.2199
  318CLF     CX  318   4.918   4.899   0.639  0.1178 -0.0369 -0.3174
  319CLF     CX  319   3.924   5.232   3.342  0.0898  0.4140 -0.1574
  320CLF     CX  320   0.034   1.745   4.652 -0.0116  0.2519 -0.3113
  321CLF     CX  321   4.817   5.579   1.680 -0.0305 -0.4503 -0.1332
  322CLF     CX  322   3.095   3.291   1.129 -0.3858 -0.0892 -0.3284
  323CLF     CX  323   2.092   3.944   2.768 -0.0579  0.0305  0.1384
  324CLF     CX  324   6.085   3.223   5.076 -0.1997  0.1890  0.0816
  325CLF     CX  325   3.552   3.220   1.430  0.0649  0.0568  0.3787
  326CLF     CX  326   5.484   2.328   0.539  0.0037  0.0890 -0.5094
  327CLF     CX  327   5.409   4.423   0.367 -0.0185 -0.1333 -0.1792
  328CLF     CX  328   0.185   1.945   1.446 -0.0097 -0.0446 -0.0091
  329CLF     CX  329   1.430   0.174   1.609  0.1151 -0.0704 -0.0318
  330CLF     CX  330   1.881   2.498   4.036  0.0842 -0.0714  0.0946
  331CLF     CX  331   2.982   4.020   5.488  0.1137 -0.2491  0.3563
  332CLF     CX  332   1.513   4.147   2.715  0.3191  0.1354  0.5575
  333CLF     CX  333   3.800   1.208   6.347  0.0591 -0.0786 -0.2703
  334CLF     CX  334   3.921   5.878   1.025  0.0872 -0.4240 -0.2011
  335CLF     CX  335   3.803   2.570   1.302  0.0182  0.0055 -0.1286
  336CLF     CX  336   1.940   6.253   3.400 -0.1278  0.1597 -0.0727
  337CLF     CX  337   2.825   1.583   3.585  0.1272  0.1720  0.0302
  338CLF     CX  338   2.745   2.625   5.236 -0.0730  0.3196 -0.3249
  339CLF     CX  339   2.016   2.114   1.504 -0.1263 -0.1071  0.0416
  340CLF     CX  340   2.810   3.946   2.190 -0.2449  0.0443 -0.0556
  341CLF     CX  341   2.565   2.953   3.267  0.1612  0.0869 -0.1023
  342CLF     CX  342   4.179   4.909   1.270  0.0454 -0.2830 -0.0292
  343CLF     CX  343   6.484   1.989   1.125 -0.1054  0.1628 -0.1309
  344CLF     CX  344   3.387   5.857   5.307  0.0924 -0.0864 -0.0800
  345CLF     CX  345   4.630   6.376   1.247  0.0165  0.1935  0.1041
  346CLF     CX  346   3.247   2.222   0.596  0.0589 -0.1323  0.0239
  347CLF     CX  347   6.389   1.039   2.487  0.1392 -0.3998 -0.0176
  348CLF     CX  348   3.773   5.896   4.448 -0.0076 -0.1903 -0.3058
  349CLF     CX  349   6.368   3.118   0.704 -0.1645 -0.2415 -0.0255
  350CLF     CX  350   4.383   3.432   3.586 -0.3854  0.4057 -0.1797
  351CLF     CX  351   6.208   5.895   0.538  0.0600  0.2408 -0.0404
  352CLF     CX  352   1.398   5.688   3.544  0.1375 -0.2353  0.3537
  353CLF     CX  353   3.053   6.251   0.337  0.2600  0.2126 -0.2572
  354CLF     CX  354   0.332   6.601   6.060  0.2786  0.4419  0.1882
  355CLF     CX  355   5.286   4.703   2.126 -0.1396  0.0893 -0.2663
  356CLF     CX  356   6.456   5.584   0.807  0.0353 -0.0188  0.0851
  357CLF     CX  357   1.836   4.773   5.930 -0.1019  0.0504  0.2917
  358CLF     CX  358   3.866   4.970   0.451 -0.2323  0.0608 -0.2901
  359CLF     CX  359   5.215   1.603   1.064  0.0162  0.1846 -0.2894
  360CLF     CX  360   3.433   0.012   6.032 -0.1135 -0.0140 -0.1953
  361CLF     CX  361   1.681   3.008   3.618 -0.1608  0.2495 -0.1509
  362CLF     CX  362   4.817   1.428   3.915  0.0697  0.0785 -0.1639
  363CLF     CX  363   4.848   3.759   1.947 -0.0412  0.1195 -0.0116
  364CLF     CX  364   5.798   1.479   4.812  0.0599  0.0528  0.0974
  365CLF     CX  365   1.435   1.792   2.192  0.1795 -0.1187  0.1983
  366CLF     CX  366   3.873   5.533   0.694 -0.1784 -0.0945  0.2286
  367CLF     CX  367   2.826   2.832   6.447  0.1136 -0.0397 -0.2347
  368CLF     CX  368   4.998   4.970   0.107 -0.0658 -0.0914 -0.2815
  369CLF     CX  369   3.347   0.009   2.011  0.0816  0.2071  0.0824
  370CLF     CX  370   4.153   6.229   1.241  0.2021 -0.1719  0.1505
  371CLF     CX  371   3.444   0.213   0.745  0.0826  0.1178 -0.1312
  372CLF     CX  372   1.114   0.501   3.174 -0.1133  0.0212  0.2411
  373CLF     CX  373   6.208   1.816   4.905 -0.0839  0.2458 -0.0047
  374CLF     CX  374   5.294   1.848   4.263  0.0148 -0.3289  0.1348
  375CLF     CX  375   4.334   5.650   2.483  0.0680  0.0698  0.3305
  376CLF     CX  376   6.391   3.314   1.189  0.0163  0.1645 -0.0406
  377CLF     CX  377   2.154   2.768   5.250 -0.3000  0.0669 -0.0587
  378CLF     CX  378   4.634   3.999   4.353  0.0160 -0.1953  0.2826
  379CLF     CX  379   6.377   6.551   1.700 -0.1164  0.3411 -0.0651
  380CLF     CX  380   1.117   5.397   4.936 -0.1308 -0.0798 -0.0594
  381CLF     CX  381   2.394   3.573   0.216 -0.0714  0.2309  0.0226
  382CLF     CX  382   5.013   4.985   5.649  0.0986 -0.3346  0.1867
  383CLF     CX  383   5.456   5.771   6.253 -0.0662 -0.1051 -0.0258
  384CLF     CX  384   2.444   2.098   2.739 -0.1081 -0.2489 -0.1398
  385CLF     CX  385   1.884   3.664   1.891 -0.1378  0.1179  0.0870
  386CLF     CX  386   0.288   2.245   0.205  0.1515 -0.5194 -0.0421
  387CLF     CX  387   4.589   6.327   4.313  0.0022  0.2149  0.2270
  388CLF     CX  388   5.496   5.084   0.737  0.0756  0.2882 -0.1565
  389CLF     CX  389   0.188   2.290   3.271  0.0765 -0.0586  0.1290
  390CLF     CX  390   0.609   5.024   2.573  0.0468  0.3463  0.2555
  391CLF     CX  391   3.998   4.851   3.009 -0.0020 -0.1190 -0.0802
  392CLF     CX  392   0.016   0.629   0.088  0.1892 -0.1921  0.0229
  393CLF     CX  393   3.216   2.017   0.128 -0.0065 -0.2397 -0.1451
  394CLF     CX  394   5.593   0.801   3.468 -0.1733  0.1758 -0.0267
  395CLF     CX  395   4.350   3.816   0.509 -0.0943  0.1465 -0.1533
  396CLF     CX  396   3.808   3.289   2.769 -0.0811 -0.3748  0.0567
  397CLF     CX  397   3.241   2.374   1.087 -0.1849 -0.2287 -0.0203
  398CLF     CX  398   2.624   4.748   0.009 -0.1871  0.2042 -0.0820
  399CLF     CX  399   4.745   4.262   1.112 -0.1460  0.3706  0.0191
  400CLF     CX  400   2.444   4.149   4.593  0.0260  0.1723  0.1326
  401CLF     CX  401   3.326   4.620   5.141  0.0538  0.1997  0.1533
  402CLF     CX  402   6.009   3.980   4.772  0.3679  0.0576  0.0944
  403CLF     CX  403   0.915   5.149   4.467 -0.1600 -0.0147 -0.0508
  404CLF     CX  404   4.205   1.834   4.678 -0.0967 -0.2930  0.0883
  405CLF     CX  405   1.181   1.272   4.438 -0.2326  0.0153 -0.2688
  406CLF     CX  406   5.016   0.632   2.276 -0.1846  0.0826 -0.2599
  407CLF     CX  407   5.150   3.090   2.335 -0.3034 -0.2254 -0.2030
  408CLF     CX  408   3.949   3.699   3.277 -0.0432  0.4440  0.0930
  409CLF     CX  409   3.821   6.054   2.148  0.1939 -0.1437 -0.0554
  410CLF     CX  410   3.509   2.078   1.422 -0.2270 -0.0817 -0.0354
  411CLF     CX  411   6.144   2.566   6.365 -0.0766  0.3446 -0.0519
  412CLF     CX  412   6.370   2.633   2.241  0.0642 -0.1637 -0.0784
  413CLF     CX  413   5.034   0.303   5.519 -0.0230  0.1532 -0.0431
  414CLF     CX  414   1.311   0.464   6.043 -0.0455  0.1893 -0.0863
  415CLF     CX  415   0.254   6.448   2.155 -0.0640 -0.0180 -0.1829
  416CLF     CX  416   5.281   1.626   6.124  0.2913  0.1429 -0.0555
  417CLF     CX  417   0.180   4.801   2.377 -0.1367  0.2727 -0.0879
  418CLF     CX  418   2.606   4.592   0.959  0.0293 -0.0412  0.1077
  419CLF     CX  419   3.081   4.887   0.242  0.1470  0.0616  0.1089
  420CLF     CX  420   0.114   5.866   1.105 -0.2350  0.1611  0.1678
  421CLF     CX  421   5.159   6.092   0.738 -0.1949 -0.1499 -0.1794
  422CLF     CX  422   0.442   2.981   1.284  0.2082 -0.0287 -0.3503
  423CLF     CX  423   0.746   5.637   4.728  0.1489  0.1512  0.1585
  424CLF     CX  424   0.305   0.434   1.797  0.0053 -0.1250 -0.0693
  425CLF     CX  425   3.835   4.539   4.288  0.0598  0.3670 -0.0483
  426CLF     CX  426   2.893   2.071   5.640 -0.0595 -0.1843  0.1661
  427CLF     CX  427   0.371   0.072   0.697  0.1587  0.0905 -0.1090
  428CLF     CX  428   5.554   5.224   6.388  0.0591  0.3345  0.3560
  429CLF     CX  429   1.190   0.706   0.910  0.2011 -0.2157  0.0112
  430CLF     CX  430   2.494   5.947   1.527  0.0985  0.0031  0.1232
  431CLF     CX  431   0.028   4.144   1.579 -0.2913  0.2674 -0.2310
  432CLF     CX  432   0.537   5.814   0.500  0.1746  0.2527 -0.0261
  433CLF     CX  433   2.328   5.533   6.504 -0.1381  0.2798  0.3209
  434CLF     CX  434   1.512   6.133   3.278 -0.1079 -0.1494  0.0822
  435CLF     CX  435   5.001   1.077   0.948 -0.1668  0.0498  0.0072
  436CLF     CX  436   4.384   1.640   3.688 -0.2599 -0.1469 -0.5366
  437CLF     CX  437   6.004   4.766   5.559 -0.1574  0.1819  0.0691
  438CLF     CX  438   2.922   1.613   5.301  0.1333 -0.2595  0.3035
  439CLF     CX  439   6.494   5.768   4.219  0.1538 -0.2089 -0.0607
  440CLF     CX  440   2.900   0.557   0.822 -0.1751 -0.2867  0.0791
  441CLF     CX  441   2.143   3.618   3.207  0.2476  0.1512 -0.0649
  442CLF     CX  442   1.881   2.042   4.115 -0.1750 -0.1761  0.3180
  443CLF     CX  443   5.714   1.388   2.213 -0.1405 -0.0738 -0.2371
  444CLF     CX  444   6.263   3.863   0.434  0.0830  0.1935 -0.1431
  445CLF     CX  445   1.684   3.668   5.508 -0.0448 -0.1279 -0.1337
  446CLF     CX  446   2.450   4.540   1.455 -0.0775  0.0745 -0.1351
  447CLF     CX  447   5.264   5.602   4.345  0.0160 -0.0627 -0.0065
  448CLF     CX  448   6.107   3.618   0.838  0.0986  0.1481 -0.1768
  449CLF     CX  449   6.193   1.841   4.399 -0.1827  0.0647 -0.4709
  450CLF     CX  450   3.717   1.365   2.012  0.0669  0.3944 -0.0288
  451CLF     CX  451   5.675   2.483   1.771 -0.3361  0.0546  0.2737
  452CLF     CX  452   0.841   0.103   0.347  0.1119 -0.3712 -0.1574
  453CLF     CX  453   4.256   6.101   0.459  0.1111  0.1263 -0.0034
  454CLF     CX  454   5.631   4.605   5.104  0.0045  0.1330  0.0910
  455CLF     CX  455   2.873   2.099   0.931 -0.2712  0.0535  0.0714
  456CLF     CX  456   1.154   3.839   0.187  0.0818 -0.2310  0.2136
  457CLF     CX  457   4.785   3.196   1.976 -0.1539 -0.1184 -0.1682
  458CLF     CX  458   4.479   3.669   5.842  0.0552  0.4807 -0.0006
  459CLF     CX  459   2.092   4.467   4.234 -0.3222 -0.4586  0.3076
  460CLF     CX  460   0.053   2.125   5.992 -0.0287  0.0445  0.1814
  461CLF     CX  461   0.325   2.992   6.014  0.0879 -0.0458 -0.1621
  462CLF     CX  462   3.777   6.529   4.989 -0.2165  0.2817 -0.0751
  463CLF     CX  463   4.802   0.061   2.771 -0.2100 -0.2121 -0.2729
  464CLF     CX  464   4.991   4.088   3.962 -0.1063 -0.3187 -0.1775
  465CLF     CX  465   4.193   3.661   1.122  0.1599  0.1598  0.2500
  466CLF     CX  466   3.245   5.041   6.175  0.2085  0.1073 -0.0508
  467CLF     CX  467   6.345   1.834   3.129  0.2075 -0.2553  0.1431
  468CLF     CX  468   5.833   4.531   2.301 -0.3339 -0.2610 -0.0555
  469CLF     CX  469   4.270   0.673   3.751  0.0754  0.1787 -0.2071
  470CLF     CX  470   2.259   4.997   5.716  0.0909  0.0437 -0.2973
  471CLF     CX  471   1.248   3.045   4.852 -0.0661 -0.0939 -0.1073
  472CLF     CX  472   1.292   2.779   1.792  0.2235  0.0738  0.0952
  473CLF     CX  473   2.445   2.330   1.768 -0.2173  0.3971 -0.1419
  474CLF     CX  474   6.496   6.580   4.379 -0.0240  0.2576 -0.2937
  475CLF     CX  475   3.928   5.639   1.954 -0.0496  0.1294  0.3613
  476CLF     CX  476   5.770   5.488   4.677  0.1104  0.1456 -0.0859
  477CLF     CX  477   0.346   1.219   6.421 -0.1043 -0.2251 -0.2639
  478CLF     CX  478   4.494   3.221   5.995  0.3317  0.0809 -0.0868
  479CLF     CX  479   1.884   6.390   4.176 -0.0283  0.4901 -0.3115
  480CLF     CX  480   4.527   5.936   2.088 -0.0284  0.1218 -0.2357
  481CLF     CX  481   4.242   1.697   1.374 -0.0239  0.1115 -0.2419
  482CLF     CX  482   2.028   0.917   2.369 -0.0945 -0.0563  0.1380
  483CLF     CX  483   4.940   3.987   0.106  0.0365 -0.0718 -0.1325
  484CLF     CX  484   2.415   0.887   5.831  0.1628  0.0763  0.4902
  485CLF     CX  485   4.096   0.390   0.655 -0.3038 -0.0663  0.1841
  486CLF     CX  486   5.688   1.253   3.850  0.2086 -0.2425 -0.3012
  487CLF     CX  487   6.623   5.094   3.306  0.0414 -0.0391 -0.0442
  488CLF     CX  488   3.316   5.436   2.827  0.0674 -0.1430 -0.0480
  489CLF     CX  489   2.509   6.165   2.752 -0.2304  0.0072  0.0110
  490CLF     CX  490   5.321   4.882   3.441  0.2114  0.2179  0.0701
  491CLF     CX  491   5.476   2.532   3.180 -0.1326  0.0964  0.1193
  492CLF     CX  492   2.799   0.925   5.251  0.0685 -0.0926 -0.2695
  493CLF     CX  493   1.390   2.042   0.165  0.1943 -0.1102  0.2424
  494CLF     CX  494   4.098   0.819   0.089  0.1838  0.0654  0.3818
  495CLF     CX  495   1.524   2.834   4.124 -0.0225 -0.1807  0.3236
  496CLF     CX  496   4.040   4.963   5.482  0.4087 -0.0789 -0.2358
  497CLF     CX  497   2.616   3.935   3.671  0.1658  0.0238  0.2027
  498CLF     CX  498   0.503   4.759   3.544 -0.1398  0.3086 -0.2721
  499CLF     CX  499   1.201   6.042   2.767 -0.0368  0.3001  0.0495
  500CLF     CX  500   0.748   2.299   2.501  0.1283  0.1163 -0.0377
  501CLF     CX  501   5.134   2.905   5.517 -0.2935  0.1023 -0.0885
  502CLF     CX  502   2.423   3.760   0.704 -0.0611  0.3232  0.1046
  503CLF     CX  503   4.561   5.227   4.820 -0.0494  0.1623 -0.1722
  504CLF     CX  504   3.998   2.608   0.656 -0.0810  0.1750 -0.0236
  505CLF     CX  505   5.457   1.424   0.574 -0.0609  0.2101 -0.0719
  506CLF     CX  506   0.936   0.747   6.167 -0.4686  0.0264  0.3717
  507CLF     CX  507   3.424   1.372   4.978  0.0580  0.1436  0.2168
  508CLF     CX  508   4.006   1.238   1.150  0.0226 -0.2737 -0.0172
  509CLF     CX  509   5.655   6.506   5.869  0.0328  0.0210 -0.2442
  510CLF     CX  510   1.645   1.700   6.416  0.0912  0.1996 -0.1046
  511CLF     CX  511   2.152   1.447   0.007 -0.0079  0.2706 -0.0005
  512CLF     CX  512   3.099   4.769   4.489 -0.0874 -0.4196  0.1897
  513CLF     CX  513   5.373   1.628   3.843 -0.3115  0.1673  0.1463
  514CLF     CX  514   3.460   0.666   3.781  0.2900  0.2621  0.0584
  515CLF     CX  515   0.337   4.039   1.114  0.1055  0.1278 -0.2198
  516CLF     CX  516   2.626   0.533   4.904  0.1011  0.0432 -0.1717
  517CLF     CX  517   4.526   5.253   5.431 -0.0289 -0.0575 -0.2128
  518CLF     CX  518   3.423   5.686   0.510 -0.0172 -0.3891  0.0458
  519CLF     CX  519   6.534   2.411   5.285 -0.1533 -0.1247 -0.1518
  520CLF     CX  520   2.871   3.834   3.218  0.0562 -0.0303 -0.0304
  521CLF     CX  521   3.840   3.278   3.494 -0.2241  0.0216 -0.0992
  522CLF     CX  522   0.764   4.311   4.712 -0.1460 -0.0764  0.0441
  523CLF     CX  523   3.403   4.258   4.421  0.0500 -0.2496  0.3736
  524CLF     CX  524   4.735   5.369   0.394 -0.3356  0.0811 -0.0422
  525CLF     CX  525   2.271   3.966   4.115  0.2850 -0.1482 -0.0372
  526CLF     CX  526   1.969   5.331   1.187  0.0675 -0.1077 -0.3755
  527CLF     CX  527   5.171   4.999   6.112 -0.0287  0.2989 -0.2957
  528CLF     CX  528   2.510   5.348   0.398 -0.0254 -0.1135 -0.0854
  529CLF     CX  529   0.126   5.335   2.307  0.2349 -0.2092  0.1026
  530CLF     CX  530   3.774   1.641   3.797  0.1292 -0.0009 -0.2557
  531CLF     CX  531   3.985   2.476   4.024 -0.1227 -0.0401 -0.0870
  532CLF     CX  532   3.427   3.561   6.213 -0.1039 -0.1388 -0.0786
  533CLF     CX  533   1.827   1.133   5.882  0.2008 -0.1239 -0.1122
  534CLF     CX  534   0.137   4.435   3.673  0.2249  0.3619  0.0575
  535CLF     CX  535   1.017   3.550   1.351  0.0111  0.1389  0.0327
  536CLF     CX  536   0.465   4.938   6.295 -0.2026  0.0405  0.1335
  537CLF     CX  537   5.878   5.471   3.477 -0.0578 -0.0305 -0.0766
  538CLF     CX  538   5.422   2.250   2.641  0.0280  0.2199 -0.0363
  539CLF     CX  539   2.745   6.424   5.274 -0.1561  0.5145  0.1363
  540CLF     CX  540   4.401   6.204   6.224  0.1745 -0.1048  0.1962
  541CLF     CX  541   0.386   3.032   4.783 -0.3165 -0.3694 -0.1693
  542CLF     CX  542   4.119   2.169   2.675 -0.3049  0.3744 -0.1884
  543CLF     CX  543   5.341   1.613   1.958 -0.0500  0.1441 -0.1031
  544CLF     CX  544   6.177   3.714   1.993 -0.2076  0.0016  0.3193
  545CLF     CX  545   0.373   3.359   0.496  0.2319 -0.1181 -0.3313
  546CLF     CX  546   3.301   1.429   3.846  0.0228  0.0592  0.2327
  547CLF     CX  547   3.967   6.481   5.997  0.1817  0.1312  0.0384
  548CLF     CX  548   0.489   3.062   2.837 -0.0198  0.3546 -0.0037
  549CLF     CX  549   3.768   5.194   2.589 -0.1213  0.3984  0.1231
  550CLF     CX  550   3.041   5.211   3.149  0.0697  0.0399 -0.2350
  551CLF     CX  551   2.924   3.135   5.237 -0.1064  0.1461  0.0587
  552CLF     CX  552   2.245   6.257   1.132 -0.2664 -0.1294  0.0943
  553CLF     CX  553   6.411   4.718   0.456  0.0664 -0.0121  0.0540
  554CLF     CX  554   0.553   0.202   5.563  0.0231 -0.1685  0.1466
  555CLF     CX  555   2.149   3.007   4.204 -0.0324  0.0719 -0.1696
  556CLF     CX  556   4.436   6.309   3.166 -0.0783 -0.2367 -0.1190
  557CLF     CX  557   5.850   1.079   0.422  0.1266  0.1395  0.0636
  558CLF     CX  558   2.243   0.175   4.891  0.1177 -0.3055  0.0508
  559CLF     CX  559   3.051   5.686   2.451 -0.1532 -0.2604 -0.1096
  560CLF     CX  560   0.083   1.784   2.299 -0.1235  0.0814 -0.1260
  561CLF     CX  561   0.938   3.963   5.078 -0.2600 -0.1758  0.0644
  562CLF     CX  562   3.887   0.028   2.185  0.1719 -0.2655  0.1716
  563CLF     CX  563   3.435   6.101   1.149  0.1949  0.2589  0.0601
  564CLF     CX  564   0.901   6.297   4.101 -0.1491 -0.0182  0.0693
  565CLF     CX  565   3.724   5.473   4.783 -0.3333  0.1463  0.0878
  566CLF     CX  566   1.542   4.306   0.693 -0.2661  0.0716  0.1186
  567CLF     CX  567   3.347   1.806   5.150  0.1468 -0.0346 -0.1855
  568CLF     CX  568   5.281   0.261   1.305 -0.2142 -0.0137 -0.0523
  569CLF     CX  569   6.034   3.769   5.688  0.2037  0.0355  0.0488
  570CLF     CX  570   6.427   6.230   3.933 -0.0362 -0.1498  0.1229
  571CLF     CX  571   3.750   6.454   6.517  0.2569  0.0915  0.0532
  572CLF     CX  572   0.594   1.558   0.669  0.0441  0.1134 -0.4220
  573CLF     CX  573   0.522   4.468   2.607 -0.2753 -0.0446 -0.2248
  574CLF     CX  574   4.244   4.224   0.877  0.4811 -0.0591 -0.1096
  575CLF     CX  575   0.543   0.849   2.765  0.1177 -0.0265 -0.1703
  576CLF     CX  576   4.325   1.606   6.230 -0.1045  0.1061  0.3261
  577CLF     CX  577   3.085   0.470   1.776  0.0832 -0.2612  0.1136
  578CLF     CX  578   5.370   3.400   5.331 -0.2877 -0.0307 -0.0643
  579CLF     CX  579   6.578   3.229   3.304  0.3836  0.0749 -0.0197
  580CLF     CX  580   2.425   0.812   0.834 -0.0068 -0.1201 -0.2300
  581CLF     CX  581   3.568   4.066   5.373 -0.0144 -0.0111 -0.3463
  582CLF     CX  582   1.925   3.626   4.166 -0.1350  0.1193 -0.2480
  583CLF     CX  583   0.197   4.945   0.176  0.1761  0.4216 -0.1939
  584CLF     CX  584   0.190   3.139   0.935 -0.0437  0.1616  0.2552
  585CLF     CX  585   0.803   1.338   2.696 -0.0290  0.1131 -0.0641
  586CLF     CX  586   3.902   2.702   5.060  0.4765 -0.1792 -0.1850
  587CLF     CX  587   2.840   5.980   2.180 -0.1474 -0.2935 -0.2813
  588CLF     CX  588   3.125   1.614   5.801 -0.1340 -0.0098  0.1695
  589CLF     CX  589   2.751   3.880   4.135 -0.2284  0.4999  0.2207
  590CLF     CX  590   0.702   6.456   6.440 -0.1547 -0.0771  0.0573
  591CLF     CX  591   0.800   6.388   5.743  0.1541 -0.2186 -0.0174
  592CLF     CX  592   3.708   1.572   5.891 -0.0372  0.0815  0.1182
  593CLF     CX  593   6.349   0.100   2.388 -0.0748 -0.1942  0.0331
  594CLF     CX  594   5.345   0.293   2.044  0.1736  0.1706  0.3372
  595CLF     CX  595   2.594   3.893   2.782 -0.0998 -0.0297  0.0818
  596CLF     CX  596   0.351   1.779   0.306 -0.0622  0.1128 -0.0402
  597CLF     CX  597   1.561   3.659   2.251  0.0427 -0.3320  0.1338
  598CLF     CX  598   5.983   6.287   1.693  0.1227  0.2795  0.0379
  599CLF     CX  599   1.756   3.013   5.511  0.1305 -0.2267  0.1923
  600CLF     CX  600   5.040   1.764   2.351  0.0834 -0.4125 -0.3443
  601CLF     CX  601   2.058   0.449   0.281  0.0819  0.2203  0.1354
  602CLF     CX  602   1.562   3.379   5.060  0.1790  0.1647  0.1039
  603CLF     CX  603   0.026   4.402   4.961  0.0446  0.2024  0.2056
  604CLF     CX  604   1.442   4.927   3.559  0.0093  0.1724 -0.0392
  605CLF     CX  605   5.813   3.857   2.350  0.0480 -0.1030  0.0706
  606CLF     CX  606   5.708   5.442   1.990 -0.0367  0.1829 -0.1192
  607CLF     CX  607   6.254   0.586   3.720 -0.1294 -0.1631  0.1191
  608CLF     CX  608   0.381   4.701   4.747 -0.0299 -0.1506  0.1583
  609CLF     CX  609   2.061   1.558   1.442  0.2797 -0.0256 -0.0330
  610CLF     CX  610   3.538   2.634   4.213 -0.0662  0.4743 -0.1355
  611CLF     CX  611   2.259   0.952   2.833 -0.3076  0.0700  0.3011
  612CLF     CX  612   4.399   1.219   4.851  0.1375 -0.1497 -0.0099
  613CLF     CX  613   2.655   2.146   3.394 -0.1110 -0.0848  0.2437
  614CLF     CX  614   4.059   0.798   5.157 -0.1126  0.1417 -0.2532
  615CLF     CX  615   1.947   2.929   1.727 -0.0201  0.2187  0.0973
  616CLF     CX  616   1.942   0.884   3.340  0.0328 -0.2425  0.0105
  617CLF     CX  617   3.847   4.509   5.366 -0.3404 -0.0637  0.0887
  618CLF     CX  618   2.490   5.141   3.013 -0.1886  0.1416  0.0048
  619CLF     CX  619   3.332   0.374   4.182 -0.0380 -0.3674  0.3580
  620CLF     CX  620   2.557   1.107   4.019 -0.0929 -0.0929  0.0761
  621CLF     CX  621   2.340   1.881   5.265  0.1056 -0.4066 -0.1829
  622CLF     CX  622   2.105   4.620   5.444  0.0094  0.0433  0.0529
  623CLF     CX  623   0.369   2.773   0.242 -0.2574 -0.3012  0.0412
  624CLF     CX  624   0.861   4.176   6.491  0.1606 -0.2776  0.1504
  625CLF     CX  625   4.272   0.462   1.231 -0.2212 -0.1806 -0.2558
  626CLF     CX  626   5.335   3.830   4.460 -0.1011  0.3800 -0.0845
  627CLF     CX  627   3.693   6.626   3.374 -0.4729 -0.1498  0.3340
  628CLF     CX  628   6.096   5.086   4.772  0.2700 -0.0312  0.2528
  629CLF     CX  629   1.522   3.450   0.488  0.2397  0.0542  0.1594
  630CLF     CX  630   6.473   4.230   0.689  0.2687  0.0880  0.2682
  631CLF     CX  631   3.777   6.207   5.408  0.0157 -0.0997  0.0840
  632CLF     CX  632   5.005   2.835   5.000  0.0026 -0.1286  0.0079
  633CLF     CX  633   6.294   4.181   3.106 -0.0727  0.0333  0.0781
  634CLF     CX  634   1.055   5.969   0.582 -0.0207 -0.0820  0.0279
  635CLF     CX  635   5.247   2.108   5.968  0.0476 -0.0315  0.0399
  636CLF     CX  636   0.828   1.173   0.354  0.0800 -0.3396  0.1467
  637CLF     CX  637   1.794   1.242   4.865  0.4676  0.1187  0.0040
  638CLF     CX  638   0.933   6.080   6.191  0.0863  0.0733  0.3494
  639CLF     CX  639   0.449   1.510   1.598  0.0329  0.2314 -0.1807
  640CLF     CX  640   5.773   3.255   6.360 -0.0580  0.1610 -0.1391
  641CLF     CX  641   1.197   3.465   2.992 -0.3866 -0.1808  0.1947
  642CLF     CX  642   0.384   1.863   6.436 -0.3883 -0.1892  0.1005
  643CLF     CX  643   4.726   3.684   6.345  0.0662 -0.0519 -0.2283
  644CLF     CX  644   3.987   2.228   4.933  0.1892 -0.0038 -0.0735
  645CLF     CX  645   5.295   3.684   2.190  0.1135 -0.0085 -0.3249
  646CLF     CX  646   6.498   2.281   1.844 -0.0194 -0.2641  0.0443
  647CLF     CX  647   2.972   5.513   0.452  0.0767 -0.2844 -0.3248
  648CLF     CX  648   2.765   4.371   3.420  0.2606 -0.0515  0.1410
  649CLF     CX  649   0.300   1.277   4.803 -0.0301 -0.1950  0.0219
  650CLF     CX  650   2.029   5.239   6.103 -0.1400 -0.2152 -0.1599
  651CLF     CX  651   5.212   3.010   4.061 -0.3079 -0.1976  0.0418
  652CLF     CX  652   1.289   3.648   6.278 -0.0183 -0.1927  0.0628
  653CLF     CX  653   6.280   4.495   6.380 -0.0612 -0.0678 -0.2772
  654CLF     CX  654   1.207   5.960   5.612 -0.0302 -0.1415  0.0589
  655CLF     CX  655   0.223   0.547   5.370 -0.0340  0.2263 -0.1126
  656CLF     CX  656   0.989   3.703   5.902 -0.0576  0.3800 -0.1355
  657CLF     CX  657   4.925   3.514   5.087 -0.2392 -0.0278 -0.1153
  658CLF     CX  658   5.141   1.149   2.183  0.1784  0.2237  0.0259
  659CLF     CX  659   2.476   2.049   2.179  0.3689  0.0636  0.2537
  660CLF     CX  660   0.657   4.195   3.397 -0.1553  0.0823  0.1107
  661CLF     CX  661   6.118   5.112   2.946 -0.1358  0.1515  0.0215
  662CLF     CX  662   2.482   4.814   3.655  0.1292 -0.3602 -0.1535
  663CLF     CX  663   1.173   3.638   3.681 -0.2092 -0.0234  0.1021
  664CLF     CX  664   4.482   1.793   5.810  0.3328  0.0583 -0.1918
  665CLF     CX  665   4.935   1.667   0.155 -0.0854  0.1208  0.0087
  666CLF     CX  666   3.211   5.728   3.286 -0.0511  0.1071 -0.0327
  667CLF     CX  667   2.934   4.992   5.083 -0.0691 -0.0822 -0.1693
  668CLF     CX  668   3.736   6.346   1.741  0.1356 -0.2381 -0.0078
  669CLF     CX  669   0.736   5.909   2.753 -0.0962  0.4943  0.2429
  670CLF     CX  670   5.394   4.701   6.505 -0.1211  0.0029  0.0485
  671CLF     CX  671   1.975   1.898   0.210 -0.1705 -0.0473 -0.1590
  672CLF     CX  672   1.221   4.993   0.989  0.1613  0.4083 -0.4316
  673CLF     CX  673   0.781   3.628   2.868  0.0553 -0.1445  0.1162
  674CLF     CX  674   3.983   4.609   2.535  0.1680  0.0723  0.0929
  675CLF     CX  675   1.371   6.227   1.524  0.1383  0.1763  0.1377
  676CLF     CX  676   2.188   3.681   6.274 -0.1533 -0.0630  0.0063
  677CLF     CX  677   6.113   2.778   0.888 -0.0969 -0.0729 -0.3329
  678CLF     CX  678   4.746   0.897   6.343 -0.0547  0.0975 -0.4901
  679CLF     CX  679   0.164   4.976   3.978  0.0827  0.1731 -0.2107
  680CLF     CX  680   2.579   6.032   0.862 -0.2471 -0.0622 -0.1346
  681CLF     CX  681   3.804   4.396   2.922  0.1568 -0.1288 -0.0564
  682CLF     CX  682   5.690   1.607   1.460 -0.3272 -0.0438 -0.1606
  683CLF     CX  683   5.849   1.143   4.428 -0.1435  0.0430  0.0851
  684CLF     CX  684   5.576   5.176   4.352 -0.0880 -0.0862  0.1577
  685CLF     CX  685   3.265   5.101   2.309 -0.1855  0.0568 -0.0633
  686CLF     CX  686   4.177   4.715   0.794 -0.0205 -0.0986 -0.0158
  687CLF     CX  687   0.174   6.622   1.512  0.1670  0.4693  0.2104
  688CLF     CX  688   5.010   0.509   0.968  0.2611  0.0086  0.0396
  689CLF     CX  689   5.992   4.320   0.414  0.0503  0.2631  0.2506
  690CLF     CX  690   5.954   0.007   5.120 -0.3647 -0.0493  0.0619
  691CLF     CX  691   3.631   5.088   5.827 -0.0698 -0.1960 -0.0577
  692CLF     CX  692   1.715   0.500   4.590  0.0253  0.3471  0.1282
  693CLF     CX  693   5.881   3.719   3.816  0.0953 -0.1116 -0.1273
  694CLF     CX  694   6.484   0.977   1.146 -0.2687 -0.0879  0.0150
  695CLF     CX  695   1.082   1.076   4.873 -0.3559 -0.1783 -0.1248
  696CLF     CX  696   4.443   4.898   3.871  0.3789 -0.3189 -0.0432
  697CLF     CX  697   2.218   6.516   1.548  0.1241  0.0712 -0.1598
  698CLF     CX  698   1.078   2.376   1.372 -0.3009  0.0555 -0.1425
  699CLF     CX  699   5.443   3.077   0.131 -0.1915 -0.2249 -0.2102
  700CLF     CX  700   2.168   2.286   1.050  0.2708 -0.5125  0.0388
  701CLF     CX  701   0.416   2.140   4.540 -0.0516  0.1488  0.2917
  702CLF     CX  702   5.329   2.890   4.571  0.1671  0.0834 -0.1299
  703CLF     CX  703   5.855   4.916   1.282 -0.1920 -0.4226  0.1275
  704CLF     CX  704   5.361   2.142   0.995 -0.2988 -0.3513 -0.1595
  705CLF     CX  705   3.832   2.989   4.646 -0.0498  0.2045  0.1843
  706CLF     CX  706   1.406   3.101   2.385 -0.1850  0.0329 -0.3769
  707CLF     CX  707   5.711   3.600   1.861 -0.0562 -0.2202 -0.2017
  708CLF     CX  708   6.302   2.405   2.707 -0.1577  0.5567  0.0435
  709CLF     CX  709   6.009   5.772   4.366  0.1400 -0.0680 -0.0125
  710CLF     CX  710   1.607   6.120   4.493 -0.0061 -0.0904  0.2587
  711CLF     CX  711   4.823   1.555   1.942 -0.0614 -0.2649 -0.1299
  712CLF     CX  712   6.146   3.288   3.665 -0.0802 -0.0672 -0.1990
  713CLF     CX  713   5.987   5.341   6.548 -0.0121  0.1481 -0.1048
  714CLF     CX  714   1.498   3.204   6.272  0.0026 -0.0748  0.0922
  715CLF     CX  715   1.234   6.517   5.958  0.3323 -0.2854 -0.0173
  716CLF     CX  716   0.075   0.738   6.186 -0.2358 -0.3407 -0.0922
  717CLF     CX  717   5.514   5.914   4.725 -0.0172 -0.0321  0.2369
  718CLF     CX  718   4.428   6.612   5.825 -0.1892 -0.3283 -0.0956
  719CLF     CX  719   2.327   0.213   2.212 -0.1148  0.2593  0.2227
  720CLF     CX  720   5.021   3.429   5.768  0.0942  0.0049  0.0274
  721CLF     CX  721   6.313   4.093   5.974 -0.2420 -0.0762 -0.2361
  722CLF     CX  722   2.299   3.106   1.224  0.0929 -0.3402  0.0592
  723CLF     CX  723   1.147   2.247   6.296  0.0970  0.0772 -0.2451
  724CLF     CX  724   6.546   0.279   0.434 -0.2906  0.0328 -0.3855
  725CLF     CX  725   0.428   1.715   5.658 -0.2057 -0.1276 -0.2582
  726CLF     CX  726   5.413   4.178   1.108 -0.1149 -0.1757 -0.2039
  727CLF     CX  727   3.376   2.534   1.667 -0.0600  0.3201 -0.0376
  728CLF     CX  728   4.325   0.131   5.010  0.0211 -0.1366  0.2902
  729CLF     CX  729   1.670   3.753   0.148  0.0919 -0.2340  0.0564
  730CLF     CX  730   2.826   5.672   2.958  0.1810 -0.0791  0.0316
  731CLF     CX  731   1.382   4.607   6.210 -0.1402  0.0485  0.0935
  732CLF     CX  732   3.791   4.967   4.624  0.3165 -0.0402 -0.0527
  733CLF     CX  733   3.263   5.767   4.734  0.3221  0.3174  0.1104
  734CLF     CX  734   3.188   1.783   4.178  0.0749  0.1800 -0.3683
  735CLF     CX  735   4.403   5.972   3.611  0.1205  0.0531 -0.4174
  736CLF     CX  736   5.232   2.677   1.058 -0.0998 -0.1058 -0.1407
  737CLF     CX  737   5.353   3.540   3.285  0.2034 -0.2097  0.1330
  738CLF     CX  738   0.286   2.390   4.086 -0.2114  0.1806  0.0461
  739CLF     CX  739   0.709   5.957   4.334  0.1794 -0.1479 -0.1296
  740CLF     CX  740   1.436   5.304   4.595  0.1476 -0.3752 -0.1224
  741CLF     CX  741   1.170   6.499   2.420 -0.1090  0.0211 -0.0097
  742CLF     CX  742   1.233   2.520   3.697 -0.3075 -0.1524 -0.1556
  743CLF     CX  743   2.911   6.168   3.160 -0.0700 -0.0571 -0.0293
  744CLF     CX  744   0.955   4.132   2.936 -0.1108 -0.0770 -0.4018
  745CLF     CX  745   1.401   0.265   2.717  0.2040  0.1365 -0.1773
  746CLF     CX  746   4.139   1.837   4.064 -0.0057  0.3198 -0.2657
  747CLF     CX  747   1.241   1.053   0.484  0.2010 -0.1998  0.1599
  748CLF     CX  748   0.137   0.992   0.720  0.0230 -0.3495 -0.2009
  749CLF     CX  749   0.603   1.276   3.904 -0.0754  0.1695  0.1596
  750CLF     CX  750   5.556   0.979   2.437 -0.0301 -0.0211  0.0170
  751CLF     CX  751   4.846   1.256   4.410  0.0893  0.0944  0.0664
  752CLF     CX  752   3.998   2.172   3.654  0.1427  0.1351  0.1860
  753CLF     CX  753   3.177   0.833   3.371 -0.0413 -0.2600  0.0617
  754CLF     CX  754   4.151   3.289   5.621  0.1732 -0.2530 -0.1663
  755CLF     CX  755   2.692   4.289   6.486 -0.0176  0.2588  0.0240
  756CLF     CX  756   0.649   3.104   6.523 -0.1817  0.0375 -0.1066
  757CLF     CX  757   0.892   4.826   5.905 -0.0428  0.0437 -0.2458
  758CLF     CX  758   4.568   2.559   1.811  0.0048 -0.1872  0.0260
  759CLF     CX  759   2.887   2.652   4.656 -0.0299 -0.2877 -0.4820
  760CLF     CX  760   1.426   2.611   4.534 -0.0544  0.1921 -0.0760
  761CLF     CX  761   4.210   6.629   1.021 -0.1178  0.2457 -0.0996
  762CLF     CX  762   4.090   1.001   2.636 -0.4687  0.3065  0.3380
  763CLF     CX  763   4.284   1.533   0.835 -0.2453  0.2533 -0.0320
  764CLF     CX  764   0.524   5.491   1.453 -0.1364 -0.1688 -0.2276
  765CLF     CX  765   0.673   5.483   5.221  0.4508  0.2076  0.1543
  766CLF     CX  766   6.036   6.548   0.566  0.3797  0.0622  0.1807
  767CLF     CX  767   2.543   5.864   6.085  0.0650  0.0821  0.1824
  768CLF     CX  768   3.334   0.224   5.177 -0.2132  0.1685 -0.1591
  769CLF     CX  769   3.748   1.255   5.477  0.0099  0.3164  0.2493
  770CLF     CX  770   4.937   1.298   4.954 -0.0366 -0.0034 -0.2915
  771CLF     CX  771   1.987   3.149   2.181  0.1456  0.1986 -0.1106
  772CLF     CX  772   5.212   5.580   4.929 -0.1185  0.0595 -0.1579
  773CLF     CX  773   6.515   0.504   4.485 -0.0205  0.0547  0.0011
  774CLF     CX  774   5.917   3.861   2.855  0.3210 -0.1838  0.1421
  775CLF     CX  775   0.771   0.240   6.035 -0.0389 -0.1068  0.1605
  776CLF     CX  776   6.496   0.196   3.389  0.0197 -0.2082  0.2707
  777CLF     CX  777   2.966   5.886   1.746 -0.2935 -0.2018  0.4426
  778CLF     CX  778   5.747   5.917   1.832 -0.0826 -0.1892 -0.2923
  779CLF     CX  779   6.424   6.035   5.130 -0.1970 -0.4017  0.0700
  780CLF     CX  780   4.415   6.030   1.615  0.0251 -0.1331 -0.1454
  781CLF     CX  781   0.760   3.234   3.285  0.0355  0.2975  0.1647
  782CLF     CX  782   2.450   4.748   1.913  0.0200  0.0087  0.1546
  783CLF     CX  783   6.345   4.760   3.561 -0.1345 -0.3495 -0.1587
  784CLF     CX  784   2.768   6.311   1.834  0.3140  0.1233 -0.1504
  785CLF     CX  785   5.931   5.273   5.213 -0.2557 -0.0871 -0.1090
  786CLF     CX  786   3.182   3.619   0.152 -0.0309  0.2860  0.1527
  787CLF     CX  787   1.809   4.003   6.268  0.0173  0.2181  0.0038
  788CLF     CX  788   3.903   2.041   0.014  0.0928 -0.0801  0.1439
  789CLF     CX  789   6.613   2.151   6.499 -0.3029 -0.0665  0.1322
  790CLF     CX  790   1.387   5.562   1.724  0.0546 -0.3708 -0.0732
  791CLF     CX  791   4.909   6.075   1.618 -0.1521 -0.2231  0.2314
  792CLF     CX  792   4.989   2.516   4.067 -0.0115  0.1646 -0.0098
  793CLF     CX  793   2.755   0.550   3.422  0.1221  0.0120 -0.1717
  794CLF     CX  794   2.541   2.868   0.344  0.1436 -0.4138 -0.0024
  795CLF     CX  795   0.782   6.149   4.845 -0.2067  0.3733  0.3711
  796CLF     CX  796   3.498   2.102   3.945 -0.0538  0.0877 -0.2230
  797CLF     CX  797   4.261   6.210   2.598 -0.0024  0.0038  0.1890
  798CLF     CX  798   2.633   1.492   3.134 -0.2657 -0.0921  0.1160
  799CLF     CX  799   4.266   3.036   3.956  0.2248  0.0309 -0.0845
  800CLF     CX  800   0.438   5.399   2.910 -0.0679  0.1626  0.1946
  801CLF     CX  801   2.610   3.923   5.156 -0.0756 -0.1164 -0.1410
  802CLF     CX  802   4.644   5.344   2.127 -0.1995 -0.0739 -0.1889
  803CLF     CX  803   6.398   4.315   2.169 -0.0747  0.0432  0.0592
  804CLF     CX  804   4.197   6.416   5.374  0.3124  0.1149 -0.1908
  805CLF     CX  805   4.559   5.212   6.450 -0.0180 -0.0075 -0.0064
  806CLF     CX  806   2.652   2.468   1.194 -0.0406  0.0413  0.0751
  807CLF     CX  807   0.124   3.591   2.870 -0.1514  0.0426 -0.1601
  808CLF     CX  808   5.677   3.210   3.616 -0.0033  0.0923 -0.1177
  809CLF     CX  809   2.997   3.552   3.623  0.2909  0.1397 -0.1583
  810CLF     CX  810   5.999   0.189   2.705 -0.1172  0.2923 -0.1400
  811CLF     CX  811   3.676   4.520   4.815  0.0257 -0.2711 -0.2793
  812CLF     CX  812   5.093   3.997   3.265  0.1499 -0.2679  0.1136
  813CLF     CX  813   3.423   2.163   1.971 -0.0711 -0.2246  0.2256
  814CLF     CX  814   4.650   4.248   3.143 -0.1290 -0.0390 -0.1585
  815CLF     CX  815   3.514   4.980   3.079 -0.0137  0.3093  0.0410
  816CLF     CX  816   3.041   2.772   4.161  0.0058 -0.2604 -0.1686
  817CLF     CX  817   2.547   1.570   4.021 -0.0493  0.2730  0.0235
  818CLF     CX  818   2.820   3.493   0.564 -0.2484 -0.0188 -0.0655
  819CLF     CX  819   3.359   0.739   0.589  0.1933  0.3497  0.1042
  820CLF     CX  820   0.295   3.590   3.383 -0.0308 -0.1563  0.0162
  821CLF     CX  821   1.191   3.124   3.519  0.1761  0.0836 -0.2738
  822CLF     CX  822   4.252   3.745   4.778 -0.1086  0.0576  0.0226
  823CLF     CX  823   6.332   0.843   0.407 -0.3193 -0.0258  0.2821
  824CLF     CX  824   5.497   2.952   5.171  0.0093 -0.1995 -0.2813
  825CLF     CX  825   4.777   1.727   4.339  0.1141 -0.0870 -0.0558
  826CLF     CX  826   3.055   3.361   6.365  0.0561 -0.0920  0.1070
  827CLF     CX  827   4.258   0.318   3.422 -0.0731 -0.0359  0.0224
  828CLF     CX  828   5.515   5.032   5.412 -0.0516  0.3055 -0.1585
  829CLF     CX  829   1.473   1.312   3.638 -0.0028  0.1050 -0.0959
  830CLF     CX  830   3.223   6.559   6.501 -0.0901  0.1551 -0.0093
  831CLF     CX  831   4.196   4.977   1.774  0.1076 -0.0785  0.0535
  832CLF     CX  832   2.046   3.619   2.388 -0.1023  0.3912  0.3240
  833CLF     CX  833   1.067   4.385   2.346  0.2825  0.1751  0.0460
  834CLF     CX  834   1.302   0.177   0.983 -0.0295  0.1679 -0.0975
  835CLF     CX  835   1.087   5.330   3.457 -0.0997 -0.1366 -0.1260
  836CLF     CX  836   0.137   4.983   1.912  0.1007  0.0017 -0.0152
  837CLF     CX  837   5.280   5.419   6.007  0.1206  0.0003  0.4899
  838CLF     CX  838   4.337   1.173   5.368  0.2329 -0.4111  0.2042
  839CLF     CX  839   2.213   4.000   0.098  0.0328  0.0394  0.1423
  840CLF     CX  840   1.396   2.761   5.853 -0.0272 -0.0901  0.1463
  841CLF     CX  841   3.734   5.212   6.295 -0.1500 -0.0640  0.0079
  842CLF     CX  842   0.998   0.177   4.151 -0.0814 -0.0250  0.1726
  843CLF     CX  843   4.182   4.260   3.397  0.1878  0.0210  0.1085
  844CLF     CX  844   2.601   2.712   3.898  0.1005  0.1747  0.3879
  845CLF     CX  845   1.006   2.106   3.711  0.1891  0.1951  0.1194
  846CLF     CX  846   0.425   3.765   6.136  0.0642 -0.1086  0.0070
  847CLF     CX  847   4.558   6.081   5.572  0.1359  0.1652  0.1352
  848CLF     CX  848   4.861   0.947   5.541  0.2137 -0.0625  0.0950
  849CLF     CX  849   5.511   0.076   0.734 -0.0523  0.0556  0.1168
  850CLF     CX  850   0.466   1.939   1.988  0.0013 -0.1120 -0.2104
  851CLF     CX  851   1.394   2.656   1.041  0.1724  0.0689 -0.0562
  852CLF     CX  852   6.073   3.156   1.946  0.1560  0.1107 -0.0918
  853CLF     CX  853   5.102   3.360   1.711  0.3213  0.0557  0.0944
  854CLF     CX  854   2.275   1.664   3.440  0.0250  0.1688 -0.0795
  855CLF     CX  855   3.030   1.219   1.491  0.0589 -0.2020  0.2052
  856CLF     CX  856   3.038   5.350   3.707  0.0385 -0.1415 -0.3644
  857CLF     CX  857   0.303   0.597   0.500 -0.1175 -0.1419 -0.3045
  858CLF     CX  858   1.533   5.881   2.263 -0.0844  0.0271  0.3395
  859CLF     CX  859   2.691   2.001   3.875  0.1768  0.1008  0.1064
  860CLF     CX  860   5.745   1.171   6.468  0.1088 -0.0707 -0.0953
  861CLF     CX  861   5.107   4.504   3.126 -0.1288  0.0461 -0.0247
  862CLF     CX  862   3.992   4.431   6.300  0.1123  0.0307  0.1092
  863CLF     CX  863   5.676   4.369   3.066 -0.0893 -0.0593 -0.1490
  864CLF     CX  864   4.651   1.365   2.402 -0.1956 -0.0172 -0.1355
  865CLF     CX  865   4.949   2.734   3.125  0.0814  0.0041  0.3220
  866CLF     CX  866   2.307   6.076   5.498 -0.1969 -0.0993  0.0392
  867CLF     CX  867   1.863   0.427   3.526  0.0697  0.2026 -0.2010
  868CLF     CX  868   3.391   1.927   0.974  0.2371 -0.1801 -0.1960
  869CLF     CX  869   3.679   3.523   5.769  0.0667 -0.2992 -0.1031
  870CLF     CX  870   0.624   0.241   4.963  0.1717 -0.1771 -0.0673
  871CLF     CX  871   2.156   5.211   3.355  0.0091 -0.1164  0.2267
  872CLF     CX  872   0.858   5.134   3.120  0.1945 -0.1372  0.3179
  873CLF     CX  873   2.192   0.099   0.874  0.1853  0.0544 -0.0113
  874CLF     CX  874   2.480   2.879   4.875  0.1529  0.0190 -0.2589
  875CLF     CX  875   0.770   6.460   3.606 -0.2261  0.1574  0.1525
  876CLF     CX  876   4.702   4.804   3.011 -0.0644 -0.3454  0.0901
  877CLF     CX  877   4.539   5.970   0.996 -0.1926  0.1890  0.0611
  878CLF     CX  878   1.530   6.458   5.471 -0.1642 -0.1359 -0.0520
  879CLF     CX  879   3.406   0.178   2.519  0.0232 -0.0297  0.0710
  880CLF     CX  880   2.962   4.752   1.288  0.1315  0.2604  0.1145
  881CLF     CX  881   5.510   4.069   0.048 -0.3195 -0.0699 -0.0945
  882CLF     CX  882   5.220   5.751   3.250 -0.3161  0.1847  0.1126
  883CLF     CX  883   5.813   3.734   5.159 -0.0640 -0.4456 -0.3167
  884CLF     CX  884   4.701   0.131   6.282  0.1758  0.1496  0.0277
  885CLF     CX  885   6.371   3.758   3.799  0.2873 -0.0619  0.2433
  886CLF     CX  886   5.598   0.721   6.188  0.1457  0.0078  0.1287
  887CLF     CX  887   1.356   1.577   1.039 -0.1055 -0.0022  0.1225
  888CLF     CX  888   1.136   3.262   1.726  0.4578 -0.0257 -0.0662
  889CLF     CX  889   3.352   3.442   2.876  0.0685  0.2378 -0.0468
  890CLF     CX  890   6.075   2.223   5.391  0.0092 -0.1526  0.2022
  891CLF     CX  891   1.331   5.086   2.980 -0.0435  0.2124  0.1756
  892CLF     CX  892   4.341   2.087   0.765  0.0990 -0.1336 -0.0138
  893CLF     CX  893   0.038   0.701   2.608 -0.1425 -0.0220 -0.2136
  894CLF     CX  894   6.430   1.018   6.547 -0.1428 -0.1668  0.2899
  895CLF     CX  895   1.426   6.395   5.022  0.2176 -0.0479  0.0834
  896CLF     CX  896   5.430   1.580   0.109 -0.2874 -0.3936 -0.2605
  897CLF     CX  897   1.880   6.520   4.669  0.0086  0.0229 -0.2175
  898CLF     CX  898   4.165   4.749   4.836 -0.0715 -0.1078 -0.0519
  899CLF     CX  899   6.080   2.895   5.955  0.1442  0.0693 -0.2088
  900CLF     CX  900   0.487   3.398   5.624 -0.2351 -0.3420  0.0850
  901CLF     CX  901   0.064   1.441   1.260 -0.0051  0.1914  0.1449
  902CLF     CX  902   4.585   0.327   0.874 -0.1730  0.0551 -0.3074
  903CLF     CX  903   0.449   4.522   5.216 -0.0585  0.4689 -0.2110
  904CLF     CX  904   5.374   4.304   6.241 -0.1818  0.2217  0.3103
  905CLF     CX  905   2.668   0.806   0.467 -0.2385  0.0664 -0.0844
  906CLF     CX  906   5.381   3.292   0.550 -0.2076  0.1161  0.0903
  907CLF     CX  907   3.462   5.526   4.318 -0.0603 -0.0861 -0.0433
  908CLF     CX  908   1.938   0.214   3.115 -0.2829 -0.0536 -0.0315
  909CLF     CX  909   6.307   5.861   6.607  0.0087 -0.2202 -0.1960
  910CLF     CX  910   4.624   5.644   5.116  0.0760  0.1279  0.0038
  911CLF     CX  911   3.438   3.539   3.328 -0.1665 -0.0714  0.3182
  912CLF     CX  912   0.182   5.016   4.471 -0.0075 -0.1900  0.0776
  913CLF     CX  913   5.992   1.500   0.583  0.1529 -0.3418 -0.1106
  914CLF     CX  914   0.251   6.143   4.390  0.2715  0.0527 -0.1349
  915CLF     CX  915   0.976   3.155   6.181 -0.0295  0.0158 -0.3843
  916CLF     CX  916   4.020   3.811   5.648 -0.0468  0.0157 -0.2179
  917CLF     CX  917   4.253   0.063   4.384  0.1108  0.1427  0.0936
  918CLF     CX  918   0.499   1.567   5.203  0.1353  0.4063  0.3014
  919CLF     CX  919   1.982   1.051   0.651 -0.2050  0.0806  0.1281
  920CLF     CX  920   0.877   3.748   3.327  0.1289 -0.2426  0.1288
  921CLF     CX  921   2.279   1.909   4.418  0.2648 -0.1450  0.0182
  922CLF     CX  922   0.038   0.996   4.491 -0.1788  0.0925 -0.0802
  923CLF     CX  923   3.915   1.498   3.298 -0.0187 -0.3058  0.0710
  924CLF     CX  924   2.511   1.722   0.138  0.0686 -0.0294  0.0036
  925CLF     CX  925   0.493   1.103   4.305 -0.0801 -0.0398 -0.1985
  926CLF     CX  926   2.356   6.004   6.531 -0.2728 -0.2671 -0.4177
  927CLF     CX  927   1.201   5.007   2.332  0.4963 -0.0457  0.0967
  928CLF     CX  928   4.866   2.304   0.695 -0.0677  0.1753 -0.1416
  929CLF     CX  929   4.371   1.903   1.874 -0.0350  0.2367  0.1741
  930CLF     CX  930   1.993   4.436   2.941 -0.0010 -0.0921 -0.1667
  931CLF     CX  931   3.641   1.773   2.918 -0.3078 -0.3631  0.1678
  932CLF     CX  932   3.936   1.809   5.481 -0.2027 -0.0516 -0.2582
  933CLF     CX  933   2.969   1.551   0.159 -0.0059 -0.1291  0.1099
  934CLF     CX  934   2.620   5.389   5.762  0.0575  0.0267  0.3743
  935CLF     CX  935   0.008   0.852   2.071 -0.1277  0.4506  0.0337
  936CLF     CX  936   4.688   6.323   2.403  0.2055 -0.0018 -0.0996
  937CLF     CX  937   6.273   5.520   3.162 -0.0431 -0.0900  0.1243
  938CLF     CX  938   1.483   5.950   6.085 -0.1742 -0.0978  0.1083
  939CLF     CX  939   4.665   3.563   4.560  0.2337 -0.1560  0.0095
  940CLF     CX  940   3.791   0.762   0.935  0.0427 -0.1616 -0.0784
  941CLF     CX  941   4.111   2.148   5.924  0.0861  0.0498 -0.3373
  942CLF     CX  942   4.473   3.545   1.720 -0.1340  0.5608 -0.2134
  943CLF     CX  943   3.392   4.083   0.615  0.0940  0.1414  0.2662
  944CLF     CX  944   6.069   0.203   4.680 -0.0353 -0.1206 -0.1393
  945CLF     CX  945   4.415   3.400   2.715  0.0788 -0.3096 -0.1573
  946CLF     CX  946   2.830   1.915   6.463  0.2085  0.4063  0.5163
  947CLF     CX  947   2.592   1.251   0.144 -0.0960  0.1421 -0.0848
  948CLF     CX  948   4.096   1.277   5.902 -0.0530 -0.1991 -0.2706
  949CLF     CX  949   0.774   4.703   4.347  0.2446 -0.0787 -0.1199
  950CLF     CX  950   5.789   6.374   3.768  0.0071 -0.1649 -0.1847
  951CLF     CX  951   1.017   2.973   2.880  0.0062  0.1280  0.3316
  952CLF     CX  952   1.703   0.655   2.923 -0.0584  0.1103 -0.0451
  953CLF     CX  953   0.156   2.697   2.585 -0.1374  0.0268  0.2119
  954CLF     CX  954   6.029   1.039   2.069 -0.0137  0.0357 -0.1193
  955CLF     CX  955   4.941   3.627   3.596 -0.3870 -0.1055 -0.1544
  956CLF     CX  956   0.763   1.431   4.787 -0.1821 -0.1326  0.2682
  957CLF     CX  957   3.439   5.473   0.993  0.1156  0.2443 -0.1433
  958CLF     CX  958   3.230   4.495   1.735  0.0843 -0.0288  0.1938
  959CLF     CX  959   6.021   0.771   2.737 -0.1812  0.0669 -0.0747
  960CLF     CX  960   3.032   4.377   2.220 -0.3028 -0.0355  0.3821
  961CLF     CX  961   0.082   0.905   5.051  0.1860 -0.2873  0.1537
  962CLF     CX  962   5.288   5.416   3.616 -0.1818  0.1525  0.0721
  963CLF     CX  963   4.662   5.363   4.215  0.3337 -0.0881  0.0535
  964CLF     CX  964   2.252   2.595   1.414 -0.3021 -0.0091 -0.2335
  965CLF     CX  965   5.624   5.692   0.121 -0.0538  0.2148 -0.3902
  966CLF     CX  966   5.216   4.894   1.137  0.0841  0.2735  0.0810
  967CLF     CX  967   6.002   1.555   0.098 -0.2594  0.1896  0.3684
  968CLF     CX  968   2.733   5.915   5.633  0.0384  0.0567  0.2242
  969CLF     CX  969   3.845   3.883   6.135  0.0232  0.0320  0.1797
  970CLF     CX  970   1.579   0.800   0.176 -0.0315  0.0776 -0.0950
  971CLF     CX  971   6.261   1.006   5.304  0.1614 -0.1732 -0.0947
  972CLF     CX  972   0.024   2.063   4.279  0.0833 -0.0081  0.0097
  973CLF     CX  973   4.410   1.322   1.837 -0.1462  0.2681  0.0663
  974CLF     CX  974   3.129   0.606   5.468  0.0610 -0.0920  0.0248
  975CLF     CX  975   2.959   5.317   1.139 -0.1501  0.1489 -0.0079
  976CLF     CX  976   2.907   4.733   3.147  0.2371 -0.2387 -0.0974
  977CLF     CX  977   0.631   3.602   5.167 -0.0475  0.1401  0.0846
  978CLF     CX  978   1.096   2.763   2.203  0.3458 -0.0398 -0.0035
  979CLF     CX  979   4.470   4.589   6.239 -0.2079 -0.0693  0.0000
  980CLF     CX  980   4.170   2.281   1.210 -0.1165  0.0510  0.1456
  981CLF     CX  981   5.493   2.742   3.656  0.1206  0.2014 -0.0333
  982CLF     CX  982   1.877   0.241   1.407  0.0927 -0.1255  0.0096
  983CLF     CX  983   3.547   3.505   1.878  0.1856  0.0897 -0.0019
  984CLF     CX  984   2.675   5.941   0.339 -0.1373 -0.0464  0.2659
  985CLF     CX  985   5.014   4.929   2.447  0.0200 -0.0232 -0.1766
  986CLF     CX  986   2.313   2.612   2.865  0.0045  0.1402 -0.1405
  987CLF     CX  987   2.429   6.321   4.878  0.0111  0.0415  0.0229
  988CLF     CX  988   5.870   4.055   0.859 -0.0478 -0.2976  0.1112
  989CLF     CX  989   0.879   3.466   0.420 -0.1416 -0.1748  0.2097
  990CLF     CX  990   6.473   5.435   5.186 -0.0341  0.1389  0.1291
  991CLF     CX  991   5.188   4.538   3.810  0.0355 -0.2499 -0.2958
  992CLF     CX  992   0.069   3.617   4.806  0.0914  0.1389 -0.3096
  993CLF     CX  993   0.291   3.701   1.914  0.2567 -0.1335  0.1083
  994CLF     CX  994   4.181   1.921   3.199  0.2763 -0.0962 -0.0782
  995CLF     CX  995   2.858   2.292   4.254  0.0637  0.3414  0.0213
  996CLF     CX  996   2.277   2.636   3.506  0.4594  0.1178  0.4377
  997CLF     CX  997   1.218   0.920   2.732  0.2509  0.1446 -0.1324
  998CLF     CX  998   5.230   3.804   6.246 -0.1610 -0.0677 -0.4763
  999CLF     CX  999   0.287   6.516   4.757 -0.0739  0.3127  0.3911
 1000CLF     CX 1000   2.521   4.481   2.897 -0.3272  0.1789 -0.0837
 1001CLF     CX 1001   1.678   1.310   0.369 -0.0994  0.1133  0.3100
 1002CLF     CX 1002   3.770   3.066   4.117  0.4093 -0.1532 -0.1350
 1003CLF     CX 1003   2.271   4.199   6.227 -0.1886 -0.0139 -0.0357
 1004CLF     CX 1004   2.084   5.450   4.386  0.1707  0.3916 -0.1376
 1005CLF     CX 1005   4.195   0.132   6.341 -0.1477  0.1531 -0.0123
 1006CLF     CX 1006   3.064   2.183   6.071 -0.0355  0.0699 -0.0437
 1007CLF     CX 1007   0.134   5.174   1.120  0.0753  0.0657 -0.2359
 1008CLF     CX 1008   2.155   5.911   4.665  0.0285  0.0548  0.3372
 1009CLF     CX 1009   3.825   0.449   4.315 -0.1858  0.3443 -0.0731
 1010CLF     CX 1010   0.908   6.214   3.159  0.1334  0.1691  0.3046
 1011CLF     CX 1011   0.594   6.373   2.840 -0.0337 -0.2894 -0.1721
 1012CLF     CX 1012   1.902   2.148   4.694  0.0425  0.1500  0.0896
 1013CLF     CX 1013   5.810   4.598   3.679  0.1381  0.0986 -0.1944
 1014CLF     CX 1014   6.248   6.054   5.916  0.0818 -0.1892 -0.1235
 1015CLF     CX 1015   5.364   1.777   2.957 -0.4652 -0.0862  0.0520
 1016CLF     CX 1016   2.012   0.932   5.454 -0.1194 -0.1960 -0.3011
 1017CLF     CX 1017   4.533   3.761   3.234 -0.2674 -0.0687 -0.1506
 1018CLF     CX 1018   6.515   5.927   3.597 -0.1037 -0.2325  0.2409
 1019CLF     CX 1019   1.241   1.080   1.256  0.3690 -0.3618 -0.0091
 1020CLF     CX 1020   1.566   0.880   2.333  0.3127  0.0457  0.1005
 1021CLF     CX 1021   4.129   0.142   1.645  0.1430  0.2549 -0.2542
 1022CLF     CX 1022   6.111   1.113   0.839 -0.0751 -0.0314  0.1042
 1023CLF     CX 1023   5.619   0.097   1.663 -0.1541 -0.1784  0.3491
 1024CLF     CX 1024   4.305   5.545   1.601 -0.0628 -0.0894 -0.0583
 1025CLF     CX 1025   2.116   5.777   0.258  0.0006 -0.1572  0.0716
 1026CLF     CX 1026   3.008   3.222   2.496  0.3535  0.0261 -0.2264
 1027CLF     CX 1027   4.770   0.189   4.696  0.1245  0.2169 -0.1243
 1028CLF     CX 1028   2.037   4.653   2.291 -0.3302  0.0315  0.2815
 1029CLF     CX 1029   4.195   3.451   0.172 -0.1029  0.0205  0.1235
 1030CLF     CX 1030   1.862   4.474   6.422 -0.2617  0.3445  0.1276
 1031CLF     CX 1031   4.628   1.044   3.663  0.1748 -0.0759 -0.1431
 1032CLF     CX 1032   1.621   6.032   0.897 -0.0494  0.1483 -0.1245
 1033CLF     CX 1033   4.595   2.600   3.495 -0.2553 -0.0905  0.0589
 1034CLF     CX 1034   1.642   2.553   5.491 -0.1500 -0.0437  0.1197
 1035CLF     CX 1035   2.387   6.330   6.170 -0.4038 -0.0510  0.1712
 1036CLF     CX 1036   2.365   6.342   4.365  0.0413 -0.1223  0.0344
 1037CLF     CX 1037   1.291   0.573   4.799  0.0331 -0.2696 -0.2872
 1038CLF     CX 1038   1.345   2.825   0.552 -0.0047  0.1855 -0.0105
 1039CLF     CX 1039   5.798   2.944   4.718  0.1071 -0.1411 -0.3119
 1040CLF     CX 1040   0.505   3.108   2.048  0.0051 -0.1271 -0.0381
 1041CLF     CX 1041   2.862   5.164   2.607  0.0981 -0.1248 -0.0153
 1042CLF     CX 1042   0.484   5.315   3.513 -0.2459 -0.2428  0.1370
 1043CLF     CX 1043   2.837   5.252   6.586  0.0786  0.0748 -0.0379
 1044CLF     CX 1044   0.828   5.994   5.377  0.1184  0.0578  0.0361
 1045CLF     CX 1045   4.639   6.484   1.896  0.1730  0.2860  0.1495
 1046CLF     CX 1046   4.702   4.781   1.147  0.2895  0.0866  0.1266
 1047CLF     CX 1047   5.130   0.178   0.031  0.1541 -0.3117 -0.0879
 1048CLF     CX 1048   2.682   6.403   1.338 -0.1337 -0.0464  0.1873
 1049CLF     CX 1049   3.578   0.866   5.095  0.2125 -0.3065  0.0147
 1050CLF     CX 1050   3.280   2.068   3.094  0.3422  0.1347 -0.0016
 1051CLF     CX 1051   2.601   0.077   3.922 -0.0066 -0.3086  0.1969
 1052CLF     CX 1052   6.065   4.285   4.123 -0.1130  0.0209 -0.1220
 1053CLF     CX 1053   5.390   1.385   5.145 -0.4244 -0.0669  0.3180
 1054CLF     CX 1054   6.004   0.166   0.065 -0.0097  0.2851 -0.2301
 1055CLF     CX 1055   0.558   5.044   1.671  0.0915  0.3321 -0.2732
 1056CLF     CX 1056   5.738   5.054   2.367 -0.2158 -0.3433  0.0467
 1057CLF     CX 1057   6.151   4.303   2.642  0.1695  0.0234  0.0941
 1058CLF     CX 1058   3.733   2.853   5.655 -0.3303 -0.2555 -0.0502
 1059CLF     CX 1059   3.251   1.274   2.107 -0.4533 -0.1480  0.0882
 1060CLF     CX 1060   2.771   0.098   6.162 -0.1055 -0.0882 -0.2927
 1061CLF     CX 1061   3.510   4.261   6.582  0.0069  0.0622  0.2062
 1062CLF     CX 1062   4.337   5.167   0.754  0.3885 -0.1650  0.2215
 1063CLF     CX 1063   0.844   2.016   3.043 -0.0947  0.0417  0.0581
 1064CLF     CX 1064   5.967   5.087   1.700  0.1683 -0.1652 -0.1607
 1065CLF     CX 1065   0.689   2.822   1.711 -0.2665 -0.1799 -0.0207
 1066CLF     CX 1066   0.649   0.330   2.739  0.0651  0.1847  0.0327
 1067CLF     CX 1067   0.012   4.030   3.389  0.0099  0.1868 -0.0717
 1068CLF     CX 1068   1.791   4.865   4.637 -0.1028  0.0489  0.0235
 1069CLF     CX 1069   3.867   3.468   4.464 -0.0367  0.0677 -0.0877
 1070CLF     CX 1070   4.260   2.962   3.481 -0.0683 -0.0037 -0.2568
 1071CLF     CX 1071   3.185   3.608   5.679  0.0054 -0.1475  0.3039
 1072CLF     CX 1072   4.638   2.549   6.212 -0.0687 -0.5669 -0.0185
 1073CLF     CX 1073   0.301   1.402   3.469 -0.2593  0.0498 -0.1070
 1074CLF     CX 1074   5.546   0.027   4.712  0.1516  0.0290  0.1479
 1075CLF     CX 1075   6.601   3.663   0.905 -0.4246 -0.1228  0.2107
 1076CLF     CX 1076   0.729   5.155   0.970 -0.0009 -0.0329  0.0353
 1077CLF     CX 1077   5.138   2.243   3.019 -0.0766  0.0427  0.1635
 1078CLF     CX 1078   5.255   1.233   5.591  0.0436  0.2156  0.0405
 1079CLF     CX 1079   3.976   2.306   1.716 -0.1589  0.3259  0.0819
 1080CLF     CX 1080   3.030   0.737   2.306 -0.2383 -0.4456  0.0421
 1081CLF     CX 1081   5.775   2.649   2.753  0.3134 -0.2724  0.0943
 1082CLF     CX 1082   1.994   5.856   1.247  0.0624 -0.1833  0.0945
 1083CLF     CX 1083   0.785   2.561   4.982  0.1830  0.0048 -0.0773
 1084CLF     CX 1084   4.264   3.270   2.110 -0.1180  0.3142  0.0866
 1085CLF     CX 1085   6.407   6.159   4.600 -0.0518 -0.1151  0.3124
 1086CLF     CX 1086   4.240   5.228   0.261 -0.0587  0.0230  0.0021
 1087CLF     CX 1087   4.083   1.468   0.150  0.1657 -0.2556  0.0463
 1088CLF     CX 1088   1.269   1.534   4.860 -0.0070 -0.0716  0.2090
 1089CLF     CX 1089   5.312   0.909   0.601 -0.0893 -0.1294 -0.2092
 1090CLF     CX 1090   3.133   1.944   3.603 -0.3277  0.0465 -0.3420
 1091CLF     CX 1091   3.844   2.825   3.032 -0.0955 -0.3487  0.1571
 1092CLF     CX 1092   3.405   2.331   5.368 -0.3739 -0.1396 -0.2102
 1093CLF     CX 1093   0.560   4.757   0.696 -0.1193 -0.1829 -0.0304
 1094CLF     CX 1094   1.935   3.938   0.580 -0.0749  0.0333  0.0751
 1095CLF     CX 1095   1.938   5.772   3.614 -0.0323  0.0205 -0.1314
 1096CLF     CX 1096   3.378   2.753   3.696  0.1959  0.1736  0.0996
 1097CLF     CX 1097   3.419   0.530   1.116  0.0729  0.2691  0.0365
 1098CLF     CX 1098   6.039   2.764   3.848 -0.2329 -0.0992 -0.0482
 1099CLF     CX 1099   5.494   4.276   3.487 -0.1076  0.0665 -0.0956
 1100CLF     CX 1100   0.020   1.341   3.861 -0.1482  0.3613  0.1083
 1101CLF     CX 1101   0.591   2.426   1.183 -0.1523  0.1211 -0.0329
 1102CLF     CX 1102   0.879   4.137   1.150 -0.0230  0.0286  0.3040
 1103CLF     CX 1103   0.281   2.123   2.784 -0.2424  0.1028 -0.0455
 1104CLF     CX 1104   6.522   0.471   1.414 -0.0236 -0.0812 -0.2254
 1105CLF     CX 1105   1.027   4.616   2.735  0.0847 -0.1083 -0.3392
 1106CLF     CX 1106   5.118   6.401   5.620  0.0439 -0.3301  0.0400
 1107CLF     CX 1107   4.283   4.477   2.949  0.2668 -0.0349 -0.2177
 1108CLF     CX 1108   1.632   1.933   0.604  0.3078 -0.0870  0.1637
 1109CLF     CX 1109   1.006   0.594   5.223  0.0344  0.0857 -0.0445
 1110CLF     CX 1110   4.081   3.839   2.784 -0.3789  0.0482 -0.0811
 1111CLF     CX 1111   5.722   6.149   0.753 -0.0973  0.0470  0.1901
 1112CLF     CX 1112   4.632   5.518   1.136  0.0763 -0.0154 -0.1201
 1113CLF     CX 1113   4.295   5.254   2.904  0.1148 -0.1539  0.3559
 1114CLF     CX 1114   4.996   5.888   1.187 -0.1572  0.1553  0.3637
 1115CLF     CX 1115   2.536   2.008   1.300  0.0126 -0.3162  0.1060
 1116CLF     CX 1116   1.720   5.386   2.090  0.1232  0.1669  0.1452
 1117CLF     CX 1117   3.078   5.548   5.697 -0.1960  0.0307 -0.1326
 1118CLF     CX 1118   6.529   2.596   0.066 -0.0074 -0.3584  0.1907
 1119CLF     CX 1119   3.549   0.006   3.935 -0.0871  0.0567  0.2389
 1120CLF     CX 1120   2.127   2.205   3.142 -0.0203  0.1135  0.1156
 1121CLF     CX 1121   1.787   6.470   6.254  0.0683 -0.1102  0.0230
 1122CLF     CX 1122   3.573   0.952   2.252 -0.1955 -0.3178  0.1006
 1123CLF     CX 1123   6.157   0.533   5.025 -0.0894  0.0071  0.3917
 1124CLF     CX 1124   3.437   4.542   1.314 -0.1271 -0.2357  0.2213
 1125CLF     CX 1125   2.360   3.162   6.589  0.1469  0.4391 -0.0964
 1126CLF     CX 1126   5.718   0.269   4.316  0.0488 -0.0253 -0.1356
 1127CLF     CX 1127   6.178   1.214   5.763  0.3770  0.3238 -0.1078
 1128CLF     CX 1128   1.367   0.601   3.589 -0.0576 -0.2469  0.3441
 1129CLF     CX 1129   2.081   3.739   3.717 -0.3182  0.3652 -0.2338
 1130CLF     CX 1130   6.070   5.009   0.714  0.4525  0.2765  0.0435
 1131CLF     CX 1131   3.198   2.718   5.646 -0.1716 -0.2073  0.1705
 1132CLF     CX 1132   2.455   4.790   0.530  0.0037  0.1224  0.1672
 1133CLF     CX 1133   5.788   5.833   5.782  0.0458 -0.1155 -0.1205
 1134CLF     CX 1134   6.004   0.309   3.175 -0.0078  0.0673 -0.1098
 1135CLF     CX 1135   3.732   0.811   5.903 -0.1142  0.0624 -0.2981
 1136CLF     CX 1136   6.375   5.010   6.570 -0.2730  0.0281  0.0597
 1137CLF     CX 1137   3.301   2.176   4.470 -0.1214 -0.1819 -0.1332
 1138CLF     CX 1138   1.708   0.210   5.067 -0.3378 -0.0240  0.0732
 1139CLF     CX 1139   2.102   5.446   4.929 -0.2712  0.2374  0.1979
 1140CLF     CX 1140   5.519   4.546   1.638  0.1777  0.1814 -0.3306
 1141CLF     CX 1141   3.587   5.612   5.847  0.1843 -0.1589 -0.1925
 1142CLF     CX 1142   0.182   6.160   6.549 -0.1192  0.0020  0.1710
 1143CLF     CX 1143   5.040   6.117   4.202 -0.0063  0.0724 -0.2381
 1144CLF     CX 1144   5.560   3.364   4.833 -0.0681 -0.0926 -0.0925
 1145CLF     CX 1145   3.528   4.858   0.007 -0.2254  0.1875  0.3075
 1146CLF     CX 1146   5.125   6.366   6.456 -0.1271 -0.1878  0.3650
 1147CLF     CX 1147   5.966   4.425   5.985  0.0742 -0.0966  0.1216
 1148CLF     CX 1148   3.485   4.163   2.411  0.2027  0.1583  0.0366
 1149CLF     CX 1149   3.327   2.828   1.190  0.1414 -0.0624  0.0714
 1150CLF     CX 1150   2.447   1.386   5.311 -0.0848 -0.0597  0.1606
 1151CLF     CX 1151   2.005   2.517   2.497  0.0796 -0.3187 -0.0328
 1152CLF     CX 1152   6.077   0.601   4.228  0.3192 -0.0370 -0.0926
 1153CLF     CX 1153   3.334   0.844   1.591  0.2076  0.1176  0.1259
 1154CLF     CX 1154   4.925   5.248   5.149 -0.0737  0.0224  0.0109
 1155CLF     CX 1155   5.112   0.756   3.441  0.1986  0.1606  0.1785
 1156CLF     CX 1156   5.836   2.803   3.256 -0.0640 -0.0373 -0.2758
 1157CLF     CX 1157   3.914   2.316   5.466  0.1296 -0.0535  0.1026
 1158CLF     CX 1158   4.347   2.756   5.369  0.0654 -0.1424  0.0810
 1159CLF     CX 1159   4.133   6.003   5.082 -0.3324  0.0763 -0.1800
 1160CLF     CX 1160   0.952   1.121   5.449 -0.0017 -0.2177 -0.0249
 1161CLF     CX 1161   4.697   2.613   5.653  0.0143 -0.1983 -0.2441
 1162CLF     CX 1162   0.729   2.014   1.495 -0.2962  0.2220 -0.0828
 1163CLF     CX 1163   2.325   2.401   4.248 -0.4949  0.2254 -0.0698
 1164CLF     CX 1164   0.718   5.728   3.258 -0.0610  0.2802 -0.0181
 1165CLF     CX 1165   2.093   2.099   0.628  0.1258 -0.0951 -0.1691
 1166CLF     CX 1166   6.407   4.685   4.025  0.2266  0.0557  0.0610
 1167CLF     CX 1167   4.135   5.417   1.093 -0.1249 -0.2441 -0.1051
 1168CLF     CX 1168   5.752   2.158   6.021 -0.0085 -0.2590  0.0123
 1169CLF     CX 1169   4.081   4.438   0.372 -0.2428 -0.0600 -0.1238
 1170CLF     CX 1170   4.271   4.033   1.825 -0.0442  0.2929 -0.0700
 1171CLF     CX 1171   2.093   0.953   0.157  0.2731  0.0896  0.1114
 1172CLF     CX 1172   0.121   5.596   3.348 -0.0093  0.1750 -0.0146
 1173CLF     CX 1173   3.593   6.154   4.011  0.1171  0.0909  0.0973
 1174CLF     CX 1174   1.513   6.586   3.157 -0.0488 -0.1288  0.0862
 1175CLF     CX 1175   3.834   1.696   1.620 -0.0708 -0.4495 -0.1087
 1176CLF     CX 1176   4.919   3.571   4.100 -0.1461  0.0728  0.1651
 1177CLF     CX 1177   0.208   6.046   1.595  0.3121  0.0279 -0.1395
 1178CLF     CX 1178   5.960   0.733   0.049 -0.0291 -0.0848  0.1696
 1179CLF     CX 1179   1.027   2.553   4.166  0.0574 -0.0409 -0.2057
 1180CLF     CX 1180   0.720   0.018   4.526  0.0449 -0.0943 -0.0737
 1181CLF     CX 1181   1.030   0.511   1.331 -0.1575  0.0967 -0.2107
 1182CLF     CX 1182   5.106   0.537   6.329  0.3211 -0.2465 -0.2813
 1183CLF     CX 1183   0.317   3.217   3.697 -0.1157 -0.0538  0.3681
 1184CLF     CX 1184   0.896   2.688   6.398  0.0983 -0.0761  0.0742
 1185CLF     CX 1185   3.356   0.198   4.638 -0.1054  0.0577  0.4022
 1186CLF     CX 1186   6.101   0.281   1.484 -0.1676 -0.2437  0.3402
 1187CLF     CX 1187   4.466   4.286   2.345  0.0191  0.2095 -0.0297
 1188CLF     CX 1188   1.168   3.529   5.380 -0.5196 -0.0970  0.0878
 1189CLF     CX 1189   4.446   2.369   4.745  0.0738 -0.0363  0.1525
 1190CLF     CX 1190   5.638   2.886   4.168 -0.0711 -0.2005  0.0241
 1191CLF     CX 1191   6.159   2.126   0.140 -0.0110  0.0184  0.2262
 1192CLF     CX 1192   5.411   1.344   3.317  0.0031 -0.0671  0.0976
 1193CLF     CX 1193   3.832   3.728   1.571 -0.1166 -0.1150 -0.1722
 1194CLF     CX 1194   2.924   0.481   2.828 -0.0394  0.2210  0.2298
 1195CLF     CX 1195   0.513   0.953   5.955 -0.2005  0.0168 -0.0539
 1196CLF     CX 1196   0.426   5.352   6.066 -0.1418  0.3466  0.1693
 1197CLF     CX 1197   2.666   1.424   0.623  0.0030  0.2679  0.3997
 1198CLF     CX 1198   4.026   6.366   3.975 -0.0186  0.0478 -0.1663
 1199CLF     CX 1199   4.489   0.910   2.332 -0.0475  0.2024  0.1091
 1200CLF     CX 1200   0.124   6.388   2.605 -0.0776 -0.2566 -0.3200
 1201CLF     CX 1201   4.815   0.505   3.811  0.0157  0.1191 -0.1338
 1202CLF     CX 1202   1.689   5.513   3.129 -0.2324 -0.0574  0.0850
 1203CLF     CX 1203   0.159   0.222   2.811 -0.2156 -0.0882  0.5281
 1204CLF     CX 1204   3.737   2.915   6.466 -0.1248 -0.1036 -0.2135
 1205CLF     CX 1205   2.489   3.271   2.030  0.2332 -0.0649 -0.0761
 1206CLF     CX 1206   4.351   0.953   0.873 -0.3187 -0.4067 -0.0352
 1207CLF     CX 1207   4.783   1.006   1.815  0.0817 -0.0577 -0.0054
 1208CLF     CX 1208   2.235   2.317   0.173 -0.0152  0.0607 -0.0209
 1209CLF     CX 1209   1.611   2.381   2.974  0.2238  0.0184  0.3343
 1210CLF     CX 1210   2.029   6.493   5.203 -0.1961  0.1903  0.0207
 1211CLF     CX 1211   3.196   1.486   6.254 -0.0992 -0.4656 -0.1224
 1212CLF     CX 1212   2.742   5.358   2.185  0.0882  0.0452 -0.2667
 1213CLF     CX 1213   5.762   0.524   2.362 -0.3384  0.2400 -0.1509
 1214CLF     CX 1214   2.813   0.784   6.139  0.1577  0.2090  0.2108
 1215CLF     CX 1215   4.657   0.197   0.386  0.0063  0.0356  0.0522
 1216CLF     CX 1216   4.210   0.647   4.736 -0.0519 -0.0243 -0.2015
 1217CLF     CX 1217   1.196   1.040   3.930  0.0153  0.2144  0.2016
 1218CLF     CX 1218   4.674   1.362   6.543  0.1883 -0.1709  0.0505
 1219CLF     CX 1219   1.149   3.307   0.011  0.0364 -0.3007 -0.1295
 1220CLF     CX 1220   6.521   6.309   6.208 -0.0363 -0.1883 -0.1306
 1221CLF     CX 1221   1.565   6.347   2.088 -0.0960 -0.0179 -0.0212
 1222CLF     CX 1222   6.146   6.443   2.950  0.0718  0.2924  0.2280
 1223CLF     CX 1223   5.481   5.671   0.573 -0.2079 -0.1471 -0.2729
 1224CLF     CX 1224   0.548   4.364   1.729 -0.2272  0.2521 -0.4547
 1225CLF     CX 1225   4.430   4.496   1.504 -0.2096  0.0037  0.5800
 1226CLF     CX 1226   1.979   6.361   2.344  0.1124 -0.2183  0.0403
 1227CLF     CX 1227   1.150   0.175   3.691  0.0238 -0.0296 -0.1350
 1228CLF     CX 1228   5.902   6.167   0.135 -0.0364 -0.2417  0.0015
 1229CLF     CX 1229   3.458   6.140   3.326  0.1097  0.3026 -0.1546
 1230CLF     CX 1230   1.863   4.257   5.843  0.1217  0.1443 -0.1378
 1231CLF     CX 1231   2.863   1.026   3.052 -0.1101 -0.3518 -0.2418
 1232CLF     CX 1232   3.534   1.426   1.233 -0.0316 -0.0984 -0.0468
 1233CLF     CX 1233   0.365   0.480   5.910 -0.0052 -0.2069  0.0450
 1234CLF     CX 1234   0.629   5.191   4.015 -0.0628 -0.1314  0.0125
 1235CLF     CX 1235   2.756   2.034   5.057  0.0223 -0.0129  0.0571
 1236CLF     CX 1236   4.906   3.021   0.772  0.1596 -0.0096 -0.1286
 1237CLF     CX 1237   4.793   3.760   0.844  0.1354 -0.0389 -0.0375
 1238CLF     CX 1238   2.184   1.570   4.814 -0.2445 -0.0874 -0.0311
 1239CLF     CX 1239   5.451   3.610   0.152  0.2351 -0.0040 -0.0567
 1240CLF     CX 1240   1.052   4.587   0.845  0.0510 -0.3150 -0.0141
 1241CLF     CX 1241   1.705   2.757   2.149 -0.1277  0.1595  0.4353
 1242CLF     CX 1242   0.041   6.445   3.103  0.2128  0.1820 -0.2575
 1243CLF     CX 1243   5.537   4.219   4.072  0.0644  0.2197  0.1850
 1244CLF     CX 1244   3.664   3.580   5.139 -0.1428 -0.1297 -0.0403
 1245CLF     CX 1245   2.690   6.459   3.512 -0.0124  0.2467  0.1773
 1246CLF     CX 1246   6.557   3.340   1.825  0.0405  0.2945 -0.1904
 1247CLF     CX 1247   5.286   2.633   0.195 -0.2536  0.0976  0.1187
 1248CLF     CX 1248   1.621   5.873   2.820 -0.1121 -0.1960 -0.0123
 1249CLF     CX 1249   4.295   1.662   5.199  0.1868  0.0702  0.0325
 1250CLF     CX 1250   1.376   0.842   5.643  0.0172  0.1007  0.0846
 1251CLF     CX 1251   2.408   4.368   5.219 -0.0878 -0.2728  0.1265
 1252CLF     CX 1252   6.527   2.270   4.786  0.0273  0.3021 -0.1554
 1253CLF     CX 1253   2.935   5.578   6.157  0.0185 -0.0542 -0.1449
 1254CLF     CX 1254   1.639   5.558   4.270 -0.0905 -0.0677  0.1272
 1255CLF     CX 1255   1.855   5.554   1.615 -0.1780 -0.0425 -0.1703
 1256CLF     CX 1256   6.311   2.287   3.196 -0.0245  0.0083 -0.1005
 1257CLF     CX 1257   3.556   2.864   2.595 -0.0196  0.2772  0.1860
 1258CLF     CX 1258   2.856   3.086   5.799  0.0169  0.0343  0.1402
 1259CLF     CX 1259   3.135   3.638   5.102 -0.1655  0.1781  0.0846
 1260CLF     CX 1260   4.878   4.024   4.829  0.0694  0.1312  0.3149
 1261CLF     CX 1261   3.263   3.590   4.602 -0.3698  0.4692 -0.4123
 1262CLF     CX 1262   2.915   3.794   6.038 -0.0221 -0.0204  0.1449
 1263CLF     CX 1263   4.126   3.930   4.233  0.0469 -0.2900  0.1442
 1264CLF     CX 1264   4.417   2.953   0.376 -0.2577 -0.0163  0.3264
 1265CLF     CX 1265   1.731   5.281   3.861 -0.0548  0.0434 -0.2443
 1266CLF     CX 1266   3.302   5.351   0.094  0.2040 -0.3360 -0.2023
 1267CLF     CX 1267   1.756   3.536   6.025  0.0059  0.1918  0.1534
 1268CLF     CX 1268   0.640   1.436   6.061  0.0765 -0.0532  0.2483
 1269CLF     CX 1269   3.195   5.948   4.257  0.0942 -0.0898 -0.0733
 1270CLF     CX 1270   6.005   0.046   2.073 -0.0845 -0.2225  0.3908
 1271CLF     CX 1271   0.800   4.864   4.953 -0.1169  0.0631 -0.2327
 1272CLF     CX 1272   2.002   4.510   0.605  0.3426  0.0811  0.0341
 1273CLF     CX 1273   5.673   1.808   2.452 -0.2874  0.1818  0.2444
 1274CLF     CX 1274   4.670   0.757   1.306 -0.1220  0.0414  0.2857
 1275CLF     CX 1275   1.494   1.907   1.446  0.0350  0.0662 -0.3248
 1276CLF     CX 1276   3.252   1.635   0.570  0.3590  0.5474  0.2597
 1277CLF     CX 1277   5.375   4.642   2.646 -0.1082 -0.1994 -0.1773
 1278CLF     CX 1278   4.431   5.458   3.350 -0.0519  0.0559  0.1345
 1279CLF     CX 1279   2.561   6.583   0.026 -0.0181  0.1029  0.1407
 1280CLF     CX 1280   0.360   0.226   3.655 -0.1846  0.2996 -0.0230
 1281CLF     CX 1281   3.225   3.101   1.912  0.0285  0.0606 -0.2585
 1282CLF     CX 1282   3.830   4.249   5.843 -0.1586 -0.0079 -0.2366
 1283CLF     CX 1283   2.592   0.231   1.703 -0.1860  0.1831 -0.1210
 1284CLF     CX 1284   3.070   1.533   1.013  0.0096  0.0895  0.0462
 1285CLF     CX 1285   4.656   2.551   0.294  0.1371  0.1665 -0.1706
 1286CLF     CX 1286   5.618   1.760   0.862 -0.1312  0.0002  0.0402
 1287CLF     CX 1287   1.068   6.084   3.647  0.0758 -0.0714 -0.1670
 1288CLF     CX 1288   2.683   3.287   1.561  0.1251  0.2060 -0.0995
 1289CLF     CX 1289   2.763   3.739   4.611 -0.0577  0.0114 -0.2188
 1290CLF     CX 1290   2.621   5.296   3.516  0.1452  0.0808 -0.1778
 1291CLF     CX 1291   4.115   5.475   6.483 -0.2088 -0.0086  0.1058
 1292CLF     CX 1292   5.460   5.017   1.625 -0.3770  0.0988  0.2879
 1293CLF     CX 1293   2.969   2.746   1.589  0.0972 -0.0775 -0.2016
 1294CLF     CX 1294   4.459   4.892   5.733  0.1703  0.1557  0.1679
 1295CLF     CX 1295   4.921   2.364   2.460  0.1157 -0.1628  0.0985
 1296CLF     CX 1296   1.480   3.314   4.015  0.1645 -0.3936  0.0493
 1297CLF     CX 1297   5.443   0.669   5.444 -0.1941  0.0029  0.0643
 1298CLF     CX 1298   5.494   6.531   0.223 -0.3741 -0.1403 -0.0713
 1299CLF     CX 1299   3.066   3.820   2.620 -0.0729  0.2007 -0.1815
 1300CLF     CX 1300   6.070   3.530   1.522 -0.1173 -0.1999 -0.1224
 1301CLF     CX 1301   3.550   0.506   1.922  0.3989  0.4498  0.0375
 1302CLF     CX 1302   6.498   1.341   1.976 -0.0513  0.0733  0.1731
 1303CLF     CX 1303   4.157   0.813   3.287  0.0895 -0.1353  0.0090
 1304CLF     CX 1304   4.874   0.095   4.100 -0.2342  0.1909 -0.1002
 1305CLF     CX 1305   3.211   0.797   4.465  0.0174 -0.2766  0.2610
 1306CLF     CX 1306   0.553   2.783   3.885  0.1733  0.0475 -0.2056
 1307CLF     CX 1307   4.524   0.561   5.408  0.1553 -0.1548  0.0886
 1308CLF     CX 1308   5.959   4.856   4.221  0.0206 -0.0687 -0.2225
 1309CLF     CX 1309   5.968   0.311   5.467  0.2444  0.1585 -0.1894
 1310CLF     CX 1310   0.660   3.434   1.660 -0.0407  0.4491 -0.2188
 1311CLF     CX 1311   2.975   2.278   1.513 -0.1074 -0.0356  0.1818
 1312CLF     CX 1312   2.133   4.339   1.908 -0.0461 -0.1254 -0.4496
 1313CLF     CX 1313   3.323   3.092   5.973 -0.1275  0.0330  0.1676
 1314CLF     CX 1314   6.244   4.242   3.663 -0.2687 -0.0490  0.0784
 1315CLF     CX 1315   4.231   3.531   6.296 -0.0242 -0.2758  0.1700
 1316CLF     CX 1316   6.075   0.412   0.577  0.0813 -0.0083 -0.0068
 1317CLF     CX 1317   3.110   2.375   3.851 -0.2305 -0.1382  0.1296
 1318CLF     CX 1318   2.904   3.174   0.202  0.0638 -0.2710  0.1870
 1319CLF     CX 1319   4.779   4.301   1.927 -0.1467 -0.1167  0.1151
 1320CLF     CX 1320   4.560   6.162   4.858 -0.1044  0.2892  0.5293
 1321CLF     CX 1321   5.997   0.408   6.172 -0.1832 -0.0830  0.3265
 1322CLF     CX 1322   6.135   2.772   5.356  0.1343  0.1166  0.0681
 1323CLF     CX 1323   0.628   1.982   6.016 -0.1132 -0.0346 -0.0761
 1324CLF     CX 1324   6.585   4.891   6.143 -0.1649  0.1623 -0.1790
 1325CLF     CX 1325   0.981   0.492   1.910  0.1998 -0.2725 -0.1448
 1326CLF     CX 1326   4.171   5.700   2.991 -0.2809  0.3013 -0.0779
 1327CLF     CX 1327   2.978   5.448   4.242 -0.2798 -0.1581 -0.0220
 1328CLF     CX 1328   6.017   3.052   1.365 -0.0138  0.1098  0.0180
 1329CLF     CX 1329   6.396   1.784   1.800  0.2475  0.0379  0.0004
 1330CLF     CX 1330   1.988   2.569   5.891  0.2207  0.0414  0.0862
 1331CLF     CX 1331   4.459   2.150   3.763  0.1010  0.0507 -0.1108
 1332CLF     CX 1332   1.898   1.777   1.928 -0.0263  0.1518 -0.2077
 1333CLF     CX 1333   5.633   0.355   5.839  0.3219 -0.3838 -0.1423
 1334CLF     CX 1334   6.400   2.744   3.586  0.0902 -0.1435  0.1027
 1335CLF     CX 1335   2.723   0.236   5.396  0.2750 -0.0069  0.3043
 1336CLF     CX 1336   2.339   4.914   5.010 -0.3932 -0.0685  0.1383
 1337CLF     CX 1337   1.832   1.315   2.096 -0.1391 -0.2464  0.1079
 1338CLF     CX 1338   5.196   2.541   1.619 -0.0015  0.1814  0.0681
 1339CLF     CX 1339   2.555   6.371   2.309 -0.0590 -0.0051 -0.2989
 1340CLF     CX 1340   0.313   2.636   0.726 -0.1506  0.0651  0.0219
 1341CLF     CX 1341   5.634   6.600   2.458  0.1207 -0.1339 -0.0544
 1342CLF     CX 1342   5.924   3.909   3.361  0.0537 -0.0660  0.0502
 1343CLF     CX 1343   2.734   1.870   4.489 -0.0826 -0.1898  0.0929
 1344CLF     CX 1344   4.315   1.361   4.203  0.0826  0.0675 -0.0807
 1345CLF     CX 1345   0.476   6.427   5.225 -0.0117 -0.2302  0.0226
 1346CLF     CX 1346   5.533   2.805   0.658 -0.4041 -0.0512 -0.0771
 1347CLF     CX 1347   2.980   4.930   0.734  0.0814  0.1510  0.0549
 1348CLF     CX 1348   2.246   5.089   0.050 -0.0766 -0.1120 -0.2804
 1349CLF     CX 1349   5.603   2.883   2.045 -0.0926  0.5039 -0.3021
 1350CLF     CX 1350   5.411   5.419   2.421  0.1726  0.4263 -0.0342
 1351CLF     CX 1351   5.908   3.296   0.471  0.0847  0.3375  0.0125
 1352CLF     CX 1352   4.788   4.519   2.641  0.0422  0.2468 -0.1150
 1353CLF     CX 1353   5.148   6.483   3.178  0.0118  0.1979 -0.1256
 1354CLF     CX 1354   5.082   5.876   0.136 -0.0671  0.2769  0.0653
 1355CLF     CX 1355   4.426   2.364   2.304 -0.1973  0.0362 -0.2158
 1356CLF     CX 1356   5.160   4.737   5.186 -0.0661  0.0240  0.0430
 1357CLF     CX 1357   0.313   2.404   1.594 -0.1654 -0.0549 -0.0632
 1358CLF     CX 1358   3.244   1.189   5.511  0.0721  0.1372  0.3463
 1359CLF     CX 1359   3.636   2.413   5.956 -0.0102 -0.0475 -0.1214
 1360CLF     CX 1360   5.995   6.166   5.288  0.0180  0.0484  0.1193
 1361CLF     CX 1361   5.788   4.996   3.349  0.0271  0.2143  0.3553
 1362CLF     CX 1362   6.543   0.805   4.040 -0.0164 -0.1339  0.1926
 1363CLF     CX 1363   0.973   6.462   5.207  0.0792 -0.1910 -0.3347
 1364CLF     CX 1364   4.716   5.261   5.959 -0.2207 -0.1339  0.2336
 1365CLF     CX 1365   3.787   0.865   4.579  0.1633  0.0589  0.2067
 1366CLF     CX 1366   1.622   4.639   4.001  0.0583  0.0117 -0.1150
 1367CLF     CX 1367   1.169   5.617   3.057  0.0401  0.2220 -0.0734
 1368CLF     CX 1368   2.296   4.597   3.277 -0.2271  0.1692 -0.1742
 1369CLF     CX 1369   3.173   4.032   3.554  0.1468  0.0420 -0.0958
 1370CLF     CX 1370   0.668   0.823   1.608  0.1036  0.0448 -0.3024
 1371CLF     CX 1371   0.760   0.091   2.288  0.0501  0.1106  0.0756
 1372CLF     CX 1372   6.175   0.831   4.660 -0.2839  0.0121  0.2912
 1373CLF     CX 1373   3.261   6.328   5.115  0.0597 -0.3500  0.1940
 1374CLF     CX 1374   2.895   0.213   1.225 -0.0654 -0.0978  0.1374
 1375CLF     CX 1375   2.118   3.821   5.774 -0.0231 -0.0882 -0.0950
 1376CLF     CX 1376   6.335   4.811   2.509 -0.3438  0.1810  0.3132
 1377CLF     CX 1377   0.276   4.356   2.186 -0.0048 -0.4626  0.0074
 1378CLF     CX 1378   5.563   1.189   1.687  0.1643 -0.1071 -0.0241
 1379CLF     CX 1379   3.725   6.398   2.562  0.1924 -0.0576  0.1205
 1380CLF     CX 1380   3.736   1.315   2.528  0.2347 -0.2844 -0.4176
 1381CLF     CX 1381   1.364   1.370   5.321 -0.0766  0.1258 -0.1679
 1382CLF     CX 1382   1.912   3.333   6.510 -0.3670 -0.2245  0.5051
 1383CLF     CX 1383   6.376   5.204   4.156  0.0466  0.0530  0.1153
 1384CLF     CX 1384   1.113   2.493   0.200  0.0276  0.0452  0.0305
 1385CLF     CX 1385   1.116   3.718   1.860  0.1617  0.1653  0.0939
 1386CLF     CX 1386   1.195   5.798   4.650  0.1578  0.2551  0.0698
 1387CLF     CX 1387   5.893   5.379   0.469 -0.0714 -0.0749 -0.1232
 1388CLF     CX 1388   1.425   1.972   4.514 -0.0288 -0.2689 -0.1021
 1389CLF     CX 1389   3.937   0.953   4.098 -0.1246 -0.1826  0.3082
 1390CLF     CX 1390   5.531   0.025   5.423  0.4089  0.0649  0.0049
 1391CLF     CX 1391   1.015   4.248   6.010  0.0078 -0.1715 -0.3394
 1392CLF     CX 1392   4.769   4.495   4.143 -0.0200 -0.2111 -0.3118
 1393CLF     CX 1393   5.265   4.082   5.800 -0.0723 -0.1804  0.0288
 1394CLF     CX 1394   2.370   4.521   5.812  0.1029 -0.3215  0.2427
 1395CLF     CX 1395   4.704   0.741   0.610  0.0239  0.0834  0.2469
 1396CLF     CX 1396   4.713   6.249   3.853 -0.1934  0.2784  0.1474
 1397CLF     CX 1397   4.889   5.360   2.576 -0.0478  0.2091 -0.4777
 1398CLF     CX 1398   6.401   4.641   3.002  0.2026  0.1440 -0.1797
 1399CLF     CX 1399   1.112   3.550   4.900  0.1004  0.0450 -0.0894
 1400CLF     CX 1400   5.715   5.521   3.973 -0.0847  0.1908 -0.2802
 1401CLF     CX 1401   3.548   2.469   4.759  0.2191 -0.3049 -0.0019
 1402CLF     CX 1402   3.820   5.955   0.419  0.1143  0.0613 -0.4024
 1403CLF     CX 1403   6.354   0.833   1.698 -0.1502 -0.2390 -0.2280
 1404CLF     CX 1404   1.404   2.731   6.382  0.0902 -0.1064  0.0107
 1405CLF     CX 1405   5.192   5.387   0.265 -0.2094 -0.1646  0.0287
 1406CLF     CX 1406   6.418   1.223   4.814  0.0515  0.0663 -0.2799
 1407CLF     CX 1407   5.709   5.532   3.041 -0.0247  0.2796  0.3012
 1408CLF     CX 1408   3.320   4.982   1.125  0.1634 -0.0369 -0.0074
 1409CLF     CX 1409   0.161   5.495   3.904  0.1318  0.2852 -0.0969
 1410CLF     CX 1410   4.827   4.159   6.215 -0.0560  0.0316  0.2234
 1411CLF     CX 1411   1.914   4.175   5.384  0.1091  0.1653 -0.0625
 1412CLF     CX 1412   4.341   4.046   6.052 -0.0058  0.0902  0.2507
 1413CLF     CX 1413   5.340   2.307   4.799  0.0981  0.2254  0.2071
 1414CLF     CX 1414   4.943   1.969   3.926  0.2044  0.1759  0.1753
 1415CLF     CX 1415   3.912   1.153   1.613 -0.1398 -0.0589 -0.2119
 1416CLF     CX 1416   3.349   4.723   2.667 -0.1450  0.1925 -0.0261
 1417CLF     CX 1417   1.228   5.333   3.921 -0.2563 -0.1064 -0.1970
 1418CLF     CX 1418   5.620   3.298   2.340 -0.0720  0.2056  0.2044
 1419CLF     CX 1419   0.470   2.508   5.872  0.0429  0.2165 -0.0710
 1420CLF     CX 1420   1.530   1.135   0.870  0.1673 -0.0386  0.0495
 1421CLF     CX 1421   5.631   3.484   1.335 -0.2983 -0.1848 -0.0523
 1422CLF     CX 1422   5.455   6.037   5.466 -0.1505 -0.2238 -0.0093
 1423CLF     CX 1423   6.236   1.837   5.847 -0.2680  0.1482 -0.0297
 1424CLF     CX 1424   4.948   5.879   6.206  0.0023  0.4019 -0.0920
 1425CLF     CX 1425   0.302   0.762   3.731  0.1072 -0.1865 -0.2044
 1426CLF     CX 1426   2.970   4.151   1.399  0.1643 -0.0030  0.1863
 1427CLF     CX 1427   0.561   0.094   3.223  0.1385  0.0911 -0.1317
 1428CLF     CX 1428   5.720   1.885   0.434  0.4936 -0.2765 -0.0845
 1429CLF     CX 1429   6.448   4.643   5.322  0.1451  0.0539  0.0949
 1430CLF     CX 1430   1.675   5.958   5.611 -0.0677  0.1825  0.1361
 1431CLF     CX 1431   2.334   4.965   4.486  0.0436  0.1881 -0.0513
 1432CLF     CX 1432   4.769   6.027   0.495  0.1761 -0.0468  0.2644
 1433CLF     CX 1433   3.861   5.927   6.198  0.1443  0.0075  0.0095
 1434CLF     CX 1434   5.175   5.343   2.012  0.3406 -0.1942  0.2010
 1435CLF     CX 1435   2.398   6.330   3.171 -0.0848 -0.0045  0.1277
 1436CLF     CX 1436   0.884   4.698   1.304 -0.2941  0.2822  0.0079
 1437CLF     CX 1437   0.443   0.342   1.285 -0.2020  0.0467 -0.2234
 1438CLF     CX 1438   5.231   1.532   4.681  0.1970 -0.2105 -0.1094
 1439CLF     CX 1439   5.172   1.839   0.621 -0.0200 -0.4591  0.2812
 1440CLF     CX 1440   6.375   3.837   5.065  0.1833  0.1018 -0.2758
 1441CLF     CX 1441   3.666   0.643   0.206 -0.1267  0.1197  0.3322
 1442CLF     CX 1442   1.999   0.316   2.594 -0.0239  0.0077 -0.0572
 1443CLF     CX 1443   1.035   3.042   3.988  0.0371 -0.1232 -0.0724
 1444CLF     CX 1444   1.089   1.162   5.953 -0.0523 -0.1112 -0.0234
 1445CLF     CX 1445   0.215   3.791   5.370  0.0528  0.0424 -0.0650
 1446CLF     CX 1446   0.943   5.873   1.527  0.0387  0.2000 -0.1757
 1447CLF     CX 1447   1.214   0.053   1.992  0.0804  0.0613  0.0928
 1448CLF     CX 1448   1.632   6.035   3.920  0.1511  0.3496 -0.2862
 1449CLF     CX 1449   4.068   0.523   2.346 -0.1733  0.1570  0.0623
 1450CLF     CX 1450   1.315   4.488   0.220  0.2940  0.2542  0.2191
 1451CLF     CX 1451   3.347   1.057   0.981 -0.0200 -0.4099  0.1328
 1452CLF     CX 1452   0.101   1.882   3.535 -0.2839  0.1992  0.0538
 1453CLF     CX 1453   5.178   0.361   0.516  0.0803  0.2389  0.2205
 1454CLF     CX 1454   1.335   4.152   3.332 -0.3645  0.1342 -0.0093
 1455CLF     CX 1455   2.133   0.226   6.320  0.2311 -0.2789  0.0618
 1456CLF     CX 1456   3.301   3.001   6.549  0.0800 -0.0523 -0.0703
 1457CLF     CX 1457   3.312   6.272   5.606  0.0024  0.0833 -0.0028
 1458CLF     CX 1458   1.908   1.460   2.572  0.2138  0.2248  0.1087
 1459CLF     CX 1459   1.570   2.098   5.242  0.0719 -0.2789  0.1678
 1460CLF     CX 1460   0.009   1.456   5.171 -0.2718  0.1429 -0.0533
 1461CLF     CX 1461   5.078   5.131   3.970 -0.0336  0.1773 -0.1490
 1462CLF     CX 1462   5.249   1.962   1.593 -0.0137 -0.1129  0.2778
 1463CLF     CX 1463   2.348   1.899   6.382  0.2253 -0.2502  0.1691
 1464CLF     CX 1464   0.152   2.805   1.909  0.1048  0.4717 -0.3401
 1465CLF     CX 1465   2.448   2.998   2.484 -0.0404  0.1011 -0.2099
 1466CLF     CX 1466   4.512   2.734   4.209  0.3003  0.1401  0.0446
 1467CLF     CX 1467   5.718   3.946   6.116 -0.1300 -0.0290  0.0059
 1468CLF     CX 1468   0.639   2.364   3.576  0.0645 -0.1257 -0.0352
 1469CLF     CX 1469   6.611   5.851   5.652 -0.1978 -0.1616  0.0864
 1470CLF     CX 1470   4.282   4.417   5.669 -0.1168  0.1450 -0.0921
 1471CLF     CX 1471   5.100   2.438   6.412 -0.0110 -0.1446 -0.0055
 1472CLF     CX 1472   5.958   4.895   6.237 -0.2736  0.0934  0.2217
 1473CLF     CX 1473   0.575   1.827   3.541  0.0097  0.1862 -0.2806
 1474CLF     CX 1474   6.143   5.750   4.896 -0.2102 -0.0339 -0.1553
 1475CLF     CX 1475   5.795   2.447   2.294 -0.0481 -0.0627 -0.1347
 1476CLF     CX 1476   0.351   2.872   3.330  0.1012  0.0138  0.0882
 1477CLF     CX 1477   3.441   1.182   5.962  0.1415 -0.0606 -0.0614
 1478CLF     CX 1478   0.909   4.628   6.391  0.3469 -0.0776  0.0666
 1479CLF     CX 1479   0.440   0.392   6.533  0.2956  0.1911  0.4109
 1480CLF     CX 1480   6.059   4.274   5.550 -0.1840 -0.0371  0.3553
 1481CLF     CX 1481   0.369   3.055   4.298  0.2153 -0.1204  0.0948
 1482CLF     CX 1482   0.857   2.629   0.799 -0.0766  0.1890  0.0888
 1483CLF     CX 1483   0.409   6.392   1.136  0.1837 -0.1745  0.0714
 1484CLF     CX 1484   6.151   5.634   5.595  0.0090 -0.3982 -0.0069
 1485CLF     CX 1485   2.265   2.181   6.011  0.0995 -0.1651  0.1737
 1486CLF     CX 1486   2.776   1.095   0.962  0.2034  0.1154  0.0352
 1487CLF     CX 1487   0.429   4.997   5.240 -0.0322  0.1992 -0.0834
 1488CLF     CX 1488   0.719   3.766   0.798 -0.1097  0.0203 -0.1390
 1489CLF     CX 1489   2.550   5.059   1.108  0.1664 -0.3061 -0.0148
 1490CLF     CX 1490   3.313   6.014   6.077  0.1051 -0.0620 -0.0400
 1491CLF     CX 1491   6.135   4.393   5.004  0.1463  0.0302 -0.1134
 1492CLF     CX 1492   3.859   1.352   4.446 -0.0622  0.0188  0.1368
 1493CLF     CX 1493   5.533   4.153   2.671  0.0734  0.0268  0.2359
 1494CLF     CX 1494   5.114   1.810   3.454  0.3360 -0.2348  0.1033
 1495CLF     CX 1495   5.153   2.632   2.099  0.1180  0.2075  0.2542
 1496CLF     CX 1496   0.305   5.447   0.725 -0.1301  0.2486  0.1362
 1497CLF     CX 1497   6.624   1.670   6.151  0.1301 -0.3059  0.0128
 1498CLF     CX 1498   1.305   1.347   2.422  0.1078 -0.0007  0.1342
 1499CLF     CX 1499   5.831   5.524   1.497  0.0113  0.1620  0.2866
 1500CLF     CX 1500   1.596   4.651   2.080  0.2335 -0.0707  0.0869
 1501CLF     CX 1501   2.015   2.819   0.363 -0.0191  0.0092  0.0458
 1502CLF     CX 1502   4.837   6.068   3.327  0.2145 -0.0301  0.0920
 1503CLF     CX 1503   4.156   1.181   3.723 -0.0992 -0.1023 -0.1946
 1504CLF     CX 1504   2.576   1.504   1.284  0.0223  0.0120  0.2295
 1505CLF     CX 1505   6.058   2.628   0.346 -0.1077 -0.3337  0.3383
 1506CLF     CX 1506   5.128   5.305   1.355  0.1238 -0.0444 -0.1994
 1507CLF     CX 1507   0.528   1.674   1.117  0.3427 -0.1085 -0.0310
 1508CLF     CX 1508   0.274   4.124   4.478 -0.0879  0.2397 -0.1742
 1509CLF     CX 1509   2.189   1.656   2.911  0.0764  0.1170  0.1784
 1510CLF     CX 1510   1.886   5.078   5.394  0.2792  0.2168 -0.1130
 1511CLF     CX 1511   6.587   1.661   0.031  0.0029  0.0338  0.2267
 1512CLF     CX 1512   6.599   1.493   4.289  0.1650 -0.1945  0.0388
 1513CLF     CX 1513   2.121   4.845   1.346 -0.0403  0.1831  0.1809
 1514CLF     CX 1514   3.646   6.026   4.884 -0.1191  0.1228 -0.2786
 1515CLF     CX 1515   5.055   4.213   1.523  0.1352  0.0478 -0.3848
 1516CLF     CX 1516   6.061   5.069   3.781 -0.0496  0.1013  0.2972
 1517CLF     CX 1517   6.624   4.186   5.441  0.0705 -0.0904  0.2758
 1518CLF     CX 1518   1.761   6.144   0.289  0.3401  0.0951 -0.0834
 1519CLF     CX 1519   1.759   3.584   2.877  0.1386  0.1375 -0.2094
 1520CLF     CX 1520   4.954   3.604   3.023 -0.1929  0.2600  0.0077
 1521CLF     CX 1521   4.198   2.448   3.110 -0.0369  0.0096  0.1728
 1522CLF     CX 1522   0.572   4.015   3.863 -0.0325  0.0276 -0.1440
 1523CLF     CX 1523   0.648   1.334   2.062 -0.1594  0.0743 -0.2264
 1524CLF     CX 1524   5.179   5.829   2.033 -0.1937 -0.2962  0.1932
 1525CLF     CX 1525   3.972   0.257   3.880  0.0651 -0.2222  0.0939
 1526CLF     CX 1526   3.351   1.343   4.408  0.2035  0.2920  0.1372
 1527CLF     CX 1527   2.027   0.780   6.303  0.0170  0.0757  0.2813
 1528CLF     CX 1528   6.339   3.659   3.183  0.0966  0.3579 -0.2357
 1529CLF     CX 1529   2.071   2.656   4.693 -0.1977 -0.0415 -0.2171
 1530CLF     CX 1530   0.700   3.080   0.798 -0.3247  0.2082 -0.0454
 1531CLF     CX 1531   5.419   3.625   3.825  0.0401  0.3634  0.1339
 1532CLF     CX 1532   2.986   4.000   0.333 -0.1226  0.0491  0.0228
 1533CLF     CX 1533   2.762   2.544   5.877  0.0816  0.0730  0.1821
 1534CLF     CX 1534   0.530   4.006   2.530 -0.0979 -0.1014  0.0769
 1535CLF     CX 1535   4.722   4.196   0.534  0.1586  0.1757  0.1106
 1536CLF     CX 1536   0.815   1.645   0.135  0.0284 -0.2397  0.0908
 1537CLF     CX 1537   2.240   3.322   5.761  0.0392 -0.4552  0.0605
 1538CLF     CX 1538   0.127   5.413   6.523  0.0794  0.1975  0.2892
 1539CLF     CX 1539   1.512   4.817   0.630  0.0132  0.3156  0.0256
 1540CLF     CX 1540   6.374   6.266   2.100 -0.1909 -0.2597  0.1327
 1541CLF     CX 1541   4.004   5.821   3.991  0.0661  0.1066  0.0025
 1542CLF     CX 1542   1.539   5.649   1.232 -0.0391 -0.1571 -0.0546
 1543CLF     CX 1543   2.914   5.969   1.238 -0.0932 -0.3126 -0.1403
 1544CLF     CX 1544   4.002   4.017   5.175 -0.2502 -0.0861  0.1140
 1545CLF     CX 1545   4.464   4.303   5.205 -0.3005 -0.1448 -0.0645
 1546CLF     CX 1546   6.354   4.719   4.527 -0.2158 -0.1513 -0.0895
 1547CLF     CX 1547   5.193   0.263   2.613  0.0881 -0.2016  0.2952
 1548CLF     CX 1548   0.364   6.199   5.688  0.2197 -0.0744 -0.1377
 1549CLF     CX 1549   5.185   1.183   3.744  0.0108  0.1793  0.0535
 1550CLF     CX 1550   2.199   1.503   0.531 -0.0078 -0.2502 -0.1337
 1551CLF     CX 1551   4.277   0.452   2.857  0.2851  0.0434 -0.2249
 1552CLF     CX 1552   2.656   6.471   0.592  0.0039  0.1653 -0.0538
 1553CLF     CX 1553   3.752   5.251   1.446 -0.1106  0.0429 -0.0275
 1554CLF     CX 1554   5.836   2.073   4.663  0.0700  0.3096 -0.0132
 1555CLF     CX 1555   3.877   3.189   6.123 -0.3582 -0.1136 -0.1864
 1556CLF     CX 1556   0.239   4.392   0.365  0.0531 -0.3041 -0.1016
 1557CLF     CX 1557   0.934   3.278   2.496  0.2282 -0.3291 -0.0317
 1558CLF     CX 1558   0.366   4.823   5.727 -0.1496 -0.0014  0.2143
 1559CLF     CX 1559   4.047   4.916   6.094 -0.1124 -0.2042  0.1591
 1560CLF     CX 1560   4.666   4.787   5.027 -0.1344  0.0488  0.0771
 1561CLF     CX 1561   4.958   3.012   0.274  0.2061  0.1712 -0.0153
 1562CLF     CX 1562   1.399   4.005   5.918  0.0332  0.0328 -0.0583
 1563CLF     CX 1563   5.055   3.708   1.299  0.0459  0.4318 -0.0097
 1564CLF     CX 1564   3.440   0.880   2.729  0.0865 -0.4029  0.0116
 1565CLF     CX 1565   5.731   0.737   0.864 -0.1878 -0.0305  0.0395
 1566CLF     CX 1566   4.180   4.486   1.945 -0.0278 -0.2555  0.0615
 1567CLF     CX 1567   0.713   4.261   0.736 -0.1043 -0.0028 -0.0572
 1568CLF     CX 1568   5.348   1.349   4.240  0.0130  0.0731  0.0121
 1569CLF     CX 1569   4.767   0.643   4.537  0.0869  0.0851  0.1542
 1570CLF     CX 1570   5.434   5.543   1.087  0.3798 -0.0751 -0.2621
 1571CLF     CX 1571   6.058   5.387   2.493  0.1304  0.0265  0.3531
 1572CLF     CX 1572   2.770   3.013   0.830  0.0193 -0.1847  0.0125
 1573CLF     CX 1573   4.786   1.787   1.517  0.2151  0.1774 -0.2345
 1574CLF     CX 1574   0.950   4.897   3.753  0.0503 -0.0416 -0.3619
 1575CLF     CX 1575   4.243   5.600   5.494  0.1779 -0.1835 -0.3097
 1576CLF     CX 1576   2.368   1.800   1.703 -0.0924  0.0231 -0.1577
 1577CLF     CX 1577   1.484   0.898   1.757 -0.3374  0.0297 -0.2488
 1578CLF     CX 1578   0.965   3.011   1.287  0.2959  0.1090  0.0509
 1579CLF     CX 1579   6.379   5.285   0.378  0.1186 -0.0708  0.1611
 1580CLF     CX 1580   4.865   5.754   3.702 -0.0411  0.2348 -0.2459
 1581CLF     CX 1581   6.214   5.300   1.089  0.1200  0.0863  0.4091
 1582CLF     CX 1582   4.369   2.058   6.462  0.2054 -0.0703 -0.1913
 1583CLF     CX 1583   1.996   1.695   0.973  0.0935  0.0380 -0.0791
 1584CLF     CX 1584   2.865   0.096   3.125 -0.2661  0.2762 -0.1110
 1585CLF     CX 1585   3.472   0.297   3.046 -0.0430  0.0362  0.2725
 1586CLF     CX 1586   5.065   4.282   5.191 -0.0863  0.0464 -0.1348
 1587CLF     CX 1587   6.516   1.957   0.398  0.0222  0.1953 -0.3306
 1588CLF     CX 1588   6.285   5.159   5.834  0.2657  0.2790 -0.3596
 1589CLF     CX 1589   4.338   4.762   3.385 -0.0400 -0.1599  0.1708
 1590CLF     CX 1590   4.382   4.882   4.437 -0.1999 -0.0909  0.4457
 1591CLF     CX 1591   5.815   3.763   4.269  0.2157  0.0648  0.1416
 1592CLF     CX 1592   1.994   4.961   2.943 -0.4624 -0.3122 -0.1036
 1593CLF     CX 1593   5.016   4.573   5.898  0.0331 -0.1898 -0.3955
 1594CLF     CX 1594   3.212   1.749   4.685  0.1524 -0.0346  0.0210
 1595CLF     CX 1595   0.419   6.060   3.408  0.2758  0.1011  0.0699
 1596CLF     CX 1596   1.744   3.055   4.562 -0.1747 -0.0352  0.2911
 1597CLF     CX 1597   2.021   5.037   4.175  0.0482  0.1659 -0.0815
 1598CLF     CX 1598   3.429   5.597   6.304  0.0488 -0.1560 -0.1117
 1599CLF     CX 1599   1.469   5.108   5.073  0.2055 -0.2012  0.1149
 1600CLF     CX 1600   6.407   6.229   0.874  0.2007  0.2768  0.0597
 1601CLF     CX 1601   3.992   3.270   1.645  0.1161 -0.1975 -0.4261
 1602CLF     CX 1602   3.678   2.312   0.857  0.0396 -0.1766 -0.1580
 1603CLF     CX 1603   6.240   4.645   1.803 -0.0561 -0.0520 -0.0669
 1604CLF     CX 1604   2.875   1.351   4.366 -0.2201 -0.2152  0.1176
 1605CLF     CX 1605   4.626   0.950   4.113 -0.0591 -0.1698 -0.3538
 1606CLF     CX 1606   3.441   5.728   3.851 -0.2949 -0.2714  0.0034
 1607CLF     CX 1607   2.448   4.321   2.425 -0.2683 -0.2026  0.0970
 1608CLF     CX 1608   2.117   5.420   2.858  0.2697  0.0949  0.3316
 1609CLF     CX 1609   4.825   3.550   2.472  0.2794  0.0658  0.0760
 1610CLF     CX 1610   5.091   6.577   1.735 -0.1520  0.0583 -0.0390
 1611CLF     CX 1611   3.774   2.068   4.387 -0.1491  0.4569  0.2011
 1612CLF     CX 1612   1.715   4.682   1.032  0.2341  0.0851  0.1927
 1613CLF     CX 1613   5.321   1.363   2.635  0.0433 -0.2222 -0.3537
 1614CLF     CX 1614   2.459   5.548   1.206  0.0257 -0.0331  0.1845
 1615CLF     CX 1615   4.337   3.193   4.611 -0.2448 -0.0980  0.2804
 1616CLF     CX 1616   5.746   1.821   5.648 -0.0655  0.0180  0.2941
 1617CLF     CX 1617   3.904   1.330   4.979 -0.1997  0.0372 -0.0372
 1618CLF     CX 1618   4.978   2.948   5.990 -0.0333 -0.0553  0.1334
 1619CLF     CX 1619   4.995   1.190   0.249 -0.0258  0.2856  0.2683
 1620CLF     CX 1620   0.640   0.463   0.895 -0.2932 -0.0153 -0.1736
 1621CLF     CX 1621   1.885   2.763   1.200  0.1003  0.0450  0.0534
 1622CLF     CX 1622   2.146   0.388   3.996  0.0331 -0.1942  0.2862
 1623CLF     CX 1623   2.343   1.278   4.479 -0.2052  0.3793 -0.0901
 1624CLF     CX 1624   2.631   1.449   4.852  0.0147 -0.0529  0.0590
 1625CLF     CX 1625   5.563   4.778   5.961 -0.0151 -0.1724 -0.1431
 1626CLF     CX 1626   2.376   4.124   3.228  0.0692 -0.1524 -0.0129
 1627CLF     CX 1627   0.180   6.211   0.501 -0.1384 -0.1231 -0.0048
 1628CLF     CX 1628   3.174   4.444   0.911  0.0335 -0.1188  0.1618
 1629CLF     CX 1629   2.242   6.213   1.948  0.2157 -0.1255 -0.2442
 1630CLF     CX 1630   3.017   4.347   3.912  0.0486 -0.0261  0.1289
 1631CLF     CX 1631   0.744   0.504   3.464 -0.0684 -0.0382 -0.4177
 1632CLF     CX 1632   1.635   2.176   1.049 -0.1979 -0.0821  0.0415
 1633CLF     CX 1633   3.161   4.032   1.874  0.0885 -0.0241  0.0113
 1634CLF     CX 1634   1.391   5.461   2.561  0.1268  0.1202 -0.1204
 1635CLF     CX 1635   3.087   1.045   6.506 -0.0403  0.2441 -0.2193
 1636CLF     CX 1636   2.266   2.800   0.801  0.1342 -0.1845  0.1288
 1637CLF     CX 1637   0.300   3.559   4.319  0.2109 -0.3093 -0.0259
 1638CLF     CX 1638   4.403   3.575   4.165  0.0378 -0.1099 -0.0931
 1639CLF     CX 1639   5.209   0.777   3.987  0.3065 -0.2239 -0.0815
 1640CLF     CX 1640   3.005   0.303   3.760 -0.2655  0.4805  0.4118
 1641CLF     CX 1641   5.528   5.908   2.353 -0.3475  0.2377  0.2198
 1642CLF     CX 1642   3.094   5.940   0.800  0.0394  0.1268  0.1766
 1643CLF     CX 1643   3.595   0.542   5.494  0.0129 -0.2190 -0.0114
 1644CLF     CX 1644   3.635   5.224   1.955 -0.1630  0.1357 -0.1026
 1645CLF     CX 1645   2.207   2.095   3.719 -0.3305  0.1317  0.1326
 1646CLF     CX 1646   1.912   2.299   6.394 -0.1956 -0.1292 -0.2195
 1647CLF     CX 1647   3.217   3.846   1.111 -0.0076  0.1234  0.1907
 1648CLF     CX 1648   5.834   2.176   3.081  0.0882 -0.1320  0.2125
 1649CLF     CX 1649   2.524   0.608   2.557  0.4823 -0.1707  0.0261
 1650CLF     CX 1650   1.785   6.366   1.237  0.2245  0.0435  0.1154
 1651CLF     CX 1651   3.703   1.397   0.778 -0.2665 -0.0779  0.1527
 1652CLF     CX 1652   1.058   5.453   1.335 -0.0253  0.4656  0.0025
 1653CLF     CX 1653   5.035   3.013   3.545 -0.0168 -0.2176  0.0729
 1654CLF     CX 1654   2.732   5.012   4.163  0.2196  0.2669  0.2149
 1655CLF     CX 1655   2.630   1.486   6.256  0.1528 -0.2571  0.0580
 1656CLF     CX 1656   1.350   5.635   0.767  0.0361  0.0531  0.0205
 1657CLF     CX 1657   5.001   5.606   0.732 -0.0962 -0.1599 -0.1412
 1658CLF     CX 1658   1.069   3.715   4.424  0.0240 -0.0470  0.1076
 1659CLF     CX 1659   4.787   1.523   5.402  0.1378  0.0563 -0.1729
 1660CLF     CX 1660   6.169   1.430   6.224  0.2437 -0.1615 -0.3271
 1661CLF     CX 1661   1.896   3.036   2.659 -0.0857  0.0886 -0.0893
 1662CLF     CX 1662   1.975   5.772   2.470  0.0246 -0.4804 -0.0366
 1663CLF     CX 1663   3.096   0.637   4.967 -0.0994  0.0933 -0.1484
 1664CLF     CX 1664   5.670   2.725   5.619 -0.0588  0.1162  0.0621
 1665CLF     CX 1665   2.887   0.031   4.884 -0.1484  0.0286 -0.0835
 1666CLF     CX 1666   5.540   2.017   3.443  0.0679 -0.0081 -0.0491
 1667CLF     CX 1667   3.417   6.052   6.622 -0.3151  0.1028  0.0666
 1668CLF     CX 1668   4.210   6.300   2.015  0.0178  0.1055  0.2287
 1669CLF     CX 1669   5.898   5.947   6.326  0.1708 -0.3010  0.1948
 1670CLF     CX 1670   1.209   3.897   0.797  0.0739 -0.2078 -0.1761
 1671CLF     CX 1671   0.381   4.109   2.994  0.0149  0.2119 -0.0331
 1672CLF     CX 1672   1.009   2.217   4.732 -0.1578  0.2983 -0.1424
 1673CLF     CX 1673   0.387   5.254   4.836 -0.2111  0.0264  0.0090
 1674CLF     CX 1674   0.740   0.126   1.622 -0.4464  0.0485 -0.1688
 1675CLF     CX 1675   2.639   3.405   6.106  0.1497 -0.0790 -0.0879
 1676CLF     CX 1676   2.926   3.362   4.328 -0.1587  0.1116 -0.0087
 1677CLF     CX 1677   1.798   5.112   2.528  0.0895 -0.0347 -0.2135
 1678CLF     CX 1678   2.549   4.051   5.679  0.0374 -0.2110  0.1750
 1679CLF     CX 1679   6.008   2.947   2.412  0.1000 -0.2026 -0.0277
 1680CLF     CX 1680   1.456   1.014   3.192  0.3126  0.3008 -0.1120
 1681CLF     CX 1681   4.069   4.206   4.667  0.0274  0.1571  0.1126
 1682CLF     CX 1682   2.233   1.229   1.742 -0.1589 -0.0050 -0.0322
 1683CLF     CX 1683   3.740   4.236   1.898  0.0384 -0.0742  0.0211
 1684CLF     CX 1684   5.533   6.308   2.056  0.0122  0.1382 -0.3795
 1685CLF     CX 1685   3.614   2.332   0.335 -0.1134 -0.2443 -0.1375
 1686CLF     CX 1686   3.414   5.201   0.591 -0.0127 -0.2368  0.2552
 1687CLF     CX 1687   4.992   0.547   1.763 -0.1729  0.1170 -0.0616
 1688CLF     CX 1688   0.078   2.596   6.173  0.2016 -0.0185  0.0067
 1689CLF     CX 1689   5.814   4.429   6.452 -0.1869  0.1410 -0.5834
 1690CLF     CX 1690   6.153   0.644   1.136 -0.0123 -0.0963 -0.1924
 1691CLF     CX 1691   3.651   1.172   3.589 -0.2135  0.0391 -0.1874
 1692CLF     CX 1692   3.525   2.443   3.282 -0.1754  0.1881 -0.0989
 1693CLF     CX 1693   3.670   4.080   4.037  0.0509 -0.0199 -0.0141
 1694CLF     CX 1694   4.266   2.200   0.314 -0.0140 -0.3684 -0.0071
 1695CLF     CX 1695   6.448   0.582   3.003  0.2540 -0.2429 -0.1052
 1696CLF     CX 1696   3.948   4.152   1.331 -0.1846  0.0570  0.3709
 1697CLF     CX 1697   1.408   2.292   4.158  0.1104  0.0820 -0.3737
 1698CLF     CX 1698   1.187   0.468   0.487 -0.1550 -0.1091 -0.0346
 1699CLF     CX 1699   5.491   3.656   5.776 -0.0334 -0.0342  0.3078
 1700CLF     CX 1700   0.689   2.784   2.504  0.2702 -0.1789 -0.0560
 1701CLF     CX 1701   0.310   5.958   2.948 -0.3059  0.2571  0.0742
 1702CLF     CX 1702   5.878   4.241   1.838 -0.0328 -0.0896 -0.1444
 1703CLF     CX 1703   5.032   6.254   2.111  0.0840  0.1736 -0.0849
 1704CLF     CX 1704   1.492   0.846   6.278 -0.3079  0.1530 -0.0324
 1705CLF     CX 1705   2.475   2.409   0.591  0.2344  0.0453 -0.1566
 1706CLF     CX 1706   2.865   5.966   4.883 -0.1194  0.1607 -0.3601
 1707CLF     CX 1707   5.657   1.228   5.981 -0.1209 -0.0505 -0.3237
 1708CLF     CX 1708   6.583   2.772   3.116  0.2227  0.1364 -0.0182
 1709CLF     CX 1709   6.249   3.100   2.955  0.1078  0.0264  0.0799
 1710CLF     CX 1710   1.410   4.170   6.466  0.1476  0.1501  0.2005
 1711CLF     CX 1711   5.473   4.215   2.096  0.1237  0.2800 -0.3234
 1712CLF     CX 1712   1.783   1.919   3.306 -0.1777 -0.2513  0.2002
 1713CLF     CX 1713   3.475   5.919   1.800 -0.0918  0.1297 -0.1886
 1714CLF     CX 1714   1.856   3.334   1.399  0.1514  0.0576 -0.0316
 1715CLF     CX 1715   2.012   2.795   6.498  0.1226  0.0494  0.0425
 1716CLF     CX 1716   0.499   2.425   6.351  0.1719 -0.0619 -0.0559
 1717CLF     CX 1717   4.121   2.846   2.601 -0.0784  0.0854  0.1953
 1718CLF     CX 1718   4.519   5.765   0.150 -0.1620 -0.0339 -0.0204
 1719CLF     CX 1719   5.782   1.261   5.408 -0.1263 -0.0418 -0.0194
 1720CLF     CX 1720   0.515   2.524   2.908 -0.1830 -0.2127 -0.0891
 1721CLF     CX 1721   2.985   4.826   3.758  0.2947  0.0384  0.2981
 1722CLF     CX 1722   4.810   6.338   5.977  0.4092 -0.0805 -0.2130
 1723CLF     CX 1723   0.072   0.389   4.912 -0.0858  0.1723  0.0428
 1724CLF     CX 1724   0.383   5.488   1.921  0.1932  0.1183  0.1972
 1725CLF     CX 1725   5.055   0.736   5.027  0.1526  0.1671  0.0618
 1726CLF     CX 1726   1.469   5.181   1.384  0.1653 -0.0336 -0.1728
 1727CLF     CX 1727   1.556   4.160   2.024 -0.0086  0.1788  0.3154
 1728CLF     CX 1728   1.238   0.152   6.388  0.2385  0.2547 -0.0745
 1729CLF     CX 1729   3.385   1.572   1.670  0.2839  0.2145  0.0464
 1730CLF     CX 1730   1.390   0.357   5.535 -0.0014  0.0844  0.1024
 1731CLF     CX 1731   2.002   5.994   5.983  0.1457  0.1672  0.0803
 1732CLF     CX 1732   0.865   2.121   0.028 -0.0842 -0.1061 -0.2242
 1733CLF     CX 1733   1.237   2.263   0.661 -0.1666  0.0005  0.0536
 1734CLF     CX 1734   4.054   0.293   5.342  0.2356  0.0278  0.2213
 1735CLF     CX 1735   1.851   0.074   1.858  0.2874 -0.1385  0.0477
 1736CLF     CX 1736   0.339   0.354   2.331  0.3118 -0.5855 -0.1428
 1737CLF     CX 1737   3.201   3.616   1.530 -0.2000  0.0298 -0.0117
 1738CLF     CX 1738   2.287   4.354   3.727 -0.0985  0.0297 -0.0753
 1739CLF     CX 1739   3.263   5.206   4.732 -0.2500  0.1656 -0.1048
 1740CLF     CX 1740   0.855   0.695   5.709  0.0519  0.2539 -0.4306
 1741CLF     CX 1741   1.185   4.649   5.195 -0.0864 -0.0438 -0.1114
 1742CLF     CX 1742   2.011   2.320   5.129 -0.1589  0.0935 -0.0104
 1743CLF     CX 1743   0.373   4.432   4.142 -0.1817  0.1606 -0.1813
 1744CLF     CX 1744   1.683   2.805   5.005  0.6092  0.1814 -0.1606
 1745CLF     CX 1745   1.061   2.650   3.263  0.1657  0.0161  0.1391
 1746CLF     CX 1746   1.031   0.947   2.233  0.0531  0.0553  0.1050
 1747CLF     CX 1747   3.341   3.620   0.637 -0.1175 -0.0652 -0.1092
 1748CLF     CX 1748   5.651   0.530   2.922  0.1079 -0.2995  0.2205
 1749CLF     CX 1749   4.767   6.610   5.261  0.2738  0.0721 -0.0424
 1750CLF     CX 1750   2.819   1.143   2.527  0.0709  0.1945 -0.1696
 1751CLF     CX 1751   1.587   0.349   2.212  0.1711 -0.0613  0.2109
 1752CLF     CX 1752   2.735   2.330   0.077  0.0945  0.2955  0.2236
 1753CLF     CX 1753   1.812   4.768   0.187  0.1341  0.0826  0.0764
 1754CLF     CX 1754   5.491   3.423   4.283 -0.0622  0.2973 -0.1503
 1755CLF     CX 1755   2.712   4.956   5.590  0.0365  0.3450  0.0166
 1756CLF     CX 1756   0.297   1.236   2.409 -0.1059  0.1041  0.2188
 1757CLF     CX 1757   5.515   6.317   5.048 -0.0405  0.0490  0.0561
 1758CLF     CX 1758   5.820   5.944   3.304 -0.1011  0.2685 -0.0290
 1759CLF     CX 1759   3.957   5.708   3.510  0.0106  0.2756  0.0151
 1760CLF     CX 1760   4.847   3.062   2.773  0.0115 -0.2809 -0.1031
 1761CLF     CX 1761   0.135   1.963   5.112 -0.1323  0.0207 -0.0772
 1762CLF     CX 1762   0.052   3.661   0.171  0.0495 -0.2504  0.1783
 1763CLF     CX 1763   1.769   2.430   3.504  0.1916 -0.2501  0.0782
 1764CLF     CX 1764   5.602   5.017   3.871  0.0926 -0.0747 -0.0439
 1765CLF     CX 1765   1.357   1.639   4.148 -0.1906  0.1749  0.2171
 1766CLF     CX 1766   4.661   5.674   2.987 -0.0369 -0.1596  0.2398
 1767CLF     CX 1767   2.098   5.927   4.127  0.1477  0.0983 -0.3169
 1768CLF     CX 1768   4.096   0.584   6.252  0.2175 -0.1078  0.1335
 1769CLF     CX 1769   1.435   1.398   1.635  0.1976 -0.2186 -0.1842
 1770CLF     CX 1770   3.200   3.999   4.800  0.0037 -0.2020 -0.2403
 1771CLF     CX 1771   6.295   1.141   2.938 -0.2016  0.0243 -0.0268
 1772CLF     CX 1772   4.646   4.794   2.095 -0.1906 -0.0345 -0.0514
 1773CLF     CX 1773   2.934   4.864   2.000 -0.0214 -0.0799 -0.2249
 1774CLF     CX 1774   3.469   3.005   3.301  0.0579 -0.2957 -0.2717
 1775CLF     CX 1775   6.088   3.005   0.030  0.2548  0.1570  0.0856
 1776CLF     CX 1776   3.536   3.192   0.880 -0.2224 -0.0898  0.1286
 1777CLF     CX 1777   0.932   1.617   1.395  0.1522 -0.0643 -0.1486
 1778CLF     CX 1778   1.804   2.508   0.706 -0.0465 -0.0270  0.0240
 1779CLF     CX 1779   1.218   4.892   4.186 -0.0596  0.0927  0.1586
 1780CLF     CX 1780   1.276   2.115   1.796  0.3428  0.1248  0.1561
 1781CLF     CX 1781   3.310   2.767   5.107 -0.1751  0.0434 -0.1403
 1782CLF     CX 1782   3.318   5.101   5.396  0.0913 -0.0408  0.1708
 1783CLF     CX 1783   1.604   3.865   1.524 -0.0910  0.2716  0.1752
 1784CLF     CX 1784   6.286   5.748   1.330 -0.1996  0.1478 -0.2214
 1785CLF     CX 1785   0.284   2.074   0.831  0.1928 -0.0442 -0.0772
 1786CLF     CX 1786   3.426   4.548   5.638  0.2508 -0.1834 -0.0671
 1787CLF     CX 1787   6.624   3.862   2.379  0.0677 -0.0623 -0.0561
 1788CLF     CX 1788   4.629   0.469   6.574 -0.3573 -0.1639 -0.1352
 1789CLF     CX 1789   3.689   5.579   3.106 -0.0719  0.3683  0.1959
 1790CLF     CX 1790   2.708   3.510   5.597  0.0796 -0.0073 -0.0994
 1791CLF     CX 1791   0.339   0.850   1.205  0.2954  0.2042 -0.3047
 1792CLF     CX 1792   4.957   4.807   1.649 -0.0787  0.2565  0.0849
 1793CLF     CX 1793   0.427   1.579   4.446 -0.4549  0.0038  0.0519
 1794CLF     CX 1794   4.013   3.399   0.714 -0.1717 -0.1878 -0.2005
 1795CLF     CX 1795   0.763   5.216   2.180 -0.1426  0.0135  0.0577
 1796CLF     CX 1796   5.014   4.130   2.316  0.0282 -0.1930 -0.1164
 1797CLF     CX 1797   1.974   1.808   6.056 -0.2145 -0.0507 -0.3221
 1798CLF     CX 1798   0.003   2.454   1.095 -0.3423  0.1059 -0.3180
 1799CLF     CX 1799   5.438   5.511   5.531  0.3421  0.3786  0.1010
 1800CLF     CX 1800   1.100   4.274   1.668  0.1964 -0.1866 -0.3384
 1801CLF     CX 1801   2.125   4.870   0.872 -0.1585 -0.2980 -0.2022
 1802CLF     CX 1802   3.666   4.423   0.930  0.0656 -0.1813  0.0915
 1803CLF     CX 1803   6.387   4.242   4.534 -0.3243 -0.3517  0.1761
 1804CLF     CX 1804   2.887   1.887   2.920  0.0221  0.1365 -0.1405
 1805CLF     CX 1805   1.272   2.954   5.453 -0.0904 -0.0231 -0.0749
 1806CLF     CX 1806   6.375   1.822   3.906  0.3183 -0.2664 -0.1569
 1807CLF     CX 1807   1.705   4.107   1.129  0.0628  0.2108 -0.0848
 1808CLF     CX 1808   0.431   3.964   4.960  0.0823 -0.0793 -0.1406
 1809CLF     CX 1809   6.537   0.179   6.399  0.1783  0.3233 -0.0083
 1810CLF     CX 1810   3.422   4.537   0.387 -0.1993 -0.0487 -0.2624
 1811CLF     CX 1811   6.005   0.209   0.987 -0.0138 -0.1102  0.2438
 1812CLF     CX 1812   0.371   0.541   3.175 -0.1875 -0.1449 -0.0534
 1813CLF     CX 1813   6.434   5.449   4.640  0.3009 -0.2195 -0.1522
 1814CLF     CX 1814   4.428   4.794   2.539 -0.1557  0.0055 -0.3856
 1815CLF     CX 1815   2.322   5.347   3.921 -0.0853 -0.0963 -0.1319
 1816CLF     CX 1816   1.822   3.981   3.207 -0.0213  0.1166 -0.3817
 1817CLF     CX 1817   4.801   6.181   2.836 -0.2337 -0.0447 -0.0321
 1818CLF     CX 1818   1.053   1.598   1.917  0.1994 -0.1013 -0.3958
 1819CLF     CX 1819   3.042   6.058   3.659  0.0875  0.0526  0.1824
 1820CLF     CX 1820   1.353   4.052   4.754  0.1070 -0.0246  0.0688
 1821CLF     CX 1821   3.515   2.738   0.721  0.0959 -0.1411 -0.0140
 1822CLF     CX 1822   3.807   0.504   1.411 -0.2300 -0.4171  0.1311
 1823CLF     CX 1823   2.820   0.237   2.348 -0.1238  0.1325 -0.4363
 1824CLF     CX 1824   4.764   1.791   4.885 -0.0775  0.1247 -0.2229
 1825CLF     CX 1825   0.298   5.864   4.860 -0.0391  0.0699  0.2400
 1826CLF     CX 1826   5.759   1.606   4.182  0.3065  0.0019 -0.0110
 1827CLF     CX 1827   1.938   0.685   5.002 -0.1881  0.0085  0.1790
 1828CLF     CX 1828   1.640   5.541   5.210  0.0901  0.2144  0.1127
 1829CLF     CX 1829   0.548   4.395   6.105  0.1718  0.3077 -0.0313
 1830CLF     CX 1830   3.090   6.411   0.896 -0.1865 -0.2081  0.0267
 1831CLF     CX 1831   2.379   0.626   5.342  0.2401 -0.4030  0.0220
 1832CLF     CX 1832   3.356   4.462   3.231  0.2289 -0.1750  0.2151
 1833CLF     CX 1833   4.285   1.101   6.357  0.2312 -0.0312  0.1972
 1834CLF     CX 1834   0.630   4.646   3.043 -0.0929 -0.1662 -0.1913
 1835CLF     CX 1835   5.326   0.973   1.269 -0.2223  0.2281 -0.0545
 1836CLF     CX 1836   1.056   3.821   2.403  0.2814 -0.2142  0.0699
 1837CLF     CX 1837   3.438   5.949   2.811  0.1291 -0.2551 -0.1573
 1838CLF     CX 1838   5.715   3.161   0.946  0.0296 -0.2706  0.0721
 1839CLF     CX 1839   5.933   4.799   0.268  0.1454  0.1324 -0.0155
 1840CLF     CX 1840   4.495   3.349   0.725 -0.1208 -0.1534  0.0273
 1841CLF     CX 1841   2.451   1.813   0.876 -0.2091 -0.0109  0.1472
 1842CLF     CX 1842   4.280   5.380   3.886 -0.0631  0.0906 -0.3367
 1843CLF     CX 1843   4.981   3.219   4.464 -0.4614  0.2986  0.2414
 1844CLF     CX 1844   3.342   3.019   4.538 -0.1034 -0.3413 -0.0913
 1845CLF     CX 1845   3.090   0.095   5.661  0.2862  0.0886  0.0567
 1846CLF     CX 1846   6.001   1.906   3.629 -0.0133 -0.0235 -0.3103
 1847CLF     CX 1847   2.412   2.560   6.353 -0.0242 -0.0440 -0.4425
 1848CLF     CX 1848   3.882   5.851   2.649  0.2028  0.2936  0.0933
 1849CLF     CX 1849   3.953   3.695   2.057 -0.3086 -0.1635  0.1510
 1850CLF     CX 1850   0.944   1.988   2.191 -0.0490  0.0538  0.1667
 1851CLF     CX 1851   3.052   0.975   3.876  0.1192 -0.1459  0.3879
 1852CLF     CX 1852   2.668   0.630   3.887  0.0563  0.1172  0.1871
 1853CLF     CX 1853   4.271   0.070   2.447 -0.1475 -0.1363 -0.1322
 1854CLF     CX 1854   0.751   1.494   3.165  0.0668 -0.2823  0.0425
 1855CLF     CX 1855   3.453   4.558   6.163  0.1957  0.1328 -0.4088
 1856CLF     CX 1856   2.703   3.860   1.677  0.0031 -0.1944 -0.1439
 1857CLF     CX 1857   3.401   0.162   1.490  0.3594  0.1263 -0.1313
 1858CLF     CX 1858   3.795   5.414   5.442  0.2144 -0.1542 -0.1452
 1859CLF     CX 1859   0.700   4.038   2.065 -0.3101 -0.0147 -0.0655
 1860CLF     CX 1860   2.484   4.278   0.549  0.0575  0.1274  0.0607
 1861CLF     CX 1861   3.889   3.543   3.926  0.0221 -0.2496  0.2180
 1862CLF     CX 1862   2.459   5.701   2.493 -0.1779  0.0794 -0.1481
 1863CLF     CX 1863   1.406   3.354   5.783 -0.2482  0.0996 -0.0864
 1864CLF     CX 1864   2.488   5.185   6.236 -0.1602 -0.0495  0.1697
 1865CLF     CX 1865   3.491   0.147   0.256  0.4605 -0.2415 -0.1073
 1866CLF     CX 1866   2.170   5.923   3.077  0.5290  0.1955  0.3840
 1867CLF     CX 1867   0.371   5.732   2.391 -0.0446  0.1905  0.1474
 1868CLF     CX 1868   1.152   6.444   0.683  0.5902  0.0273  0.3500
 1869CLF     CX 1869   6.235   3.508   0.046  0.2868 -0.0676  0.2129
 1870CLF     CX 1870   3.369   6.144   2.317 -0.3264 -0.2756 -0.1574
 1871CLF     CX 1871   2.169   5.595   5.523  0.1118 -0.3943  0.1568
 1872CLF     CX 1872   5.663   0.579   0.403 -0.2071 -0.2569 -0.1935
 1873CLF     CX 1873   6.496   2.719   4.077  0.0651  0.0377  0.1030
 1874CLF     CX 1874   2.366   0.503   3.071 -0.3011  0.2107 -0.0113
 1875CLF     CX 1875   3.891   2.675   3.590  0.1168 -0.3642 -0.0149
 1876CLF     CX 1876   6.629   1.124   5.911 -0.0008  0.1425 -0.0186
 1877CLF     CX 1877   3.623   3.176   2.216 -0.1098  0.1947 -0.0653
 1878CLF     CX 1878   3.626   4.765   2.149  0.0638 -0.0736 -0.0352
 1879CLF     CX 1879   6.414   0.719   5.606 -0.2453  0.1638 -0.0683
 1880CLF     CX 1880   6.262   2.355   4.200  0.1727  0.0871 -0.0309
 1881CLF     CX 1881   0.130   5.232   5.518  0.1011  0.2016  0.0892
 1882CLF     CX 1882   1.420   4.707   1.640  0.1006 -0.0787  0.0247
 1883CLF     CX 1883   3.759   5.521   0.192  0.1764  0.2041  0.0966
 1884CLF     CX 1884   2.791   2.863   2.120  0.0714  0.0669 -0.1176
 1885CLF     CX 1885   6.529   2.904   5.776  0.0896 -0.2370  0.1496
 1886CLF     CX 1886   5.005   0.003   0.871 -0.0870  0.0731 -0.1744
 1887CLF     CX 1887   4.481   1.039   0.333 -0.1692  0.0103  0.0450
 1888CLF     CX 1888   4.709   4.498   3.562  0.0746 -0.0657  0.1141
 1889CLF     CX 1889   1.414   6.505   4.103  0.0740  0.2638  0.0765
 1890CLF     CX 1890   4.382   5.655   0.609 -0.0307 -0.2014 -0.0933
 1891CLF     CX 1891   0.495   3.470   1.203 -0.1435 -0.1955  0.5378
 1892CLF     CX 1892   5.882   3.449   3.218 -0.2973  0.1262  0.2269
 1893CLF     CX 1893   4.494   5.822   4.133  0.0930 -0.1692 -0.0636
 1894CLF     CX 1894   3.263   0.559   5.997 -0.0858 -0.5344  0.0343
 1895CLF     CX 1895   0.992   1.310   0.854 -0.1029 -0.0675  0.2273
 1896CLF     CX 1896   2.516   0.334   0.558 -0.1888  0.2553 -0.0531
 1897CLF     CX 1897   4.145   6.425   3.537 -0.1189 -0.2461 -0.3615
 1898CLF     CX 1898   2.382   2.912   5.971 -0.2830 -0.0552  0.1907
 1899CLF     CX 1899   0.918   1.655   3.875 -0.1295 -0.2318  0.1443
 1900CLF     CX 1900   1.715   1.202   4.079 -0.0523  0.0578  0.4613
 1901CLF     CX 1901   3.999   2.508   4.525 -0.1779 -0.0556  0.1717
 1902CLF     CX 1902   1.098   5.121   1.687  0.0700 -0.0661 -0.0713
 1903CLF     CX 1903   0.852   2.921   0.323 -0.3994  0.1719  0.0207
 1904CLF     CX 1904   2.688   4.587   4.715  0.1138  0.0631 -0.1450
 1905CLF     CX 1905   3.433   2.654   2.183  0.1263  0.2966 -0.0368
 1906CLF     CX 1906   2.032   5.245   0.488  0.0738 -0.1173  0.1256
 1907CLF     CX 1907   6.070   3.461   2.392 -0.1042 -0.3186 -0.0816
 1908CLF     CX 1908   0.584   0.948   5.065  0.0179 -0.1166 -0.0192
 1909CLF     CX 1909   3.473   4.594   3.961  0.0972 -0.0651  0.0661
 1910CLF     CX 1910   1.760   4.269   0.246  0.1376  0.0530  0.0130
 1911CLF     CX 1911   0.786   0.672   3.985 -0.1954 -0.1018 -0.0674
 1912CLF     CX 1912   5.679   5.928   1.289 -0.0251  0.2144  0.2485
 1913CLF     CX 1913   1.459   2.338   2.209 -0.0612  0.2823  0.0323
 1914CLF     CX 1914   2.933   6.291   5.912  0.2011  0.1114  0.0889
 1915CLF     CX 1915   3.346   2.424   6.433 -0.0604  0.0244 -0.0372
 1916CLF     CX 1916   2.981   2.703   3.336  0.0115 -0.4448 -0.2870
 1917CLF     CX 1917   5.348   0.279   3.956  0.2806  0.1823  0.0804
 1918CLF     CX 1918   5.457   4.689   4.263 -0.2517  0.2462  0.0877
 1919CLF     CX 1919   3.700   3.670   1.106 -0.0046 -0.0156 -0.0201
 1920CLF     CX 1920   6.589   5.452   1.551 -0.1232 -0.0532 -0.1431
 1921CLF     CX 1921   4.108   5.977   5.809  0.0162 -0.0639 -0.1342
 1922CLF     CX 1922   4.808   2.898   6.471  0.2073 -0.0124 -0.1688
 1923CLF     CX 1923   0.899   5.434   2.643 -0.0626 -0.0410 -0.0030
 1924CLF     CX 1924   0.612   5.350   6.543 -0.0787 -0.1469 -0.0603
 1925CLF     CX 1925   5.766   2.425   6.598  0.2383  0.1237 -0.2342
 1926CLF     CX 1926   3.328   6.288   4.591 -0.1375  0.0631  0.2546
 1927CLF     CX 1927   2.331   1.003   4.965  0.2540 -0.0620  0.1615
 1928CLF     CX 1928   4.098   5.217   5.067  0.2360 -0.0410  0.0417
 1929CLF     CX 1929   4.570   1.880   2.306 -0.3679 -0.3482 -0.2665
 1930CLF     CX 1930   6.498   5.949   3.087 -0.2952 -0.1811  0.4237
 1931CLF     CX 1931   4.420   3.737   5.291 -0.0353  0.0085 -0.0314
 1932CLF     CX 1932   0.640   5.141   0.393  0.4854 -0.2934 -0.0042
 1933CLF     CX 1933   0.713   2.086   0.485  0.1098 -0.0928  0.1148
 1934CLF     CX 1934   3.678   2.279   2.863  0.1813  0.3248  0.2730
 1935CLF     CX 1935   1.553   3.622   1.080  0.2250  0.0705  0.0430
 1936CLF     CX 1936   1.700   4.457   5.037  0.1916 -0.1448  0.0578
 1937CLF     CX 1937   3.528   1.790   2.343 -0.0092  0.0332 -0.1060
 1938CLF     CX 1938   1.133   6.029   1.088  0.2102 -0.0347 -0.1785
 1939CLF     CX 1939   3.978   0.036   2.922 -0.0986 -0.0045 -0.0901
 1940CLF     CX 1940   3.171   1.418   3.270 -0.2902 -0.0733 -0.0886
 1941CLF     CX 1941   0.463   1.674   2.618  0.0103  0.3721  0.1528
 1942CLF     CX 1942   2.194   1.326   6.092 -0.1418  0.0572 -0.0918
 1943CLF     CX 1943   1.540   4.614   5.539 -0.4070 -0.1025  0.2849
 1944CLF     CX 1944   6.475   0.070   1.072 -0.2177  0.0583 -0.0687
 1945CLF     CX 1945   6.323   1.392   3.395  0.0224 -0.2049 -0.1111
 1946CLF     CX 1946   3.359   6.431   2.910  0.1627  0.1227 -0.0460
 1947CLF     CX 1947   1.028   5.536   5.963  0.1669  0.0324  0.0474
 1948CLF     CX 1948   6.165   3.619   6.128  0.0605  0.0496  0.1037
 1949CLF     CX 1949   4.424   4.077   3.854 -0.2283  0.0024  0.2265
 1950CLF     CX 1950   6.600   3.597   5.769  0.2444  0.0779 -0.1832
 1951CLF     CX 1951   1.681   0.652   0.706  0.2418 -0.0291  0.3622
 1952CLF     CX 1952   3.815   5.017   0.943 -0.4167 -0.3475  0.0623
 1953CLF     CX 1953   3.764   5.375   3.991 -0.2923 -0.0871 -0.1445
 1954CLF     CX 1954   0.158   4.409   6.451 -0.2169 -0.0514 -0.0406
 1955CLF     CX 1955   3.669   0.035   5.584  0.1728  0.0001 -0.0254
 1956CLF     CX 1956   2.454   2.849   1.795 -0.1837 -0.0249  0.1047
 1957CLF     CX 1957   1.771   0.122   0.624 -0.0951  0.1096  0.2432
 1958CLF     CX 1958   2.232   4.496   0.132 -0.1034  0.1976 -0.0774
 1959CLF     CX 1959   0.644   2.619   4.502  0.1260  0.0598 -0.2206
 1960CLF     CX 1960   2.884   4.303   6.030 -0.0265  0.2349  0.0008
 1961CLF     CX 1961   3.455   3.961   2.973 -0.0596 -0.4198  0.1104
 1962CLF     CX 1962   2.675   3.548   2.430 -0.0590  0.0508  0.2596
 1963CLF     CX 1963   3.058   0.481   6.575 -0.1033  0.1146  0.0820
 1964CLF     CX 1964   6.530   3.912   6.396  0.1982 -0.1212 -0.0563
 1965CLF     CX 1965   4.907   0.143   2.178 -0.1292  0.1050 -0.1197
 1966CLF     CX 1966   6.018   6.271   2.485  0.2600  0.1144  0.4646
 1967CLF     CX 1967   1.957   2.005   2.423 -0.2765  0.1827 -0.0869
 1968CLF     CX 1968   1.162   5.072   6.213  0.1056  0.3132 -0.1461
 1969CLF     CX 1969   0.935   0.996   3.278  0.1634 -0.0284  0.1792
 1970CLF     CX 1970   1.565   1.899   2.817 -0.1213  0.0812 -0.0984
 1971CLF     CX 1971   5.007   5.367   3.100  0.2130  0.0126  0.2226
 1972CLF     CX 1972   4.226   5.834   4.589  0.0694 -0.3761 -0.1402
 1973CLF     CX 1973   1.896   4.039   4.520  0.0982  0.0905  0.3344
 1974CLF     CX 1974   5.810   1.596   3.167 -0.0610  0.2503 -0.1859
 1975CLF     CX 1975   5.055   3.319   6.442  0.7322  0.2742 -0.4871
 1976CLF     CX 1976   2.746   5.206   1.569  0.0991  0.1287 -0.0191
 1977CLF     CX 1977   1.464   2.991   1.388  0.1521 -0.0131 -0.1324
 1978CLF     CX 1978   2.744   0.917   4.555  0.1092  0.0725 -0.1593
 1979CLF     CX 1979   0.199   4.569   0.880  0.4050  0.0017  0.1777
 1980CLF     CX 1980   1.394   0.144   4.497 -0.1816 -0.1024 -0.2204
 1981CLF     CX 1981   0.343   1.240   0.304 -0.3375 -0.0863  0.0883
 1982CLF     CX 1982   1.078   0.662   0.059  0.0425 -0.0054 -0.3375
 1983CLF     CX 1983   2.876   3.156   4.750  0.0781  0.0266 -0.2802
 1984CLF     CX 1984   0.311   5.544   4.472  0.2131  0.3722 -0.1467
 1985CLF     CX 1985   4.086   1.050   2.114 -0.2166 -0.1361 -0.3283
 1986CLF     CX 1986   5.373   3.855   5.019 -0.0546  0.0169 -0.1876
 1987CLF     CX 1987   2.712   4.315   1.800  0.0200 -0.0972  0.0482
 1988CLF     CX 1988   2.133   3.191   3.598  0.0606 -0.2182  0.1050
 1989CLF     CX 1989   4.013   1.182   0.506  0.1612 -0.1837  0.0639
 1990CLF     CX 1990   6.069   6.435   6.231 -0.0399 -0.3383  0.0148
 1991CLF     CX 1991   2.573   0.548   6.557  0.1302  0.1191 -0.0093
 1992CLF     CX 1992   5.371   3.040   3.221  0.1846 -0.1824 -0.1039
 1993CLF     CX 1993   2.349   3.250   0.624  0.0528 -0.0091  0.0963
 1994CLF     CX 1994   0.008   0.338   4.008  0.1277 -0.1053 -0.1683
 1995CLF     CX 1995   1.844   0.609   5.890  0.0411 -0.2725  0.0145
 1996CLF     CX 1996   3.322   5.637   1.426  0.1890 -0.0480  0.0509
 1997CLF     CX 1997   1.371   5.107   5.811  0.1091  0.1134 -0.1451
 1998CLF     CX 1998   1.045   1.615   6.299 -0.1144 -0.2753 -0.0064
 1999CLF     CX 1999   3.178   6.382   1.546  0.1512 -0.0934  0.0533
 2000CLF     CX 2000   5.112   3.821   5.444  0.1063 -0.1799  0.0267
 2001CLF     CX 2001   3.903   6.191   3.078  0.0188  0.0304 -0.1025
 2002CLF     CX 2002   4.614   3.346   1.276  0.0190 -0.1967  0.3509
 2003CLF     CX 2003   5.483   0.756   2.020 -0.0553  0.1404 -0.1095
 2004CLF     CX 2004   5.374   2.259   3.924 -0.0856 -0.1207  0.0403
 2005CLF     CX 2005   5.597   6.492   1.182 -0.1120 -0.1697 -0.0478
 2006CLF     CX 2006   4.394   2.839   0.935 -0.1308  0.2450  0.0290
 2007CLF     CX 2007   4.913   0.531   2.889 -0.1111 -0.3975  0.1477
 2008CLF     CX 2008   6.362   4.744   0.968  0.2255 -0.4274  0.1876
 2009CLF     CX 2009   4.617   2.109   2.829  0.0981  0.0105  0.0882
 2010CLF     CX 2010   1.497   1.539   5.969  0.3203  0.1858  0.0513
 2011CLF     CX 2011   6.539   1.554   2.694 -0.1574  0.1362 -0.0435
 2012CLF     CX 2012   4.114   2.798   5.945 -0.0345 -0.0005 -0.1648
 2013CLF     CX 2013   0.377   0.355   4.384  0.2804  0.1703 -0.3219
 2014CLF     CX 2014   4.320   0.841   1.676  0.2841  0.0384  0.1084
 2015CLF     CX 2015   5.980   0.577   1.899  0.1291  0.1212  0.3093
 2016CLF     CX 2016   0.331   1.756   3.970 -0.0984 -0.1596  0.3284
 2017CLF     CX 2017   1.640   6.560   3.648  0.0545 -0.0438 -0.2186
 2018CLF     CX 2018   6.108   2.261   0.689  0.0362  0.1638  0.1741
 2019CLF     CX 2019   1.468   6.141   6.512  0.1482  0.0626  0.1882
 2020CLF     CX 2020   3.499   5.141   3.614 -0.0434 -0.1514  0.2559
 2021CLF     CX 2021   1.852   4.158   3.921  0.4687 -0.0091 -0.2847
 2022CLF     CX 2022   1.349   2.669   2.653 -0.0887 -0.0115  0.1738
 2023CLF     CX 2023   6.180   1.556   5.418 -0.2054  0.1861  0.0032
 2024CLF     CX 2024   4.432   3.018   1.607 -0.1048 -0.0122  0.0735
 2025CLF     CX 2025   4.199   1.600   2.277  0.0923  0.4470 -0.3205
 2026CLF     CX 2026   2.657   3.731   6.489  0.2677 -0.0726 -0.0843
 2027CLF     CX 2027   6.372   4.222   0.128 -0.0344 -0.0774 -0.0553
 2028CLF     CX 2028   1.056   1.975   1.028  0.1865 -0.4274  0.1416
 2029CLF     CX 2029   5.182   6.378   2.567 -0.2804  0.0009  0.0677
 2030CLF     CX 2030   4.160   5.403   5.954 -0.0858  0.1134 -0.0292
 2031CLF     CX 2031   2.516   3.034   5.449  0.0055  0.1403 -0.1419
 2032CLF     CX 2032   0.657   6.065   0.925  0.0036 -0.1937 -0.1946
 2033CLF     CX 2033   4.712   0.430   5.857 -0.1576  0.0912 -0.3236
 2034CLF     CX 2034   1.536   1.975   3.767  0.4449 -0.0019  0.2560
 2035CLF     CX 2035   2.302   0.706   3.603 -0.1449 -0.0864 -0.1588
 2036CLF     CX 2036   5.018   5.425   6.419 -0.0317  0.0843 -0.0489
 2037CLF     CX 2037   3.115   2.676   0.249  0.2037  0.2288  0.0623
 2038CLF     CX 2038   5.295   5.769   1.583 -0.2510 -0.1206  0.0789
 2039CLF     CX 2039   6.622   0.980   3.339  0.0614 -0.0650 -0.1014
 2040CLF     CX 2040   4.902   2.202   4.494  0.2146  0.0443  0.2966
 2041CLF     CX 2041   6.574   3.237   4.527  0.0865 -0.0367  0.0137
 2042CLF     CX 2042   1.072   6.621   2.920  0.2225 -0.2228  0.1509
 2043CLF     CX 2043   3.896   3.052   0.324  0.0410  0.2467  0.3052
 2044CLF     CX 2044   5.827   2.524   5.034  0.1267 -0.0766 -0.0308
 2045CLF     CX 2045   0.156   4.118   5.987 -0.0946 -0.2104  0.0061
 2046CLF     CX 2046   1.665   5.210   0.823  0.0872 -0.1323  0.1204
 2047CLF     CX 2047   1.070   0.177   4.872  0.0925 -0.0145 -0.0931
 2048CLF     CX 2048   5.190   1.089   6.247  0.0369  0.0443 -0.1661
 2049CLF     CX 2049   5.718   3.147   2.835 -0.0218 -0.1968 -0.0257
 2050CLF     CX 2050   6.580   4.975   4.999 -0.0941  0.0974 -0.0159
 2051CLF     CX 2051   4.628   0.595   3.337 -0.0129 -0.2752  0.0192
 2052CLF     CX 2052   5.194   0.167   5.048 -0.1959 -0.2138 -0.1991
 2053CLF     CX 2053   6.554   5.829   2.547  0.0131 -0.2080  0.2417
 2054CLF     CX 2054   6.010   5.861   2.841  0.0670 -0.2412 -0.0973
 2055CLF     CX 2055   0.677   3.851   1.493  0.0508 -0.0588 -0.2533
 2056CLF     CX 2056   5.434   2.290   5.437 -0.3540  0.1080  0.3467
 2057CLF     CX 2057   2.428   1.048   6.386 -0.0038 -0.0307 -0.3743
 2058CLF     CX 2058   5.909   0.804   5.670 -0.1566 -0.0647  0.4732
 2059CLF     CX 2059   5.960   1.072   1.446  0.0614 -0.0075  0.2446
 2060CLF     CX 2060   3.078   2.644   2.497  0.0476  0.1365 -0.1032
 2061CLF     CX 2061   5.176   1.938   5.043 -0.0688  0.0502 -0.3539
 2062CLF     CX 2062   2.040   3.226   4.891  0.1162 -0.1423 -0.1961
 2063CLF     CX 2063   1.555   0.578   1.334 -0.0268 -0.2277 -0.0140
 2064CLF     CX 2064   5.691   2.504   4.466  0.1335  0.2897 -0.1180
 2065CLF     CX 2065   2.788   2.909   2.857  0.3519  0.2532  0.2021
 2066CLF     CX 2066   0.858   3.011   5.738 -0.0851  0.1355  0.0266
 2067CLF     CX 2067   3.610   4.067   3.456  0.1557 -0.1326  0.2989
 2068CLF     CX 2068   3.460   1.021   4.072 -0.0207 -0.1125  0.0277
 2069CLF     CX 2069   1.711   5.447   5.673 -0.4637  0.0552  0.1357
 2070CLF     CX 2070   5.292   0.371   3.256 -0.0353 -0.1998  0.1175
 2071CLF     CX 2071   6.219   2.618   4.650 -0.0626 -0.0709 -0.0411
 2072CLF     CX 2072   6.354   3.976   1.246 -0.2677  0.1476 -0.2013
 2073CLF     CX 2073   2.903   4.324   5.056  0.0757  0.0142  0.1378
 2074CLF     CX 2074   5.262   1.718   5.563 -0.0694 -0.0032  0.1467
 2075CLF     CX 2075   5.663   1.285   1.014 -0.3248  0.2807  0.0929
 2076CLF     CX 2076   0.686   3.439   3.981 -0.1070  0.1420  0.0001
 2077CLF     CX 2077   6.429   3.017   6.332 -0.0524 -0.0957 -0.0695
 2078CLF     CX 2078   2.836   4.034   0.826 -0.0431  0.0569  0.1922
 2079CLF     CX 2079   1.250   2.530   5.205 -0.0858 -0.0856  0.1428
 2080CLF     CX 2080   1.832   1.409   3.230  0.1875 -0.1152 -0.0592
 2081CLF     CX 2081   1.046   6.206   2.001 -0.0976 -0.1860  0.0958
 2082CLF     CX 2082   3.628   1.857   3.398  0.4193  0.0657 -0.0492
 2083CLF     CX 2083   4.087   2.614   0.154 -0.3348 -0.2021  0.1466
 2084CLF     CX 2084   0.988   4.589   3.380  0.1098 -0.1003 -0.0368
 2085CLF     CX 2085   5.043   6.013   5.126 -0.1288  0.0339 -0.0648
 2086CLF     CX 2086   1.053   5.648   6.430  0.0957 -0.2024  0.0839
 2087CLF     CX 2087   4.213   0.363   0.173  0.1537  0.1312 -0.1694
 2088CLF     CX 2088   6.178   2.759   1.759 -0.1194  0.1123  0.0175
 2089CLF     CX 2089   2.812   6.158   6.399  0.1512  0.0430 -0.0452
 2090CLF     CX 2090   6.506   2.891   1.425  0.0469 -0.0881 -0.1316
 2091CLF     CX 2091   4.049   4.850   6.598  0.0616  0.2268 -0.2072
 2092CLF     CX 2092   3.982   3.096   1.165 -0.1472 -0.2072 -0.1784
 2093CLF     CX 2093   0.893   1.120   6.454 -0.1301 -0.0516  0.2130
 2094CLF     CX 2094   2.417   5.833   5.088  0.2220  0.1811 -0.1813
 2095CLF     CX 2095   1.069   0.508   2.455  0.3842  0.1254 -0.2580
 2096CLF     CX 2096   0.905   4.195   4.261  0.0820 -0.1329 -0.1866
 2097CLF     CX 2097   3.725   6.561   4.460  0.4465  0.0566 -0.1133
 2098CLF     CX 2098   6.265   3.271   5.590 -0.1830 -0.0105  0.0262
 2099CLF     CX 2099   3.760   4.751   1.590 -0.0987  0.0746 -0.2742
 2100CLF     CX 2100   0.335   2.213   5.499 -0.1538 -0.4587 -0.0054
 2101CLF     CX 2101   4.531   4.779   0.209  0.5105 -0.1965  0.3121
 2102CLF     CX 2102   3.107   4.506   6.579  0.1854 -0.0581 -0.0509
 2103CLF     CX 2103   5.940   1.415   2.681 -0.0780  0.0116  0.1493
 2104CLF     CX 2104   0.795   4.437   3.833  0.0805 -0.1468  0.0989
 2105CLF     CX 2105   5.023   6.412   4.618 -0.0592  0.3544 -0.0845
 2106CLF     CX 2106   5.430   3.666   0.926 -0.0157 -0.0045  0.2105
 2107CLF     CX 2107   2.906   3.064   3.692 -0.2127 -0.1569 -0.1600
 2108CLF     CX 2108   0.920   3.121   4.511 -0.1968 -0.4455 -0.0089
 2109CLF     CX 2109   0.731   2.116   4.145  0.0175  0.1594 -0.0563
 2110CLF     CX 2110   2.212   5.348   2.273 -0.0612  0.1066  0.1856
 2111CLF     CX 2111   4.055   4.491   3.874 -0.1312 -0.0634 -0.1201
 2112CLF     CX 2112   1.986   2.048   5.631 -0.1276  0.0606 -0.2631
 2113CLF     CX 2113   1.919   4.215   2.386 -0.0510 -0.0134 -0.5848
 2114CLF     CX 2114   6.409   0.327   5.942  0.1725 -0.1151 -0.0832
 2115CLF     CX 2115   4.499   2.844   4.876  0.0700  0.2017 -0.2114
 2116CLF     CX 2116   3.093   6.508   4.071 -0.2331  0.0676  0.2678
 2117CLF     CX 2117   2.464   0.184   4.480  0.0149 -0.2193 -0.0256
 2118CLF     CX 2118   2.494   2.265   4.694  0.1737  0.1372 -0.1166
 2119CLF     CX 2119   0.243   3.685   3.864  0.3128  0.3263  0.1202
 2120CLF     CX 2120   4.445   2.214   4.292 -0.0567  0.0527  0.3059
 2121CLF     CX 2121   0.536   0.866   0.067  0.0020 -0.0244 -0.1497
 2122CLF     CX 2122   1.525   5.433   6.235 -0.2605  0.1533 -0.1796
 2123CLF     CX 2123   0.351   3.894   0.515  0.5227 -0.2808  0.1720
 2124CLF     CX 2124   1.830   4.475   3.461  0.1625  0.2278  0.1592
 2125CLF     CX 2125   3.674   2.883   1.786 -0.1634  0.1093  0.0112
 2126CLF     CX 2126   5.364   6.498   4.252 -0.2687  0.2591  0.0379
 2127CLF     CX 2127   1.626   2.482   1.534  0.0452  0.1033 -0.0582
 2128CLF     CX 2128   6.412   1.311   0.399 -0.3719  0.1102  0.5819
 2129CLF     CX 2129   4.292   2.964   6.398 -0.1301  0.1181  0.1630
 2130CLF     CX 2130   4.901   2.123   1.980 -0.0674 -0.5683  0.2517
 2131CLF     CX 2131   0.379   6.554   4.102  0.1300 -0.0957  0.4045
 2132CLF     CX 2132   5.614   0.411   6.560  0.2391 -0.0197 -0.0057
 2133CLF     CX 2133   0.000   4.307   2.613 -0.0053 -0.3482 -0.0447
 2134CLF     CX 2134   2.340   3.806   2.038 -0.1293  0.0078 -0.0767
 2135CLF     CX 2135   6.191   2.007   6.316 -0.0638  0.2451 -0.1756
 2136CLF     CX 2136   5.100   4.281   4.467 -0.4568 -0.0313 -0.0382
 2137CLF     CX 2137   4.959   4.833   4.543  0.1904  0.1865 -0.1233
 2138CLF     CX 2138   4.146   5.414   4.368 -0.2227  0.0543  0.2985
 2139CLF     CX 2139   5.426   5.044   2.996  0.0188 -0.0950  0.0530
 2140CLF     CX 2140   6.049   1.890   2.740 -0.0997 -0.2927 -0.3358
 2141CLF     CX 2141   2.162   5.174   1.821 -0.1101  0.2430 -0.3571
 2142CLF     CX 2142   6.167   1.638   2.297  0.1148  0.0565 -0.0340
 2143CLF     CX 2143   1.393   4.346   4.328  0.0365  0.0131  0.0922
 2144CLF     CX 2144   5.326   3.870   1.731  0.2796 -0.1045 -0.1013
 2145CLF     CX 2145   1.006   2.535   5.946  0.1527 -0.3231 -0.0183
 2146CLF     CX 2146   0.306   2.419   2.142 -0.2204 -0.1754  0.1191
 2147CLF     CX 2147   2.992   6.138   2.666  0.1525  0.1008  0.2574
 2148CLF     CX 2148   0.201   1.091   1.625  0.1244 -0.1486 -0.0139
 2149CLF     CX 2149   5.167   4.510   0.814 -0.2109  0.0692  0.0376
 2150CLF     CX 2150   5.072   2.336   3.535  0.0166  0.0166  0.0998
 2151CLF     CX 2151   2.311   4.724   6.248  0.0680  0.1142  0.3866
 2152CLF     CX 2152   2.632   3.460   1.079  0.0206  0.0139  0.1052
 2153CLF     CX 2153   1.717   3.827   5.002 -0.2113  0.2962  0.1694
 2154CLF     CX 2154   6.271   3.816   4.306 -0.0876 -0.1427  0.1575
 2155CLF     CX 2155   4.641   0.473   2.478  0.1178  0.2242 -0.1352
 2156CLF     CX 2156   1.044   1.166   1.729  0.0445  0.0175  0.0265
 2157CLF     CX 2157   2.037   0.600   1.073  0.1807  0.1288  0.2909
 2158CLF     CX 2158   4.562   4.459   4.661 -0.1241 -0.1649  0.2327
 2159CLF     CX 2159   5.726   0.312   3.624  0.0936  0.0708  0.1804
 2160CLF     CX 2160   0.012   4.111   4.004 -0.2938  0.2584 -0.0607
 2161CLF     CX 2161   1.907   3.085   6.023 -0.1492 -0.1652  0.1189
 2162CLF     CX 2162   1.197   5.864   4.107  0.2770  0.1822 -0.1824
 2163CLF     CX 2163   6.204   1.486   1.142 -0.4052 -0.0216  0.0715
 2164CLF     CX 2164   0.325   4.657   1.354 -0.0047  0.0928 -0.3068
 2165CLF     CX 2165   2.070   3.749   1.083  0.1722 -0.0692 -0.0956
 2166CLF     CX 2166   0.617   6.009   1.920 -0.0368  0.2455  0.1355
 2167CLF     CX 2167   3.957   4.999   3.740 -0.0677  0.1784 -0.3490
 2168CLF     CX 2168   0.074   3.618   1.429 -0.0874  0.1085  0.1764
 2169CLF     CX 2169   5.668   0.435   5.061  0.1202  0.0112 -0.1221
 2170CLF     CX 2170   2.933   3.481   2.028 -0.3371 -0.1516  0.0248
 2171CLF     CX 2171   0.136   2.672   4.623 -0.1033  0.2214 -0.0173
 2172CLF     CX 2172   0.456   5.789   6.264 -0.2697 -0.0956 -0.1594
 2173CLF     CX 2173   5.298   6.092   5.963 -0.0002  0.0644  0.0803
 2174CLF     CX 2174   2.589   2.826   4.368  0.0781 -0.0836  0.1445
 2175CLF     CX 2175   2.197   0.055   3.543  0.2244  0.2480 -0.0333
 2176CLF     CX 2176   0.226   0.009   0.125  0.0684  0.1253  0.0438
 2177CLF     CX 2177   2.515   1.664   5.791  0.3651  0.1148 -0.0121
 2178CLF     CX 2178   6.191   2.975   4.301  0.3192  0.2759 -0.1285
 2179CLF     CX 2179   1.974   0.410   5.448 -0.1799 -0.0753  0.1328
 2180CLF     CX 2180   6.410   5.597   6.135 -0.1669 -0.0311  0.2639
 2181CLF     CX 2181   5.253   2.680   2.731  0.1129 -0.0765  0.1492
 2182CLF     CX 2182   2.382   2.397   5.570  0.0177 -0.0949  0.2204
 2183CLF     CX 2183   1.079   1.803   5.808 -0.4333  0.0197 -0.3757
 2184CLF     CX 2184   1.803   1.166   1.370 -0.0794  0.1935  0.2312
 2185CLF     CX 2185   4.145   1.666   2.790  0.4485 -0.1141  0.1517
 2186CLF     CX 2186   5.372   2.126   2.144 -0.3088  0.1127 -0.3037
 2187CLF     CX 2187   5.808   4.743   2.792  0.2592 -0.1419 -0.0831
 2188CLF     CX 2188   1.233   2.195   3.268  0.2300 -0.1353  0.0646
 2189CLF     CX 2189   5.797   0.953   5.005  0.0059 -0.1879  0.1054
 2190CLF     CX 2190   0.816   6.618   1.089  0.1616  0.1728 -0.1247
 2191CLF     CX 2191   5.243   3.229   1.079 -0.4174  0.2066  0.3331
 2192CLF     CX 2192   5.695   0.665   1.495  0.0875 -0.4023 -0.1452
 2193CLF     CX 2193   6.334   2.450   5.762 -0.1195  0.0179 -0.2768
 2194CLF     CX 2194   1.666   2.404   0.204 -0.1097  0.1942  0.0987
 2195CLF     CX 2195   1.012   5.552   0.323  0.1753 -0.0161 -0.0937
 2196CLF     CX 2196   5.797   3.818   0.428 -0.0718  0.1154  0.1548
 2197CLF     CX 2197   0.390   6.073   3.952  0.4176  0.2275  0.2537
   6.62957   6.62957   6.62957
