;;
;; Generated by CHARMM-GUI (http://www.charmm-gui.org) v1.7
;;
;; psf2itp_mol.py
;;
;; Correspondance:
;; jul316@lehigh.edu or wonpil@lehigh.edu
;;
;; GROMACS topology file for AGLC
;;


[ moleculetype ]
; name	nrexcl
AGLC	     3

[ atoms ]
; nr	type	resnr	residu	atom	cgnr	charge	mass
     1     CC3162      1     AGLC     C1      1      0.340    12.0110   ; qtot  0.340
     2       HCA1      1     AGLC     H1      2      0.090     1.0080   ; qtot  0.430
     3      OC311      1     AGLC     O1      3     -0.650    15.9994   ; qtot -0.220
     4       HCP1      1     AGLC    HO1      4      0.420     1.0080   ; qtot  0.200
     5     CC3163      1     AGLC     C5      5      0.110    12.0110   ; qtot  0.310
     6       HCA1      1     AGLC     H5      6      0.090     1.0080   ; qtot  0.400
     7     OC3C61      1     AGLC     O5      7     -0.400    15.9994   ; qtot  0.000
     8     CC3161      1     AGLC     C2      8      0.140    12.0110   ; qtot  0.140
     9       HCA1      1     AGLC     H2      9      0.090     1.0080   ; qtot  0.230
    10      OC311      1     AGLC     O2     10     -0.650    15.9994   ; qtot -0.420
    11       HCP1      1     AGLC    HO2     11      0.420     1.0080   ; qtot -0.000
    12     CC3161      1     AGLC     C3     12      0.140    12.0110   ; qtot  0.140
    13       HCA1      1     AGLC     H3     13      0.090     1.0080   ; qtot  0.230
    14      OC311      1     AGLC     O3     14     -0.650    15.9994   ; qtot -0.420
    15       HCP1      1     AGLC    HO3     15      0.420     1.0080   ; qtot -0.000
    16     CC3161      1     AGLC     C4     16      0.140    12.0110   ; qtot  0.140
    17       HCA1      1     AGLC     H4     17      0.090     1.0080   ; qtot  0.230
    18      OC311      1     AGLC     O4     18     -0.650    15.9994   ; qtot -0.420
    19       HCP1      1     AGLC    HO4     19      0.420     1.0080   ; qtot -0.000
    20      CC321      1     AGLC     C6     20      0.050    12.0110   ; qtot  0.050
    21       HCA2      1     AGLC    H61     21      0.090     1.0080   ; qtot  0.140
    22       HCA2      1     AGLC    H62     22      0.090     1.0080   ; qtot  0.230
    23      OC311      1     AGLC     O6     23     -0.650    15.9994   ; qtot -0.420
    24       HCP1      1     AGLC    HO6     24      0.420     1.0080   ; qtot -0.000

[ bonds ]
; ai	aj	funct	b0	Kb
    1     2     1
    1     3     1
    1     7     1
    1     8     1
    3     4     1
    5     6     1
    5     7     1
    5    16     1
    5    20     1
    8     9     1
    8    10     1
    8    12     1
   10    11     1
   12    13     1
   12    14     1
   12    16     1
   14    15     1
   16    17     1
   16    18     1
   18    19     1
   20    21     1
   20    22     1
   20    23     1
   23    24     1

[ pairs ]
; ai	aj	funct	c6	c12
    1     6     1 
    1    11     1 
    1    13     1 
    1    14     1 
    1    16     1 
    1    20     1 
    2     4     1 
    2     5     1 
    2     9     1 
    2    10     1 
    2    12     1 
    3     5     1 
    3     9     1 
    3    10     1 
    3    12     1 
    4     7     1 
    4     8     1 
    5     8     1 
    5    13     1 
    5    14     1 
    5    19     1 
    5    24     1 
    6    12     1 
    6    17     1 
    6    18     1 
    6    21     1 
    6    22     1 
    6    23     1 
    7     9     1 
    7    10     1 
    7    12     1 
    7    17     1 
    7    18     1 
    7    21     1 
    7    22     1 
    7    23     1 
    8    15     1 
    8    17     1 
    8    18     1 
    9    11     1 
    9    13     1 
    9    14     1 
    9    16     1 
   10    13     1 
   10    14     1 
   10    16     1 
   11    12     1 
   12    19     1 
   12    20     1 
   13    15     1 
   13    17     1 
   13    18     1 
   14    17     1 
   14    18     1 
   15    16     1 
   16    21     1 
   16    22     1 
   16    23     1 
   17    19     1 
   17    20     1 
   18    20     1 
   21    24     1 
   22    24     1 

[ angles ] 
; ai	aj	ak	funct	th0	cth	S0	Kub
    2     1     3     5
    2     1     7     5
    2     1     8     5
    3     1     7     5
    3     1     8     5
    7     1     8     5
    1     3     4     5
    6     5     7     5
    6     5    16     5
    6     5    20     5
    7     5    16     5
    7     5    20     5
   16     5    20     5
    1     7     5     5
    1     8     9     5
    1     8    10     5
    1     8    12     5
    9     8    10     5
    9     8    12     5
   10     8    12     5
    8    10    11     5
    8    12    13     5
    8    12    14     5
    8    12    16     5
   13    12    14     5
   13    12    16     5
   14    12    16     5
   12    14    15     5
    5    16    12     5
    5    16    17     5
    5    16    18     5
   12    16    17     5
   12    16    18     5
   17    16    18     5
   16    18    19     5
    5    20    21     5
    5    20    22     5
    5    20    23     5
   21    20    22     5
   21    20    23     5
   22    20    23     5
   20    23    24     5

[ dihedrals ]
; ai	aj	ak	al	funct	phi0	cp	mult
    2     1     3     4     9
    2     1     7     5     9
    3     1     7     5     9
    2     1     8     9     9
    2     1     8    10     9
    2     1     8    12     9
    3     1     8     9     9
    3     1     8    10     9
    3     1     8    12     9
    7     1     8     9     9
    7     1     8    10     9
    7     1     8    12     9
    4     3     1     7     9
    4     3     1     8     9
    6     5    16    12     9
    6     5    16    17     9
    6     5    16    18     9
    7     5    16    12     9
    7     5    16    17     9
    7     5    16    18     9
    6     5    20    21     9
    6     5    20    22     9
    6     5    20    23     9
    7     5    20    21     9
    7     5    20    22     9
    7     5    20    23     9
   16     5    20    21     9
   16     5    20    22     9
   16     5    20    23     9
    5     7     1     8     9
    1     7     5     6     9
    1     7     5    16     9
    1     7     5    20     9
    1     8    10    11     9
    9     8    10    11     9
    1     8    12    13     9
    1     8    12    14     9
    1     8    12    16     9
    9     8    12    13     9
    9     8    12    14     9
    9     8    12    16     9
   10     8    12    13     9
   10     8    12    14     9
   10     8    12    16     9
   11    10     8    12     9
    8    12    14    15     9
   13    12    14    15     9
    8    12    16    17     9
    8    12    16    18     9
   13    12    16    17     9
   13    12    16    18     9
   14    12    16    17     9
   14    12    16    18     9
   15    14    12    16     9
   12    16     5    20     9
   17    16     5    20     9
   18    16     5    20     9
    5    16    12     8     9
    5    16    12    13     9
    5    16    12    14     9
    5    16    18    19     9
   12    16    18    19     9
   17    16    18    19     9
    5    20    23    24     9
   21    20    23    24     9
   22    20    23    24     9
