;;
;; Generated by CHARMM-GUI (http://www.charmm-gui.org) v1.7
;;
;; psf2itp_mol.py
;;
;; Correspondance:
;; jul316@lehigh.edu or wonpil@lehigh.edu
;;
;; GROMACS topology file for TMCH
;;


[ moleculetype ]
; name	nrexcl
TMCH	     3

[ atoms ]
; nr	type	resnr	residu	atom	cgnr	charge	mass
     1         CT      1     TMCH     C1      1      0.000    12.0110   ; qtot  0.000
     2        CT2      1     TMCH     C2      2     -0.180    12.0110   ; qtot -0.180
     3        HA2      1     TMCH    H21      3      0.090     1.0080   ; qtot -0.090
     4        HA2      1     TMCH    H22      4      0.090     1.0080   ; qtot  0.000
     5        CT2      1     TMCH     C3      5     -0.180    12.0110   ; qtot -0.180
     6        HA2      1     TMCH    H31      6      0.090     1.0080   ; qtot -0.090
     7        HA2      1     TMCH    H32      7      0.090     1.0080   ; qtot  0.000
     8        CT2      1     TMCH     C4      8     -0.180    12.0110   ; qtot -0.180
     9        HA2      1     TMCH    H41      9      0.090     1.0080   ; qtot -0.090
    10        HA2      1     TMCH    H42     10      0.090     1.0080   ; qtot  0.000
    11       CC1A      1     TMCH     C5     11      0.000    12.0110   ; qtot  0.000
    12       CC1A      1     TMCH     C6     12      0.000    12.0110   ; qtot  0.000
    13        CT3      1     TMCH     C7     13     -0.270    12.0110   ; qtot -0.270
    14        HA3      1     TMCH    H71     14      0.090     1.0080   ; qtot -0.180
    15        HA3      1     TMCH    H72     15      0.090     1.0080   ; qtot -0.090
    16        HA3      1     TMCH    H73     16      0.090     1.0080   ; qtot -0.000
    17        CT3      1     TMCH    C16     17     -0.270    12.0110   ; qtot -0.270
    18        HA3      1     TMCH   H161     18      0.090     1.0080   ; qtot -0.180
    19        HA3      1     TMCH   H162     19      0.090     1.0080   ; qtot -0.090
    20        HA3      1     TMCH   H163     20      0.090     1.0080   ; qtot -0.000
    21        CT3      1     TMCH    C17     21     -0.270    12.0110   ; qtot -0.270
    22        HA3      1     TMCH   H171     22      0.090     1.0080   ; qtot -0.180
    23        HA3      1     TMCH   H172     23      0.090     1.0080   ; qtot -0.090
    24        HA3      1     TMCH   H173     24      0.090     1.0080   ; qtot -0.000
    25        CT3      1     TMCH    C18     25     -0.270    12.0110   ; qtot -0.270
    26        HA3      1     TMCH   H181     26      0.090     1.0080   ; qtot -0.180
    27        HA3      1     TMCH   H182     27      0.090     1.0080   ; qtot -0.090
    28        HA3      1     TMCH   H183     28      0.090     1.0080   ; qtot -0.000

[ bonds ]
; ai	aj	funct	b0	Kb
    1     2     1
    1    12     1
    1    17     1
    1    21     1
    2     3     1
    2     4     1
    2     5     1
    5     6     1
    5     7     1
    5     8     1
    8     9     1
    8    10     1
    8    11     1
   11    12     1
   11    25     1
   12    13     1
   13    14     1
   13    15     1
   13    16     1
   17    18     1
   17    19     1
   17    20     1
   21    22     1
   21    23     1
   21    24     1
   25    26     1
   25    27     1
   25    28     1

[ pairs ]
; ai	aj	funct	c6	c12
    1     6     1 
    1     7     1 
    1     8     1 
    1    14     1 
    1    15     1 
    1    16     1 
    1    25     1 
    2     9     1 
    2    10     1 
    2    11     1 
    2    13     1 
    2    18     1 
    2    19     1 
    2    20     1 
    2    22     1 
    2    23     1 
    2    24     1 
    3     6     1 
    3     7     1 
    3     8     1 
    3    12     1 
    3    17     1 
    3    21     1 
    4     6     1 
    4     7     1 
    4     8     1 
    4    12     1 
    4    17     1 
    4    21     1 
    5    12     1 
    5    17     1 
    5    21     1 
    5    25     1 
    6     9     1 
    6    10     1 
    6    11     1 
    7     9     1 
    7    10     1 
    7    11     1 
    8    13     1 
    8    26     1 
    8    27     1 
    8    28     1 
    9    12     1 
    9    25     1 
   10    12     1 
   10    25     1 
   11    14     1 
   11    15     1 
   11    16     1 
   11    17     1 
   11    21     1 
   12    18     1 
   12    19     1 
   12    20     1 
   12    22     1 
   12    23     1 
   12    24     1 
   12    26     1 
   12    27     1 
   12    28     1 
   13    17     1 
   13    21     1 
   13    25     1 
   17    22     1 
   17    23     1 
   17    24     1 
   18    21     1 
   19    21     1 
   20    21     1 

[ angles ] 
; ai	aj	ak	funct	th0	cth	S0	Kub
    2     1    12     5
    2     1    17     5
    2     1    21     5
   12     1    17     5
   12     1    21     5
   17     1    21     5
    1     2     3     5
    1     2     4     5
    1     2     5     5
    3     2     4     5
    3     2     5     5
    4     2     5     5
    2     5     6     5
    2     5     7     5
    2     5     8     5
    6     5     7     5
    6     5     8     5
    7     5     8     5
    5     8     9     5
    5     8    10     5
    5     8    11     5
    9     8    10     5
    9     8    11     5
   10     8    11     5
    8    11    12     5
    8    11    25     5
   12    11    25     5
    1    12    11     5
    1    12    13     5
   11    12    13     5
   12    13    14     5
   12    13    15     5
   12    13    16     5
   14    13    15     5
   14    13    16     5
   15    13    16     5
    1    17    18     5
    1    17    19     5
    1    17    20     5
   18    17    19     5
   18    17    20     5
   19    17    20     5
    1    21    22     5
    1    21    23     5
    1    21    24     5
   22    21    23     5
   22    21    24     5
   23    21    24     5
   11    25    26     5
   11    25    27     5
   11    25    28     5
   26    25    27     5
   26    25    28     5
   27    25    28     5

[ dihedrals ]
; ai	aj	ak	al	funct	phi0	cp	mult
    2     1    12    11     9
    2     1    12    13     9
    2     1    17    18     9
    2     1    17    19     9
    2     1    17    20     9
   12     1    17    18     9
   12     1    17    19     9
   12     1    17    20     9
    2     1    21    22     9
    2     1    21    23     9
    2     1    21    24     9
   12     1    21    22     9
   12     1    21    23     9
   12     1    21    24     9
   17     1    21    22     9
   17     1    21    23     9
   17     1    21    24     9
    3     2     1    12     9
    3     2     1    17     9
    3     2     1    21     9
    4     2     1    12     9
    4     2     1    17     9
    4     2     1    21     9
    5     2     1    12     9
    5     2     1    17     9
    5     2     1    21     9
    1     2     5     6     9
    1     2     5     7     9
    1     2     5     8     9
    3     2     5     6     9
    3     2     5     7     9
    3     2     5     8     9
    4     2     5     6     9
    4     2     5     7     9
    4     2     5     8     9
    2     5     8     9     9
    2     5     8    10     9
    2     5     8    11     9
    6     5     8     9     9
    6     5     8    10     9
    6     5     8    11     9
    7     5     8     9     9
    7     5     8    10     9
    7     5     8    11     9
    5     8    11    12     9
    5     8    11    25     9
    9     8    11    12     9
    9     8    11    25     9
   10     8    11    12     9
   10     8    11    25     9
    8    11    12    13     9
    8    11    25    26     9
    8    11    25    27     9
    8    11    25    28     9
   12    11    25    26     9
   12    11    25    27     9
   12    11    25    28     9
   11    12     1    17     9
   11    12     1    21     9
   13    12     1    17     9
   13    12     1    21     9
    1    12    11     8     9
    1    12    11    25     9
   13    12    11    25     9
    1    12    13    14     9
    1    12    13    15     9
    1    12    13    16     9
   11    12    13    14     9
   11    12    13    15     9
   11    12    13    16     9
   18    17     1    21     9
   19    17     1    21     9
   20    17     1    21     9
