;;
;; Generated by CHARMM-GUI (http://www.charmm-gui.org) v1.7
;;
;; psf2itp_mol.py
;;
;; Correspondance:
;; jul316@lehigh.edu or wonpil@lehigh.edu
;;
;; GROMACS topology file for UQ10
;;


[ moleculetype ]
; name	nrexcl
UQ10	     3

[ atoms ]
; nr	type	resnr	residu	atom	cgnr	charge	mass
     1       CTL3      1     UQ10    C31      1     -0.030    12.0110   ; qtot -0.030
     2       HAL3      1     UQ10   H31R      2      0.090     1.0080   ; qtot  0.060
     3       HAL3      1     UQ10   H31S      3      0.090     1.0080   ; qtot  0.150
     4       HAL3      1     UQ10   H31T      4      0.090     1.0080   ; qtot  0.240
     5       CTL3      1     UQ10    C32      5     -0.030    12.0110   ; qtot  0.210
     6       HAL3      1     UQ10   H32R      6      0.090     1.0080   ; qtot  0.300
     7       HAL3      1     UQ10   H32S      7      0.090     1.0080   ; qtot  0.390
     8       HAL3      1     UQ10   H32T      8      0.090     1.0080   ; qtot  0.480
     9      OG301      1     UQ10    OR1      9     -0.430    15.9994   ; qtot  0.050
    10     CG2R61      1     UQ10    CR1     10      0.190    12.0110   ; qtot  0.240
    11      OG301      1     UQ10    OR2     11     -0.430    15.9994   ; qtot -0.190
    12     CG2R61      1     UQ10    CR2     12      0.190    12.0110   ; qtot  0.000
    13     CG2R63      1     UQ10    CR6     13      0.450    12.0110   ; qtot  0.450
    14      OG2D4      1     UQ10    OR6     14     -0.450    15.9994   ; qtot  0.000
    15     CG2R63      1     UQ10    CR3     15      0.450    12.0110   ; qtot  0.450
    16      OG2D4      1     UQ10    OR3     16     -0.450    15.9994   ; qtot  0.000
    17     CG2R61      1     UQ10    CR4     17      0.000    12.0110   ; qtot  0.000
    18     CG2R61      1     UQ10    CR5     18      0.000    12.0110   ; qtot  0.000
    19       CTL3      1     UQ10    C11     19     -0.270    12.0110   ; qtot -0.270
    20       HAL3      1     UQ10    H1R     20      0.090     1.0080   ; qtot -0.180
    21       HAL3      1     UQ10    H1S     21      0.090     1.0080   ; qtot -0.090
    22       HAL3      1     UQ10    H1T     22      0.090     1.0080   ; qtot -0.000
    23       CTL2      1     UQ10    C21     23     -0.180    12.0110   ; qtot -0.180
    24       HAL2      1     UQ10    H1X     24      0.090     1.0080   ; qtot -0.090
    25       HAL2      1     UQ10    H1Y     25      0.090     1.0080   ; qtot -0.000
    26       CEL1      1     UQ10    C22     26     -0.150    12.0110   ; qtot -0.150
    27       HEL1      1     UQ10    H2Y     27      0.150     1.0080   ; qtot -0.000
    28       CEL0      1     UQ10    C23     28     -0.000    12.0110   ; qtot -0.000
    29       CTL2      1     UQ10    C24     29     -0.180    12.0110   ; qtot -0.180
    30       HAL2      1     UQ10    H4X     30      0.090     1.0080   ; qtot -0.090
    31       HAL2      1     UQ10    H4Y     31      0.090     1.0080   ; qtot -0.000
    32       CTL3      1     UQ10    C25     32     -0.270    12.0110   ; qtot -0.270
    33       HAL3      1     UQ10    H5X     33      0.090     1.0080   ; qtot -0.180
    34       HAL3      1     UQ10    H5Y     34      0.090     1.0080   ; qtot -0.090
    35       HAL3      1     UQ10    H5Z     35      0.090     1.0080   ; qtot -0.000
    36       CTL2      1     UQ10    C26     36     -0.180    12.0110   ; qtot -0.180
    37       HAL2      1     UQ10    H6X     37      0.090     1.0080   ; qtot -0.090
    38       HAL2      1     UQ10    H6Y     38      0.090     1.0080   ; qtot -0.000
    39       CEL1      1     UQ10    C27     39     -0.150    12.0110   ; qtot -0.150
    40       HEL1      1     UQ10    H7Y     40      0.150     1.0080   ; qtot -0.000
    41       CEL0      1     UQ10    C28     41      0.000    12.0110   ; qtot -0.000
    42       CTL3      1     UQ10   C210     42     -0.270    12.0110   ; qtot -0.270
    43       HAL3      1     UQ10   H10X     43      0.090     1.0080   ; qtot -0.180
    44       HAL3      1     UQ10   H10Y     44      0.090     1.0080   ; qtot -0.090
    45       HAL3      1     UQ10   H10Z     45      0.090     1.0080   ; qtot -0.000
    46       CTL2      1     UQ10    C29     46     -0.180    12.0110   ; qtot -0.180
    47       HAL2      1     UQ10    H9X     47      0.090     1.0080   ; qtot -0.090
    48       HAL2      1     UQ10    H9Y     48      0.090     1.0080   ; qtot -0.000
    49       CTL2      1     UQ10   C211     49     -0.180    12.0110   ; qtot -0.180
    50       HAL2      1     UQ10   H11X     50      0.090     1.0080   ; qtot -0.090
    51       HAL2      1     UQ10   H11Y     51      0.090     1.0080   ; qtot -0.000
    52       CEL1      1     UQ10   C212     52     -0.150    12.0110   ; qtot -0.150
    53       HEL1      1     UQ10   H12Y     53      0.150     1.0080   ; qtot -0.000
    54       CEL0      1     UQ10   C213     54      0.000    12.0110   ; qtot -0.000
    55       CTL3      1     UQ10   C215     55     -0.270    12.0110   ; qtot -0.270
    56       HAL3      1     UQ10   H15X     56      0.090     1.0080   ; qtot -0.180
    57       HAL3      1     UQ10   H15Y     57      0.090     1.0080   ; qtot -0.090
    58       HAL3      1     UQ10   H15Z     58      0.090     1.0080   ; qtot -0.000
    59       CTL2      1     UQ10   C214     59     -0.180    12.0110   ; qtot -0.180
    60       HAL2      1     UQ10   H14X     60      0.090     1.0080   ; qtot -0.090
    61       HAL2      1     UQ10   H14Y     61      0.090     1.0080   ; qtot -0.000
    62       CTL2      1     UQ10   C216     62     -0.180    12.0110   ; qtot -0.180
    63       HAL2      1     UQ10   H16X     63      0.090     1.0080   ; qtot -0.090
    64       HAL2      1     UQ10   H16Y     64      0.090     1.0080   ; qtot -0.000
    65       CEL1      1     UQ10   C217     65     -0.150    12.0110   ; qtot -0.150
    66       HEL1      1     UQ10   H17Y     66      0.150     1.0080   ; qtot -0.000
    67       CEL0      1     UQ10   C218     67      0.000    12.0110   ; qtot -0.000
    68       CTL3      1     UQ10   C220     68     -0.270    12.0110   ; qtot -0.270
    69       HAL3      1     UQ10   H20X     69      0.090     1.0080   ; qtot -0.180
    70       HAL3      1     UQ10   H20Y     70      0.090     1.0080   ; qtot -0.090
    71       HAL3      1     UQ10   H20Z     71      0.090     1.0080   ; qtot -0.000
    72       CTL2      1     UQ10   C219     72     -0.180    12.0110   ; qtot -0.180
    73       HAL2      1     UQ10   H19X     73      0.090     1.0080   ; qtot -0.090
    74       HAL2      1     UQ10   H19Y     74      0.090     1.0080   ; qtot -0.000
    75       CTL2      1     UQ10   C221     75     -0.180    12.0110   ; qtot -0.180
    76       HAL2      1     UQ10   H21X     76      0.090     1.0080   ; qtot -0.090
    77       HAL2      1     UQ10   H21Y     77      0.090     1.0080   ; qtot -0.000
    78       CEL1      1     UQ10   C222     78     -0.150    12.0110   ; qtot -0.150
    79       HEL1      1     UQ10   H22Y     79      0.150     1.0080   ; qtot -0.000
    80       CEL0      1     UQ10   C223     80      0.000    12.0110   ; qtot -0.000
    81       CTL3      1     UQ10   C225     81     -0.270    12.0110   ; qtot -0.270
    82       HAL3      1     UQ10   H25X     82      0.090     1.0080   ; qtot -0.180
    83       HAL3      1     UQ10   H25Y     83      0.090     1.0080   ; qtot -0.090
    84       HAL3      1     UQ10   H25Z     84      0.090     1.0080   ; qtot -0.000
    85       CTL2      1     UQ10   C224     85     -0.180    12.0110   ; qtot -0.180
    86       HAL2      1     UQ10   H24X     86      0.090     1.0080   ; qtot -0.090
    87       HAL2      1     UQ10   H24Y     87      0.090     1.0080   ; qtot -0.000
    88       CTL2      1     UQ10   C226     88     -0.180    12.0110   ; qtot -0.180
    89       HAL2      1     UQ10   H26X     89      0.090     1.0080   ; qtot -0.090
    90       HAL2      1     UQ10   H26Y     90      0.090     1.0080   ; qtot -0.000
    91       CEL1      1     UQ10   C227     91     -0.150    12.0110   ; qtot -0.150
    92       HEL1      1     UQ10   H27Y     92      0.150     1.0080   ; qtot -0.000
    93       CEL0      1     UQ10   C228     93      0.000    12.0110   ; qtot -0.000
    94       CTL3      1     UQ10   C230     94     -0.270    12.0110   ; qtot -0.270
    95       HAL3      1     UQ10   H30X     95      0.090     1.0080   ; qtot -0.180
    96       HAL3      1     UQ10   H30Y     96      0.090     1.0080   ; qtot -0.090
    97       HAL3      1     UQ10   H30Z     97      0.090     1.0080   ; qtot -0.000
    98       CTL2      1     UQ10   C229     98     -0.180    12.0110   ; qtot -0.180
    99       HAL2      1     UQ10   H29X     99      0.090     1.0080   ; qtot -0.090
   100       HAL2      1     UQ10   H29Y    100      0.090     1.0080   ; qtot -0.000
   101       CTL2      1     UQ10   C231    101     -0.180    12.0110   ; qtot -0.180
   102       HAL2      1     UQ10   H31X    102      0.090     1.0080   ; qtot -0.090
   103       HAL2      1     UQ10   H31Y    103      0.090     1.0080   ; qtot -0.000
   104       CEL1      1     UQ10   C232    104     -0.150    12.0110   ; qtot -0.150
   105       HEL1      1     UQ10   H32Y    105      0.150     1.0080   ; qtot -0.000
   106       CEL0      1     UQ10   C233    106      0.000    12.0110   ; qtot -0.000
   107       CTL3      1     UQ10   C235    107     -0.270    12.0110   ; qtot -0.270
   108       HAL3      1     UQ10   H35X    108      0.090     1.0080   ; qtot -0.180
   109       HAL3      1     UQ10   H35Y    109      0.090     1.0080   ; qtot -0.090
   110       HAL3      1     UQ10   H35Z    110      0.090     1.0080   ; qtot -0.000
   111       CTL2      1     UQ10   C234    111     -0.180    12.0110   ; qtot -0.180
   112       HAL2      1     UQ10   H34X    112      0.090     1.0080   ; qtot -0.090
   113       HAL2      1     UQ10   H34Y    113      0.090     1.0080   ; qtot -0.000
   114       CTL2      1     UQ10   C236    114     -0.180    12.0110   ; qtot -0.180
   115       HAL2      1     UQ10   H36X    115      0.090     1.0080   ; qtot -0.090
   116       HAL2      1     UQ10   H36Y    116      0.090     1.0080   ; qtot -0.000
   117       CEL1      1     UQ10   C237    117     -0.150    12.0110   ; qtot -0.150
   118       HEL1      1     UQ10   H37Y    118      0.150     1.0080   ; qtot -0.000
   119       CEL0      1     UQ10   C238    119      0.000    12.0110   ; qtot -0.000
   120       CTL3      1     UQ10   C240    120     -0.270    12.0110   ; qtot -0.270
   121       HAL3      1     UQ10   H40X    121      0.090     1.0080   ; qtot -0.180
   122       HAL3      1     UQ10   H40Y    122      0.090     1.0080   ; qtot -0.090
   123       HAL3      1     UQ10   H40Z    123      0.090     1.0080   ; qtot -0.000
   124       CTL2      1     UQ10   C239    124     -0.180    12.0110   ; qtot -0.180
   125       HAL2      1     UQ10   H39X    125      0.090     1.0080   ; qtot -0.090
   126       HAL2      1     UQ10   H39Y    126      0.090     1.0080   ; qtot -0.000
   127       CTL2      1     UQ10   C241    127     -0.180    12.0110   ; qtot -0.180
   128       HAL2      1     UQ10   H41X    128      0.090     1.0080   ; qtot -0.090
   129       HAL2      1     UQ10   H41Y    129      0.090     1.0080   ; qtot -0.000
   130       CEL1      1     UQ10   C242    130     -0.150    12.0110   ; qtot -0.150
   131       HEL1      1     UQ10   H42Y    131      0.150     1.0080   ; qtot -0.000
   132       CEL0      1     UQ10   C243    132      0.000    12.0110   ; qtot -0.000
   133       CTL3      1     UQ10   C245    133     -0.270    12.0110   ; qtot -0.270
   134       HAL3      1     UQ10   H45X    134      0.090     1.0080   ; qtot -0.180
   135       HAL3      1     UQ10   H45Y    135      0.090     1.0080   ; qtot -0.090
   136       HAL3      1     UQ10   H45Z    136      0.090     1.0080   ; qtot -0.000
   137       CTL2      1     UQ10   C244    137     -0.180    12.0110   ; qtot -0.180
   138       HAL2      1     UQ10   H44X    138      0.090     1.0080   ; qtot -0.090
   139       HAL2      1     UQ10   H44Y    139      0.090     1.0080   ; qtot -0.000
   140       CTL2      1     UQ10   C246    140     -0.180    12.0110   ; qtot -0.180
   141       HAL2      1     UQ10   H46X    141      0.090     1.0080   ; qtot -0.090
   142       HAL2      1     UQ10   H46Y    142      0.090     1.0080   ; qtot -0.000
   143       CEL1      1     UQ10   C247    143     -0.150    12.0110   ; qtot -0.150
   144       HEL1      1     UQ10   H47Y    144      0.150     1.0080   ; qtot -0.000
   145       CEL0      1     UQ10   C248    145      0.000    12.0110   ; qtot -0.000
   146       CTL3      1     UQ10   C250    146     -0.270    12.0110   ; qtot -0.270
   147       HAL3      1     UQ10   H50X    147      0.090     1.0080   ; qtot -0.180
   148       HAL3      1     UQ10   H50Y    148      0.090     1.0080   ; qtot -0.090
   149       HAL3      1     UQ10   H50Z    149      0.090     1.0080   ; qtot -0.000
   150       CTL3      1     UQ10   C249    150     -0.270    12.0110   ; qtot -0.270
   151       HAL3      1     UQ10   H49X    151      0.090     1.0080   ; qtot -0.180
   152       HAL3      1     UQ10   H49Y    152      0.090     1.0080   ; qtot -0.090
   153       HAL3      1     UQ10   H49Z    153      0.090     1.0080   ; qtot -0.000

[ bonds ]
; ai	aj	funct	b0	Kb
    1     2     1
    1     3     1
    1     4     1
    1     9     1
    5     6     1
    5     7     1
    5     8     1
    5    11     1
    9    10     1
   10    12     1
   10    13     1
   11    12     1
   12    15     1
   13    14     1
   13    18     1
   15    16     1
   15    17     1
   17    18     1
   17    23     1
   18    19     1
   19    20     1
   19    21     1
   19    22     1
   23    24     1
   23    25     1
   23    26     1
   26    27     1
   26    28     1
   28    29     1
   28    32     1
   29    30     1
   29    31     1
   29    36     1
   32    33     1
   32    34     1
   32    35     1
   36    37     1
   36    38     1
   36    39     1
   39    40     1
   39    41     1
   41    42     1
   41    46     1
   42    43     1
   42    44     1
   42    45     1
   46    47     1
   46    48     1
   46    49     1
   49    50     1
   49    51     1
   49    52     1
   52    53     1
   52    54     1
   54    55     1
   54    59     1
   55    56     1
   55    57     1
   55    58     1
   59    60     1
   59    61     1
   59    62     1
   62    63     1
   62    64     1
   62    65     1
   65    66     1
   65    67     1
   67    68     1
   67    72     1
   68    69     1
   68    70     1
   68    71     1
   72    73     1
   72    74     1
   72    75     1
   75    76     1
   75    77     1
   75    78     1
   78    79     1
   78    80     1
   80    81     1
   80    85     1
   81    82     1
   81    83     1
   81    84     1
   85    86     1
   85    87     1
   85    88     1
   88    89     1
   88    90     1
   88    91     1
   91    92     1
   91    93     1
   93    94     1
   93    98     1
   94    95     1
   94    96     1
   94    97     1
   98    99     1
   98   100     1
   98   101     1
  101   102     1
  101   103     1
  101   104     1
  104   105     1
  104   106     1
  106   107     1
  106   111     1
  107   108     1
  107   109     1
  107   110     1
  111   112     1
  111   113     1
  111   114     1
  114   115     1
  114   116     1
  114   117     1
  117   118     1
  117   119     1
  119   120     1
  119   124     1
  120   121     1
  120   122     1
  120   123     1
  124   125     1
  124   126     1
  124   127     1
  127   128     1
  127   129     1
  127   130     1
  130   131     1
  130   132     1
  132   133     1
  132   137     1
  133   134     1
  133   135     1
  133   136     1
  137   138     1
  137   139     1
  137   140     1
  140   141     1
  140   142     1
  140   143     1
  143   144     1
  143   145     1
  145   146     1
  145   150     1
  146   147     1
  146   148     1
  146   149     1
  150   151     1
  150   152     1
  150   153     1

[ pairs ]
; ai	aj	funct	c6	c12
    1    12     1 
    1    13     1 
    2    10     1 
    3    10     1 
    4    10     1 
    5    10     1 
    5    15     1 
    6    12     1 
    7    12     1 
    8    12     1 
    9    11     1 
    9    14     1 
    9    15     1 
    9    18     1 
   10    16     1 
   10    17     1 
   10    19     1 
   11    13     1 
   11    16     1 
   11    17     1 
   12    14     1 
   12    18     1 
   12    23     1 
   13    15     1 
   13    20     1 
   13    21     1 
   13    22     1 
   13    23     1 
   14    17     1 
   14    19     1 
   15    19     1 
   15    24     1 
   15    25     1 
   15    26     1 
   16    18     1 
   16    23     1 
   17    20     1 
   17    21     1 
   17    22     1 
   17    27     1 
   17    28     1 
   18    24     1 
   18    25     1 
   18    26     1 
   19    23     1 
   23    29     1 
   23    32     1 
   24    27     1 
   24    28     1 
   25    27     1 
   25    28     1 
   26    30     1 
   26    31     1 
   26    33     1 
   26    34     1 
   26    35     1 
   26    36     1 
   27    29     1 
   27    32     1 
   28    37     1 
   28    38     1 
   28    39     1 
   29    33     1 
   29    34     1 
   29    35     1 
   29    40     1 
   29    41     1 
   30    32     1 
   30    37     1 
   30    38     1 
   30    39     1 
   31    32     1 
   31    37     1 
   31    38     1 
   31    39     1 
   32    36     1 
   36    42     1 
   36    46     1 
   37    40     1 
   37    41     1 
   38    40     1 
   38    41     1 
   39    43     1 
   39    44     1 
   39    45     1 
   39    47     1 
   39    48     1 
   39    49     1 
   40    42     1 
   40    46     1 
   41    50     1 
   41    51     1 
   41    52     1 
   42    47     1 
   42    48     1 
   42    49     1 
   43    46     1 
   44    46     1 
   45    46     1 
   46    53     1 
   46    54     1 
   47    50     1 
   47    51     1 
   47    52     1 
   48    50     1 
   48    51     1 
   48    52     1 
   49    55     1 
   49    59     1 
   50    53     1 
   50    54     1 
   51    53     1 
   51    54     1 
   52    56     1 
   52    57     1 
   52    58     1 
   52    60     1 
   52    61     1 
   52    62     1 
   53    55     1 
   53    59     1 
   54    63     1 
   54    64     1 
   54    65     1 
   55    60     1 
   55    61     1 
   55    62     1 
   56    59     1 
   57    59     1 
   58    59     1 
   59    66     1 
   59    67     1 
   60    63     1 
   60    64     1 
   60    65     1 
   61    63     1 
   61    64     1 
   61    65     1 
   62    68     1 
   62    72     1 
   63    66     1 
   63    67     1 
   64    66     1 
   64    67     1 
   65    69     1 
   65    70     1 
   65    71     1 
   65    73     1 
   65    74     1 
   65    75     1 
   66    68     1 
   66    72     1 
   67    76     1 
   67    77     1 
   67    78     1 
   68    73     1 
   68    74     1 
   68    75     1 
   69    72     1 
   70    72     1 
   71    72     1 
   72    79     1 
   72    80     1 
   73    76     1 
   73    77     1 
   73    78     1 
   74    76     1 
   74    77     1 
   74    78     1 
   75    81     1 
   75    85     1 
   76    79     1 
   76    80     1 
   77    79     1 
   77    80     1 
   78    82     1 
   78    83     1 
   78    84     1 
   78    86     1 
   78    87     1 
   78    88     1 
   79    81     1 
   79    85     1 
   80    89     1 
   80    90     1 
   80    91     1 
   81    86     1 
   81    87     1 
   81    88     1 
   82    85     1 
   83    85     1 
   84    85     1 
   85    92     1 
   85    93     1 
   86    89     1 
   86    90     1 
   86    91     1 
   87    89     1 
   87    90     1 
   87    91     1 
   88    94     1 
   88    98     1 
   89    92     1 
   89    93     1 
   90    92     1 
   90    93     1 
   91    95     1 
   91    96     1 
   91    97     1 
   91    99     1 
   91   100     1 
   91   101     1 
   92    94     1 
   92    98     1 
   93   102     1 
   93   103     1 
   93   104     1 
   94    99     1 
   94   100     1 
   94   101     1 
   95    98     1 
   96    98     1 
   97    98     1 
   98   105     1 
   98   106     1 
   99   102     1 
   99   103     1 
   99   104     1 
  100   102     1 
  100   103     1 
  100   104     1 
  101   107     1 
  101   111     1 
  102   105     1 
  102   106     1 
  103   105     1 
  103   106     1 
  104   108     1 
  104   109     1 
  104   110     1 
  104   112     1 
  104   113     1 
  104   114     1 
  105   107     1 
  105   111     1 
  106   115     1 
  106   116     1 
  106   117     1 
  107   112     1 
  107   113     1 
  107   114     1 
  108   111     1 
  109   111     1 
  110   111     1 
  111   118     1 
  111   119     1 
  112   115     1 
  112   116     1 
  112   117     1 
  113   115     1 
  113   116     1 
  113   117     1 
  114   120     1 
  114   124     1 
  115   118     1 
  115   119     1 
  116   118     1 
  116   119     1 
  117   121     1 
  117   122     1 
  117   123     1 
  117   125     1 
  117   126     1 
  117   127     1 
  118   120     1 
  118   124     1 
  119   128     1 
  119   129     1 
  119   130     1 
  120   125     1 
  120   126     1 
  120   127     1 
  121   124     1 
  122   124     1 
  123   124     1 
  124   131     1 
  124   132     1 
  125   128     1 
  125   129     1 
  125   130     1 
  126   128     1 
  126   129     1 
  126   130     1 
  127   133     1 
  127   137     1 
  128   131     1 
  128   132     1 
  129   131     1 
  129   132     1 
  130   134     1 
  130   135     1 
  130   136     1 
  130   138     1 
  130   139     1 
  130   140     1 
  131   133     1 
  131   137     1 
  132   141     1 
  132   142     1 
  132   143     1 
  133   138     1 
  133   139     1 
  133   140     1 
  134   137     1 
  135   137     1 
  136   137     1 
  137   144     1 
  137   145     1 
  138   141     1 
  138   142     1 
  138   143     1 
  139   141     1 
  139   142     1 
  139   143     1 
  140   146     1 
  140   150     1 
  141   144     1 
  141   145     1 
  142   144     1 
  142   145     1 
  143   147     1 
  143   148     1 
  143   149     1 
  143   151     1 
  143   152     1 
  143   153     1 
  144   146     1 
  144   150     1 
  146   151     1 
  146   152     1 
  146   153     1 
  147   150     1 
  148   150     1 
  149   150     1 

[ angles ] 
; ai	aj	ak	funct	th0	cth	S0	Kub
    2     1     3     5
    2     1     4     5
    2     1     9     5
    3     1     4     5
    3     1     9     5
    4     1     9     5
    6     5     7     5
    6     5     8     5
    6     5    11     5
    7     5     8     5
    7     5    11     5
    8     5    11     5
    1     9    10     5
    9    10    12     5
    9    10    13     5
   12    10    13     5
    5    11    12     5
   10    12    11     5
   10    12    15     5
   11    12    15     5
   10    13    14     5
   10    13    18     5
   14    13    18     5
   12    15    16     5
   12    15    17     5
   16    15    17     5
   15    17    18     5
   15    17    23     5
   18    17    23     5
   13    18    17     5
   13    18    19     5
   17    18    19     5
   18    19    20     5
   18    19    21     5
   18    19    22     5
   20    19    21     5
   20    19    22     5
   21    19    22     5
   17    23    24     5
   17    23    25     5
   17    23    26     5
   24    23    25     5
   24    23    26     5
   25    23    26     5
   23    26    27     5
   23    26    28     5
   27    26    28     5
   26    28    29     5
   26    28    32     5
   29    28    32     5
   28    29    30     5
   28    29    31     5
   28    29    36     5
   30    29    31     5
   30    29    36     5
   31    29    36     5
   28    32    33     5
   28    32    34     5
   28    32    35     5
   33    32    34     5
   33    32    35     5
   34    32    35     5
   29    36    37     5
   29    36    38     5
   29    36    39     5
   37    36    38     5
   37    36    39     5
   38    36    39     5
   36    39    40     5
   36    39    41     5
   40    39    41     5
   39    41    42     5
   39    41    46     5
   42    41    46     5
   41    42    43     5
   41    42    44     5
   41    42    45     5
   43    42    44     5
   43    42    45     5
   44    42    45     5
   41    46    47     5
   41    46    48     5
   41    46    49     5
   47    46    48     5
   47    46    49     5
   48    46    49     5
   46    49    50     5
   46    49    51     5
   46    49    52     5
   50    49    51     5
   50    49    52     5
   51    49    52     5
   49    52    53     5
   49    52    54     5
   53    52    54     5
   52    54    55     5
   52    54    59     5
   55    54    59     5
   54    55    56     5
   54    55    57     5
   54    55    58     5
   56    55    57     5
   56    55    58     5
   57    55    58     5
   54    59    60     5
   54    59    61     5
   54    59    62     5
   60    59    61     5
   60    59    62     5
   61    59    62     5
   59    62    63     5
   59    62    64     5
   59    62    65     5
   63    62    64     5
   63    62    65     5
   64    62    65     5
   62    65    66     5
   62    65    67     5
   66    65    67     5
   65    67    68     5
   65    67    72     5
   68    67    72     5
   67    68    69     5
   67    68    70     5
   67    68    71     5
   69    68    70     5
   69    68    71     5
   70    68    71     5
   67    72    73     5
   67    72    74     5
   67    72    75     5
   73    72    74     5
   73    72    75     5
   74    72    75     5
   72    75    76     5
   72    75    77     5
   72    75    78     5
   76    75    77     5
   76    75    78     5
   77    75    78     5
   75    78    79     5
   75    78    80     5
   79    78    80     5
   78    80    81     5
   78    80    85     5
   81    80    85     5
   80    81    82     5
   80    81    83     5
   80    81    84     5
   82    81    83     5
   82    81    84     5
   83    81    84     5
   80    85    86     5
   80    85    87     5
   80    85    88     5
   86    85    87     5
   86    85    88     5
   87    85    88     5
   85    88    89     5
   85    88    90     5
   85    88    91     5
   89    88    90     5
   89    88    91     5
   90    88    91     5
   88    91    92     5
   88    91    93     5
   92    91    93     5
   91    93    94     5
   91    93    98     5
   94    93    98     5
   93    94    95     5
   93    94    96     5
   93    94    97     5
   95    94    96     5
   95    94    97     5
   96    94    97     5
   93    98    99     5
   93    98   100     5
   93    98   101     5
   99    98   100     5
   99    98   101     5
  100    98   101     5
   98   101   102     5
   98   101   103     5
   98   101   104     5
  102   101   103     5
  102   101   104     5
  103   101   104     5
  101   104   105     5
  101   104   106     5
  105   104   106     5
  104   106   107     5
  104   106   111     5
  107   106   111     5
  106   107   108     5
  106   107   109     5
  106   107   110     5
  108   107   109     5
  108   107   110     5
  109   107   110     5
  106   111   112     5
  106   111   113     5
  106   111   114     5
  112   111   113     5
  112   111   114     5
  113   111   114     5
  111   114   115     5
  111   114   116     5
  111   114   117     5
  115   114   116     5
  115   114   117     5
  116   114   117     5
  114   117   118     5
  114   117   119     5
  118   117   119     5
  117   119   120     5
  117   119   124     5
  120   119   124     5
  119   120   121     5
  119   120   122     5
  119   120   123     5
  121   120   122     5
  121   120   123     5
  122   120   123     5
  119   124   125     5
  119   124   126     5
  119   124   127     5
  125   124   126     5
  125   124   127     5
  126   124   127     5
  124   127   128     5
  124   127   129     5
  124   127   130     5
  128   127   129     5
  128   127   130     5
  129   127   130     5
  127   130   131     5
  127   130   132     5
  131   130   132     5
  130   132   133     5
  130   132   137     5
  133   132   137     5
  132   133   134     5
  132   133   135     5
  132   133   136     5
  134   133   135     5
  134   133   136     5
  135   133   136     5
  132   137   138     5
  132   137   139     5
  132   137   140     5
  138   137   139     5
  138   137   140     5
  139   137   140     5
  137   140   141     5
  137   140   142     5
  137   140   143     5
  141   140   142     5
  141   140   143     5
  142   140   143     5
  140   143   144     5
  140   143   145     5
  144   143   145     5
  143   145   146     5
  143   145   150     5
  146   145   150     5
  145   146   147     5
  145   146   148     5
  145   146   149     5
  147   146   148     5
  147   146   149     5
  148   146   149     5
  145   150   151     5
  145   150   152     5
  145   150   153     5
  151   150   152     5
  151   150   153     5
  152   150   153     5

[ dihedrals ]
; ai	aj	ak	al	funct	phi0	cp	mult
    2     1     9    10     9
    3     1     9    10     9
    4     1     9    10     9
    6     5    11    12     9
    7     5    11    12     9
    8     5    11    12     9
    1     9    10    12     9
    1     9    10    13     9
    9    10    12    11     9
    9    10    12    15     9
   13    10    12    15     9
    9    10    13    14     9
    9    10    13    18     9
   12    10    13    14     9
   12    10    13    18     9
    5    11    12    10     9
    5    11    12    15     9
   11    12    10    13     9
   10    12    15    16     9
   10    12    15    17     9
   11    12    15    16     9
   11    12    15    17     9
   10    13    18    17     9
   10    13    18    19     9
   14    13    18    17     9
   14    13    18    19     9
   12    15    17    18     9
   12    15    17    23     9
   16    15    17    18     9
   16    15    17    23     9
   15    17    18    19     9
   15    17    23    24     9
   15    17    23    25     9
   15    17    23    26     9
   18    17    23    24     9
   18    17    23    25     9
   18    17    23    26     9
   13    18    17    15     9
   13    18    17    23     9
   19    18    17    23     9
   13    18    19    20     9
   13    18    19    21     9
   13    18    19    22     9
   17    18    19    20     9
   17    18    19    21     9
   17    18    19    22     9
   17    23    26    27     9
   17    23    26    28     9
   24    23    26    27     9
   24    23    26    28     9
   25    23    26    27     9
   25    23    26    28     9
   23    26    28    29     9
   23    26    28    32     9
   27    26    28    29     9
   27    26    28    32     9
   26    28    29    30     9
   26    28    29    31     9
   26    28    29    36     9
   32    28    29    36     9
   26    28    32    33     9
   26    28    32    34     9
   26    28    32    35     9
   29    28    32    33     9
   29    28    32    34     9
   29    28    32    35     9
   30    29    28    32     9
   31    29    28    32     9
   28    29    36    37     9
   28    29    36    38     9
   28    29    36    39     9
   30    29    36    37     9
   30    29    36    38     9
   30    29    36    39     9
   31    29    36    37     9
   31    29    36    38     9
   31    29    36    39     9
   29    36    39    40     9
   29    36    39    41     9
   37    36    39    40     9
   37    36    39    41     9
   38    36    39    40     9
   38    36    39    41     9
   36    39    41    42     9
   36    39    41    46     9
   40    39    41    42     9
   40    39    41    46     9
   39    41    42    43     9
   39    41    42    44     9
   39    41    42    45     9
   39    41    46    47     9
   39    41    46    48     9
   39    41    46    49     9
   42    41    46    47     9
   42    41    46    48     9
   42    41    46    49     9
   43    42    41    46     9
   44    42    41    46     9
   45    42    41    46     9
   41    46    49    50     9
   41    46    49    51     9
   41    46    49    52     9
   47    46    49    50     9
   47    46    49    51     9
   47    46    49    52     9
   48    46    49    50     9
   48    46    49    51     9
   48    46    49    52     9
   46    49    52    53     9
   46    49    52    54     9
   50    49    52    53     9
   50    49    52    54     9
   51    49    52    53     9
   51    49    52    54     9
   49    52    54    55     9
   49    52    54    59     9
   53    52    54    55     9
   53    52    54    59     9
   52    54    55    56     9
   52    54    55    57     9
   52    54    55    58     9
   52    54    59    60     9
   52    54    59    61     9
   52    54    59    62     9
   55    54    59    60     9
   55    54    59    61     9
   55    54    59    62     9
   56    55    54    59     9
   57    55    54    59     9
   58    55    54    59     9
   54    59    62    63     9
   54    59    62    64     9
   54    59    62    65     9
   60    59    62    63     9
   60    59    62    64     9
   60    59    62    65     9
   61    59    62    63     9
   61    59    62    64     9
   61    59    62    65     9
   59    62    65    66     9
   59    62    65    67     9
   63    62    65    66     9
   63    62    65    67     9
   64    62    65    66     9
   64    62    65    67     9
   62    65    67    68     9
   62    65    67    72     9
   66    65    67    68     9
   66    65    67    72     9
   65    67    68    69     9
   65    67    68    70     9
   65    67    68    71     9
   65    67    72    73     9
   65    67    72    74     9
   65    67    72    75     9
   68    67    72    73     9
   68    67    72    74     9
   68    67    72    75     9
   69    68    67    72     9
   70    68    67    72     9
   71    68    67    72     9
   67    72    75    76     9
   67    72    75    77     9
   67    72    75    78     9
   73    72    75    76     9
   73    72    75    77     9
   73    72    75    78     9
   74    72    75    76     9
   74    72    75    77     9
   74    72    75    78     9
   72    75    78    79     9
   72    75    78    80     9
   76    75    78    79     9
   76    75    78    80     9
   77    75    78    79     9
   77    75    78    80     9
   75    78    80    81     9
   75    78    80    85     9
   79    78    80    81     9
   79    78    80    85     9
   78    80    81    82     9
   78    80    81    83     9
   78    80    81    84     9
   78    80    85    86     9
   78    80    85    87     9
   78    80    85    88     9
   81    80    85    86     9
   81    80    85    87     9
   81    80    85    88     9
   82    81    80    85     9
   83    81    80    85     9
   84    81    80    85     9
   80    85    88    89     9
   80    85    88    90     9
   80    85    88    91     9
   86    85    88    89     9
   86    85    88    90     9
   86    85    88    91     9
   87    85    88    89     9
   87    85    88    90     9
   87    85    88    91     9
   85    88    91    92     9
   85    88    91    93     9
   89    88    91    92     9
   89    88    91    93     9
   90    88    91    92     9
   90    88    91    93     9
   88    91    93    94     9
   88    91    93    98     9
   92    91    93    94     9
   92    91    93    98     9
   91    93    94    95     9
   91    93    94    96     9
   91    93    94    97     9
   91    93    98    99     9
   91    93    98   100     9
   91    93    98   101     9
   94    93    98    99     9
   94    93    98   100     9
   94    93    98   101     9
   95    94    93    98     9
   96    94    93    98     9
   97    94    93    98     9
   93    98   101   102     9
   93    98   101   103     9
   93    98   101   104     9
   99    98   101   102     9
   99    98   101   103     9
   99    98   101   104     9
  100    98   101   102     9
  100    98   101   103     9
  100    98   101   104     9
   98   101   104   105     9
   98   101   104   106     9
  102   101   104   105     9
  102   101   104   106     9
  103   101   104   105     9
  103   101   104   106     9
  101   104   106   107     9
  101   104   106   111     9
  105   104   106   107     9
  105   104   106   111     9
  104   106   107   108     9
  104   106   107   109     9
  104   106   107   110     9
  104   106   111   112     9
  104   106   111   113     9
  104   106   111   114     9
  107   106   111   112     9
  107   106   111   113     9
  107   106   111   114     9
  108   107   106   111     9
  109   107   106   111     9
  110   107   106   111     9
  106   111   114   115     9
  106   111   114   116     9
  106   111   114   117     9
  112   111   114   115     9
  112   111   114   116     9
  112   111   114   117     9
  113   111   114   115     9
  113   111   114   116     9
  113   111   114   117     9
  111   114   117   118     9
  111   114   117   119     9
  115   114   117   118     9
  115   114   117   119     9
  116   114   117   118     9
  116   114   117   119     9
  114   117   119   120     9
  114   117   119   124     9
  118   117   119   120     9
  118   117   119   124     9
  117   119   120   121     9
  117   119   120   122     9
  117   119   120   123     9
  117   119   124   125     9
  117   119   124   126     9
  117   119   124   127     9
  120   119   124   125     9
  120   119   124   126     9
  120   119   124   127     9
  121   120   119   124     9
  122   120   119   124     9
  123   120   119   124     9
  119   124   127   128     9
  119   124   127   129     9
  119   124   127   130     9
  125   124   127   128     9
  125   124   127   129     9
  125   124   127   130     9
  126   124   127   128     9
  126   124   127   129     9
  126   124   127   130     9
  124   127   130   131     9
  124   127   130   132     9
  128   127   130   131     9
  128   127   130   132     9
  129   127   130   131     9
  129   127   130   132     9
  127   130   132   133     9
  127   130   132   137     9
  131   130   132   133     9
  131   130   132   137     9
  130   132   133   134     9
  130   132   133   135     9
  130   132   133   136     9
  130   132   137   138     9
  130   132   137   139     9
  130   132   137   140     9
  133   132   137   138     9
  133   132   137   139     9
  133   132   137   140     9
  134   133   132   137     9
  135   133   132   137     9
  136   133   132   137     9
  132   137   140   141     9
  132   137   140   142     9
  132   137   140   143     9
  138   137   140   141     9
  138   137   140   142     9
  138   137   140   143     9
  139   137   140   141     9
  139   137   140   142     9
  139   137   140   143     9
  137   140   143   144     9
  137   140   143   145     9
  141   140   143   144     9
  141   140   143   145     9
  142   140   143   144     9
  142   140   143   145     9
  140   143   145   146     9
  140   143   145   150     9
  144   143   145   146     9
  144   143   145   150     9
  143   145   146   147     9
  143   145   146   148     9
  143   145   146   149     9
  143   145   150   151     9
  143   145   150   152     9
  143   145   150   153     9
  146   145   150   151     9
  146   145   150   152     9
  146   145   150   153     9
  147   146   145   150     9
  148   146   145   150     9
  149   146   145   150     9

[ dihedrals ]
; ai	aj	ak	al	funct	q0	cq
   13    10    18    14     2
   15    12    17    16     2
